INSANE! Membrane UpperLeaflet>DOPC=100.0 LowerLeaflet>DOPC=100.0
56748
    1DOPC   NC3    1   7.993   4.570  14.128  0.1948  0.0424 -0.1182
    1DOPC   PO4    2   7.691   4.801  14.041 -0.0986  0.0755  0.0077
    1DOPC   GL1    3   7.641   4.775  13.590  0.2943  0.3216  0.1455
    1DOPC   GL2    4   7.389   4.622  13.718 -0.3244  0.1023 -0.1332
    1DOPC   C1A    5   7.374   4.623  13.264  0.1058  0.0654  0.5727
    1DOPC   D2A    6   6.958   4.644  13.025 -0.1624  0.0587 -0.1646
    1DOPC   C3A    7   6.732   5.004  12.906  0.1643 -0.1772  0.0962
    1DOPC   C4A    8   6.658   5.453  12.673  0.1570  0.2441 -0.1199
    1DOPC   C1B    9   7.023   4.738  13.614  0.1707 -0.0335  0.1284
    1DOPC   D2B   10   6.611   4.926  13.361  0.0125  0.1327  0.0073
    1DOPC   C3B   11   6.546   5.382  13.220 -0.0121 -0.1692 -0.1901
    1DOPC   C4B   12   6.601   5.805  13.395  0.0399 -0.0814  0.2400
    2DOPC   NC3   13   2.062   3.284  17.963  0.1175  0.2843 -0.1281
    2DOPC   PO4   14   1.713   3.080  18.050  0.0647  0.0940 -0.1063
    2DOPC   GL1   15   1.250   3.128  18.054  0.0829 -0.0595  0.1351
    2DOPC   GL2   16   1.205   2.826  17.984  0.1903 -0.0822  0.3115
    2DOPC   C1A   17   1.011   3.485  17.853  0.0035 -0.0519  0.0953
    2DOPC   D2A   18   0.684   3.510  17.468 -0.2126  0.0352  0.0201
    2DOPC   C3A   19   0.419   3.665  17.116  0.0865  0.1933  0.0010
    2DOPC   C4A   20   0.081   3.900  16.963 -0.0811 -0.0622  0.1976
    2DOPC   C1B   21   0.994   2.485  17.831 -0.0429  0.0130  0.1426
    2DOPC   D2B   22   0.636   2.255  17.499  0.1359  0.0393  0.1544
    2DOPC   C3B   23   0.512   2.291  17.053 -0.5275 -0.0048 -0.0517
    2DOPC   C4B   24   0.546   2.556  16.688  0.0531  0.0164  0.2570
    3DOPC   NC3   25  22.245   3.254  21.572  0.1619 -0.0887  0.3744
    3DOPC   PO4   26  22.011   2.927  21.555  0.0981  0.2432 -0.1491
    3DOPC   GL1   27  21.744   2.783  21.312 -0.0253 -0.0332  0.0430
    3DOPC   GL2   28  21.784   2.488  21.320  0.1727  0.1773 -0.2165
    3DOPC   C1A   29  21.724   2.890  20.945  0.1217  0.1642  0.1160
    3DOPC   D2A   30  21.716   3.109  20.509  0.1883  0.3017 -0.0009
    3DOPC   C3A   31  21.729   2.907  20.074  0.0903 -0.3842 -0.0655
    3DOPC   C4A   32  21.652   2.583  19.699  0.2090 -0.0955  0.2526
    3DOPC   C1B   33  22.050   2.304  21.046  0.1613 -0.2240  0.1173
    3DOPC   D2B   34  22.257   2.033  20.628 -0.2216 -0.2794  0.0322
    3DOPC   C3B   35  22.255   1.548  20.500  0.2035  0.0640 -0.2058
    3DOPC   C4B   36  22.421   1.041  20.373 -0.1781  0.0277 -0.2765
    4DOPC   NC3   37  17.801   6.437  22.381  0.1386  0.1916 -0.0243
    4DOPC   PO4   38  18.098   6.651  22.242 -0.0270  0.0161  0.1899
    4DOPC   GL1   39  18.103   6.855  21.978 -0.1788  0.1929  0.0516
    4DOPC   GL2   40  18.226   6.600  21.758 -0.1093 -0.3751  0.0009
    4DOPC   C1A   41  17.972   7.103  21.695 -0.3054  0.0978 -0.0217
    4DOPC   D2A   42  17.887   7.386  21.312  0.2704 -0.0708 -0.0520
    4DOPC   C3A   43  17.885   7.847  21.161 -0.0286 -0.1627 -0.0438
    4DOPC   C4A   44  17.755   8.262  21.066 -0.2074  0.0897 -0.2272
    4DOPC   C1B   45  18.174   6.690  21.340 -0.2739 -0.0705 -0.4322
    4DOPC   D2B   46  18.187   7.050  21.083 -0.0297 -0.1182  0.2447
    4DOPC   C3B   47  18.515   7.198  20.735 -0.1263 -0.0446  0.0378
    4DOPC   C4B   48  18.874   7.255  20.425  0.1235  0.0807  0.0229
    5DOPC   NC3   49  11.650   2.779  17.736  0.2564 -0.1063 -0.0279
    5DOPC   PO4   50  11.828   2.834  18.091 -0.0464  0.0395  0.1847
    5DOPC   GL1   51  12.181   2.619  18.146  0.2386  0.2018 -0.0227
    5DOPC   GL2   52  12.170   2.542  17.843 -0.1374  0.1181  0.0756
    5DOPC   C1A   53  12.587   2.857  18.271  0.2658 -0.1703  0.0586
    5DOPC   D2A   54  12.943   3.103  18.198  0.0817 -0.2278 -0.3295
    5DOPC   C3A   55  13.434   2.991  18.272 -0.1059  0.1568  0.1269
    5DOPC   C4A   56  13.803   2.884  18.478  0.0647 -0.1669 -0.0722
    5DOPC   C1B   57  12.589   2.651  17.796  0.2768 -0.1954  0.0980
    5DOPC   D2B   58  13.106   2.617  17.952  0.0788  0.0216 -0.1793
    5DOPC   C3B   59  13.480   2.379  17.771  0.0694  0.1498 -0.1045
    5DOPC   C4B   60  13.964   2.281  17.637 -0.3318 -0.0951  0.2901
    6DOPC   NC3   61   2.278   2.558  17.370  0.0380  0.0751  0.1789
    6DOPC   PO4   62   2.254   2.191  17.259 -0.1257 -0.2211 -0.0196
    6DOPC   GL1   63   1.900   2.085  17.072 -0.0791 -0.1575  0.2259
    6DOPC   GL2   64   1.854   2.348  16.975  0.0774 -0.0058  0.4322
    6DOPC   C1A   65   1.494   1.970  17.052  0.0356 -0.0533  0.1252
    6DOPC   D2A   66   0.995   2.079  17.045 -0.1934  0.2412  0.0252
    6DOPC   C3A   67   0.693   2.034  16.663 -0.1609  0.1043 -0.1429
    6DOPC   C4A   68   0.434   2.052  16.238  0.0010  0.4946 -0.1270
    6DOPC   C1B   69   1.445   2.402  16.807 -0.0448 -0.2075  0.2398
    6DOPC   D2B   70   1.061   2.311  16.542 -0.2515 -0.0622 -0.2509
    6DOPC   C3B   71   1.345   2.231  16.235 -0.0621  0.0685 -0.3401
    6DOPC   C4B   72   1.779   1.967  16.232  0.2997  0.2895 -0.1166
    7DOPC   NC3   73  13.678   3.528  20.268 -0.0520  0.3661  0.0592
    7DOPC   PO4   74  14.000   3.322  20.382 -0.2284  0.0802  0.0903
    7DOPC   GL1   75  14.453   3.304  20.213  0.1789 -0.1710 -0.1143
    7DOPC   GL2   76  14.409   3.022  20.167  0.2560 -0.1437 -0.0717
    7DOPC   C1A   77  14.851   3.283  19.980 -0.3006  0.3855 -0.1107
    7DOPC   D2A   78  15.299   3.092  20.037 -0.0775 -0.0700  0.0462
    7DOPC   C3A   79  15.715   2.956  19.945  0.0103 -0.1713 -0.0306
    7DOPC   C4A   80  16.085   2.584  20.046 -0.1172 -0.0151  0.2408
    7DOPC   C1B   81  14.578   2.850  19.810  0.4877 -0.2270  0.3106
    7DOPC   D2B   82  14.889   2.902  19.488  0.1637  0.0906  0.2562
    7DOPC   C3B   83  14.835   2.609  19.121  0.0266  0.0728 -0.0079
    7DOPC   C4B   84  14.699   2.446  18.700 -0.1296  0.1476  0.1893
    8DOPC   NC3   85  19.583   5.057  22.983  0.1277  0.0689  0.0860
    8DOPC   PO4   86  19.890   5.077  22.690  0.0751 -0.2786 -0.2486
    8DOPC   GL1   87  19.861   4.828  22.390  0.0097 -0.0557  0.1793
    8DOPC   GL2   88  19.904   5.041  22.255 -0.2164 -0.0056 -0.1957
    8DOPC   C1A   89  19.569   4.753  22.137 -0.4249  0.3550  0.0047
    8DOPC   D2A   90  19.322   4.398  21.993 -0.1286 -0.2238  0.1128
    8DOPC   C3A   91  19.097   4.668  21.704 -0.2453  0.1347  0.2325
    8DOPC   C4A   92  19.098   4.728  21.246  0.1632 -0.1752 -0.1281
    8DOPC   C1B   93  20.064   4.951  21.796  0.2906  0.0506  0.0180
    8DOPC   D2B   94  19.961   5.140  21.351  0.1523  0.0570 -0.3146
    8DOPC   C3B   95  19.719   5.180  20.931 -0.2563 -0.2180 -0.1039
    8DOPC   C4B   96  19.386   5.218  20.537  0.2820 -0.1110  0.2978
    9DOPC   NC3   97   7.048   1.712  13.906  0.0369  0.2023  0.0246
    9DOPC   PO4   98   7.434   1.788  13.932 -0.3479 -0.2292  0.0956
    9DOPC   GL1   99   7.685   1.814  13.623 -0.0231 -0.1395 -0.2148
    9DOPC   GL2  100   7.640   2.121  13.543  0.1029 -0.1463  0.2900
    9DOPC   C1A  101   7.863   1.749  13.275 -0.3757 -0.1762 -0.3120
    9DOPC   D2A  102   8.067   1.589  12.821  0.2471 -0.3486  0.0214
    9DOPC   C3A  103   7.982   1.752  12.341 -0.0359  0.0794  0.2279
    9DOPC   C4A  104   8.105   1.837  11.843 -0.1631  0.2593  0.1087
    9DOPC   C1B  105   7.381   1.935  13.187 -0.0350  0.0288  0.2562
    9DOPC   D2B  106   7.269   1.619  12.870  0.0732  0.3595 -0.1589
    9DOPC   C3B  107   7.217   1.156  12.881  0.0596  0.0641  0.2207
    9DOPC   C4B  108   7.515   0.843  13.164 -0.1585 -0.1606 -0.2652
   10DOPC   NC3  109   8.199   3.903  14.501  0.3205  0.1071 -0.0206
   10DOPC   PO4  110   7.865   4.119  14.318 -0.0723  0.3826 -0.0363
   10DOPC   GL1  111   8.002   3.926  13.973 -0.3473  0.2110 -0.0140
   10DOPC   GL2  112   8.259   3.859  14.076 -0.0014 -0.2929  0.3210
   10DOPC   C1A  113   7.984   3.850  13.543  0.3112  0.3432 -0.0577
   10DOPC   D2A  114   7.978   3.771  13.044  0.1048  0.1333 -0.0947
   10DOPC   C3A  115   8.298   4.056  12.843 -0.0962 -0.1226  0.1232
   10DOPC   C4A  116   8.624   3.877  12.477  0.0597 -0.1375 -0.0907
   10DOPC   C1B  117   8.557   3.909  13.797 -0.1061 -0.2810 -0.0505
   10DOPC   D2B  118   8.831   3.938  13.362  0.1879 -0.0129 -0.0217
   10DOPC   C3B  119   8.748   3.701  12.956 -0.0163  0.0891  0.0139
   10DOPC   C4B  120   8.748   3.381  12.558 -0.0106 -0.0608 -0.2392
   11DOPC   NC3  121  11.631   0.406  18.074  0.0674  0.0482  0.2836
   11DOPC   PO4  122  11.677   0.753  18.263  0.0722  0.1128  0.0792
   11DOPC   GL1  123  12.053   0.735  18.154  0.3067  0.0317 -0.1712
   11DOPC   GL2  124  12.056   0.532  17.945  0.1523  0.1316  0.0643
   11DOPC   C1A  125  12.435   0.507  18.223 -0.1635  0.1425  0.2646
   11DOPC   D2A  126  12.847   0.322  18.191  0.1151 -0.0102 -0.0369
   11DOPC   C3A  127  13.280   0.478  18.192 -0.3869  0.1500  0.4815
   11DOPC   C4A  128  13.672   0.697  17.931 -0.1947  0.0393 -0.1792
   11DOPC   C1B  129  12.237   0.724  17.589  0.0605  0.1398  0.1529
   11DOPC   D2B  130  12.572   1.081  17.458 -0.1229 -0.0464  0.1576
   11DOPC   C3B  131  13.032   1.058  17.522 -0.0838 -0.2513 -0.1049
   11DOPC   C4B  132  13.456   0.780  17.457  0.4410 -0.0900  0.1273
   12DOPC   NC3  133   6.206   5.914  14.398 -0.0285  0.0316  0.1370
   12DOPC   PO4  134   5.941   6.169  14.411 -0.0804  0.1125  0.4912
   12DOPC   GL1  135   5.814   6.209  14.035  0.1557 -0.2620  0.0311
   12DOPC   GL2  136   5.535   6.305  14.108 -0.1209  0.0303  0.2319
   12DOPC   C1A  137   5.927   6.049  13.683  0.0758  0.1285  0.2355
   12DOPC   D2A  138   6.042   5.765  13.241 -0.0985  0.0432 -0.2023
   12DOPC   C3A  139   6.053   5.385  12.994 -0.1701  0.1927 -0.0811
   12DOPC   C4A  140   6.213   5.184  12.642 -0.2409  0.0742 -0.0753
   12DOPC   C1B  141   5.276   6.126  13.792  0.0981  0.0746 -0.0431
   12DOPC   D2B  142   5.170   5.842  13.368  0.2500 -0.0421  0.2105
   12DOPC   C3B  143   5.102   6.159  12.998 -0.3225  0.0695  0.1204
   12DOPC   C4B  144   5.220   6.540  12.666 -0.2035  0.0750 -0.1765
   13DOPC   NC3  145   0.334   6.223  19.389  0.1822 -0.0885 -0.2678
   13DOPC   PO4  146   0.256   5.866  19.162 -0.0182 -0.2665 -0.0783
   13DOPC   GL1  147  -0.036   5.915  18.846  0.0000  0.2118  0.2036
   13DOPC   GL2  148  -0.155   5.685  19.068 -0.0561  0.1890 -0.2253
   13DOPC   C1A  149  -0.115   6.094  18.418 -0.3919 -0.2300  0.1797
   13DOPC   D2A  150  -0.399   6.110  17.997 -0.3399 -0.0040  0.1253
   13DOPC   C3A  151  -0.744   6.328  17.757  0.0945  0.1520  0.3182
   13DOPC   C4A  152  -1.131   6.620  17.712  0.0503 -0.3044  0.1228
   13DOPC   C1B  153  -0.472   5.746  18.831  0.0006  0.0657 -0.2050
   13DOPC   D2B  154  -0.765   5.890  18.388 -0.0075 -0.1087  0.1387
   13DOPC   C3B  155  -0.915   5.898  17.942  0.2870 -0.0703 -0.3023
   13DOPC   C4B  156  -1.198   6.076  17.608  0.0936 -0.0701 -0.3676
   14DOPC   NC3  157   7.041   0.833  13.355 -0.1105  0.1444  0.0129
   14DOPC   PO4  158   7.000   0.538  13.564  0.1461  0.0396 -0.0504
   14DOPC   GL1  159   7.059   0.346  13.256 -0.0065 -0.2344  0.0445
   14DOPC   GL2  160   6.910   0.128  13.181 -0.0604 -0.3957 -0.2368
   14DOPC   C1A  161   7.187   0.553  12.888 -0.1102  0.1355 -0.1044
   14DOPC   D2A  162   7.517   0.796  12.639  0.0685 -0.0103 -0.0143
   14DOPC   C3A  163   7.498   1.027  12.198 -0.1215 -0.0675  0.2616
   14DOPC   C4A  164   7.484   1.136  11.695  0.1464  0.1006 -0.1489
   14DOPC   C1B  165   6.750   0.316  12.811  0.1207 -0.0282  0.1046
   14DOPC   D2B  166   6.500   0.284  12.382  0.1407  0.0177 -0.0028
   14DOPC   C3B  167   6.721   0.123  11.998 -0.0287 -0.0083 -0.0643
   14DOPC   C4B  168   7.070  -0.078  11.730 -0.0277  0.1481  0.2997
   15DOPC   NC3  169   4.287   6.737  15.246  0.0962  0.2446  0.0348
   15DOPC   PO4  170   4.531   6.819  14.975 -0.1212  0.0302 -0.1120
   15DOPC   GL1  171   4.496   6.792  14.592 -0.3128  0.1427  0.1243
   15DOPC   GL2  172   4.508   7.060  14.582  0.0595 -0.3340 -0.0250
   15DOPC   C1A  173   4.131   6.811  14.271 -0.1816 -0.0466  0.2864
   15DOPC   D2A  174   3.734   6.889  14.014 -0.3147  0.0513  0.0222
   15DOPC   C3A  175   3.825   7.084  13.570 -0.2014  0.2455 -0.2362
   15DOPC   C4A  176   3.965   7.101  13.150  0.3342  0.0736 -0.0373
   15DOPC   C1B  177   4.125   7.248  14.489 -0.2692 -0.2869  0.0029
   15DOPC   D2B  178   3.843   7.609  14.255 -0.0543 -0.0557  0.0783
   15DOPC   C3B  179   3.925   7.689  13.770 -0.1608 -0.0671  0.1295
   15DOPC   C4B  180   4.015   7.634  13.202 -0.0826 -0.0015 -0.2116
   16DOPC   NC3  181   2.860   3.141  16.815 -0.3552  0.1471 -0.0276
   16DOPC   PO4  182   2.591   2.882  16.773  0.1468 -0.0239 -0.1097
   16DOPC   GL1  183   2.283   2.931  16.410  0.2314 -0.2855 -0.1814
   16DOPC   GL2  184   2.364   3.302  16.461 -0.0442  0.1542 -0.1748
   16DOPC   C1A  185   1.979   2.875  16.175  0.0308 -0.0863  0.0644
   16DOPC   D2A  186   1.603   2.824  15.879 -0.0530  0.1979  0.1118
   16DOPC   C3A  187   1.176   2.634  15.847  0.1186 -0.2856  0.0868
   16DOPC   C4A  188   0.784   2.609  15.527 -0.0786  0.2822 -0.0003
   16DOPC   C1B  189   2.086   3.644  16.388  0.0121  0.0140 -0.2021
   16DOPC   D2B  190   1.667   3.888  16.341  0.1160  0.4247  0.2367
   16DOPC   C3B  191   1.438   4.148  15.989  0.2134  0.1595  0.1040
   16DOPC   C4B  192   1.273   4.502  15.678 -0.3170 -0.0345  0.1011
   17DOPC   NC3  193  17.232   5.667  22.165 -0.2042  0.1291 -0.0418
   17DOPC   PO4  194  16.874   5.547  22.252 -0.1751 -0.2090 -0.0568
   17DOPC   GL1  195  16.713   5.486  21.866  0.2462  0.1100  0.2524
   17DOPC   GL2  196  16.925   5.657  21.770 -0.3939  0.1592 -0.1443
   17DOPC   C1A  197  16.668   5.204  21.561 -0.2874 -0.2072  0.0727
   17DOPC   D2A  198  16.720   5.056  21.074  0.1224 -0.1980 -0.0857
   17DOPC   C3A  199  17.015   5.174  20.774  0.1021  0.2675 -0.1212
   17DOPC   C4A  200  17.266   5.397  20.443 -0.2355  0.1376  0.2352
   17DOPC   C1B  201  17.078   5.514  21.399  0.2128  0.0433  0.0222
   17DOPC   D2B  202  17.345   5.497  20.985 -0.1566  0.1050  0.0618
   17DOPC   C3B  203  17.702   5.246  20.954 -0.0154  0.0729 -0.1946
   17DOPC   C4B  204  17.918   4.838  20.752 -0.3318  0.0928  0.1397
   18DOPC   NC3  205   2.904   0.418  16.549 -0.0843 -0.3138  0.1237
   18DOPC   PO4  206   2.756   0.650  16.260  0.1207 -0.0052 -0.1520
   18DOPC   GL1  207   2.517   0.491  16.023  0.1206 -0.3391  0.2307
   18DOPC   GL2  208   2.483   0.211  16.141  0.4731  0.1898  0.2644
   18DOPC   C1A  209   2.428   0.521  15.596  0.2068  0.3409 -0.0188
   18DOPC   D2A  210   2.162   0.628  15.156 -0.2940  0.3159 -0.0319
   18DOPC   C3A  211   1.822   0.826  14.978  0.0574 -0.0209  0.0408
   18DOPC   C4A  212   1.609   1.086  14.603  0.2674 -0.0306 -0.1175
   18DOPC   C1B  213   2.093   0.083  16.001 -0.0284  0.0338 -0.0875
   18DOPC   D2B  214   1.794  -0.135  15.687  0.0647 -0.2735  0.3196
   18DOPC   C3B  215   1.553  -0.561  15.557  0.0039  0.0544 -0.2749
   18DOPC   C4B  216   1.105  -0.640  15.255 -0.1094 -0.0599  0.0076
   19DOPC   NC3  217   4.314   7.412  15.862 -0.1802  0.1709  0.0103
   19DOPC   PO4  218   4.459   7.508  15.520  0.1777  0.1570 -0.1520
   19DOPC   GL1  219   4.439   7.760  15.226 -0.0986 -0.2612  0.2953
   19DOPC   GL2  220   4.651   7.946  15.117 -0.2837 -0.2740 -0.0003
   19DOPC   C1A  221   4.062   7.690  14.984 -0.0834 -0.0683 -0.0987
   19DOPC   D2A  222   3.697   7.575  14.725 -0.0341  0.0357  0.0836
   19DOPC   C3A  223   3.280   7.356  14.607 -0.3085  0.0274 -0.2603
   19DOPC   C4A  224   2.860   7.217  14.345  0.1927  0.3849 -0.1890
   19DOPC   C1B  225   4.612   8.080  14.752  0.3946 -0.0219 -0.2426
   19DOPC   D2B  226   4.505   8.378  14.372 -0.0417  0.1011 -0.0723
   19DOPC   C3B  227   4.586   8.481  13.908  0.1978  0.2904 -0.1313
   19DOPC   C4B  228   4.649   8.389  13.443 -0.3142 -0.0813  0.2995
   20DOPC   NC3  229   8.307   6.045  14.207  0.0114  0.2324  0.0150
   20DOPC   PO4  230   8.505   5.696  14.282  0.2064 -0.0915  0.5821
   20DOPC   GL1  231   8.857   5.489  14.064  0.2886 -0.2291  0.0038
   20DOPC   GL2  232   8.966   5.735  14.149  0.3638  0.0433  0.4785
   20DOPC   C1A  233   8.770   5.481  13.617  0.1328  0.2725 -0.2017
   20DOPC   D2A  234   8.805   5.405  13.157 -0.1313 -0.0147 -0.0488
   20DOPC   C3A  235   8.464   5.531  12.892 -0.2780 -0.1604 -0.1293
   20DOPC   C4A  236   8.295   5.874  12.498 -0.0575  0.2017 -0.1805
   20DOPC   C1B  237   9.252   5.738  13.755  0.0246 -0.1736 -0.2749
   20DOPC   D2B  238   9.179   5.647  13.301 -0.0348  0.4080 -0.1087
   20DOPC   C3B  239   9.360   5.509  12.861 -0.2262 -0.0875  0.1484
   20DOPC   C4B  240   9.451   5.423  12.407 -0.3253  0.1265  0.0544
   21DOPC   NC3  241   4.974   5.863  14.529  0.2031 -0.2426  0.1324
   21DOPC   PO4  242   4.771   6.142  14.711  0.1503  0.2193  0.2013
   21DOPC   GL1  243   4.538   6.372  14.492  0.1632  0.0841  0.0703
   21DOPC   GL2  244   4.694   6.489  14.308 -0.2711  0.1556 -0.0193
   21DOPC   C1A  245   4.183   6.366  14.217 -0.0229  0.1150 -0.2792
   21DOPC   D2A  246   3.912   6.303  13.826 -0.2248  0.1778 -0.2545
   21DOPC   C3A  247   3.737   6.575  13.530  0.3437 -0.2239 -0.2160
   21DOPC   C4A  248   3.485   6.871  13.271  0.0401  0.2167  0.2885
   21DOPC   C1B  249   4.773   6.158  14.000 -0.1151 -0.0316 -0.1106
   21DOPC   D2B  250   4.755   6.031  13.543 -0.0755  0.0551 -0.0666
   21DOPC   C3B  251   4.721   5.920  13.089  0.0247  0.0529  0.1286
   21DOPC   C4B  252   4.807   5.901  12.621  0.2890 -0.0301  0.0805
   22DOPC   NC3  253   1.888   1.170  18.137  0.6238 -0.1636  0.1082
   22DOPC   PO4  254   1.534   1.110  17.940 -0.0540  0.3951 -0.0254
   22DOPC   GL1  255   1.292   1.135  17.595 -0.3030 -0.2627  0.0111
   22DOPC   GL2  256   1.299   0.808  17.609  0.3892 -0.2552  0.1339
   22DOPC   C1A  257   1.033   1.312  17.315  0.4561  0.0815  0.0022
   22DOPC   D2A  258   0.834   1.647  16.959 -0.0264  0.0791 -0.2381
   22DOPC   C3A  259   0.369   1.738  16.859  0.1795 -0.0397  0.0842
   22DOPC   C4A  260  -0.091   1.794  16.856  0.1568  0.3408 -0.1461
   22DOPC   C1B  261   0.967   0.642  17.393 -0.1964  0.4236 -0.1100
   22DOPC   D2B  262   0.684   0.504  16.957  0.0351 -0.1082  0.2281
   22DOPC   C3B  263   0.612   0.782  16.571 -0.1476 -0.1543  0.0822
   22DOPC   C4B  264   0.722   1.078  16.196 -0.0206 -0.0023 -0.0803
   23DOPC   NC3  265  10.291   5.477  16.361 -0.0456  0.1757 -0.3443
   23DOPC   PO4  266  10.628   5.434  16.571 -0.5021 -0.1443  0.1594
   23DOPC   GL1  267  10.962   5.136  16.476  0.1553 -0.1408 -0.0857
   23DOPC   GL2  268  10.760   4.997  16.285 -0.0308 -0.1378 -0.2066
   23DOPC   C1A  269  11.147   5.398  16.213  0.1646 -0.0732  0.1729
   23DOPC   D2A  270  11.497   5.623  16.023 -0.2661  0.1630 -0.0198
   23DOPC   C3A  271  11.824   5.866  16.235 -0.3444  0.0477  0.0006
   23DOPC   C4A  272  12.201   6.176  16.350  0.1748 -0.1396  0.0886
   23DOPC   C1B  273  11.078   4.876  16.059 -0.0861 -0.1255  0.0850
   23DOPC   D2B  274  11.472   4.698  15.743  0.1973  0.0855  0.0736
   23DOPC   C3B  275  11.720   4.656  15.338  0.2199  0.0807 -0.2967
   23DOPC   C4B  276  12.038   4.548  14.953 -0.0852 -0.0101 -0.0259
   24DOPC   NC3  277   9.476   6.397  15.773  0.1364  0.1452 -0.0138
   24DOPC   PO4  278   9.832   6.534  15.684 -0.0300 -0.1775  0.1526
   24DOPC   GL1  279   9.987   6.288  15.398  0.0482  0.1309  0.0134
   24DOPC   GL2  280  10.337   6.360  15.564 -0.2176  0.3001  0.0161
   24DOPC   C1A  281   9.936   6.055  14.982  0.0574 -0.0912  0.1350
   24DOPC   D2A  282   9.859   6.012  14.536 -0.0818 -0.0887  0.0442
   24DOPC   C3A  283  10.189   6.174  14.226 -0.0483  0.2731 -0.0408
   24DOPC   C4A  284  10.463   6.560  14.090  0.0053 -0.1824 -0.2186
   24DOPC   C1B  285  10.668   6.632  15.645 -0.0877 -0.0124  0.2194
   24DOPC   D2B  286  11.120   6.919  15.577  0.1496  0.0268  0.0733
   24DOPC   C3B  287  11.584   6.731  15.523 -0.0241  0.1007 -0.2716
   24DOPC   C4B  288  11.906   6.663  15.153  0.0693 -0.2303  0.3349
   25DOPC   NC3  289   8.346   1.623  14.845 -0.1109 -0.0883 -0.0696
   25DOPC   PO4  290   8.510   1.800  14.481  0.4506 -0.0057 -0.0517
   25DOPC   GL1  291   8.724   1.722  14.158  0.0940  0.0891 -0.2904
   25DOPC   GL2  292   8.827   1.956  14.023  0.0387 -0.1117 -0.1743
   25DOPC   C1A  293   8.896   1.402  13.963  0.0250 -0.0393 -0.4175
   25DOPC   D2A  294   9.080   1.119  13.637 -0.0019 -0.2469  0.0947
   25DOPC   C3A  295   9.124   1.044  13.117  0.2838  0.0100 -0.0163
   25DOPC   C4A  296   9.035   0.844  12.675 -0.1213  0.2382  0.0294
   25DOPC   C1B  297   9.243   2.048  14.143  0.2317  0.2669 -0.3646
   25DOPC   D2B  298   9.673   1.844  14.166 -0.2962  0.1976 -0.1343
   25DOPC   C3B  299  10.082   2.059  14.164 -0.1321  0.0226 -0.1998
   25DOPC   C4B  300  10.542   2.093  14.310  0.0564 -0.2458 -0.1143
   26DOPC   NC3  301  19.832   5.786  22.748  0.1103 -0.0365 -0.1646
   26DOPC   PO4  302  19.501   5.621  22.587 -0.5567 -0.1729  0.0948
   26DOPC   GL1  303  19.517   5.836  22.153 -0.1394  0.0572  0.1296
   26DOPC   GL2  304  19.368   5.527  22.092  0.3758  0.0744 -0.1634
   26DOPC   C1A  305  19.858   5.953  21.961 -0.0324  0.0184 -0.0266
   26DOPC   D2A  306  20.221   6.064  21.563 -0.1089  0.1203 -0.2050
   26DOPC   C3A  307  20.521   5.753  21.308 -0.1898  0.1258 -0.2297
   26DOPC   C4A  308  20.795   5.708  20.928  0.1025 -0.0494 -0.2272
   26DOPC   C1B  309  19.660   5.415  21.829  0.0201  0.1103 -0.0276
   26DOPC   D2B  310  19.982   5.638  21.548  0.3586  0.0807 -0.3169
   26DOPC   C3B  311  20.043   5.516  21.090 -0.0938  0.0393 -0.0581
   26DOPC   C4B  312  20.294   5.609  20.741  0.2110  0.0124 -0.1544
   27DOPC   NC3  313  15.196   7.560  21.867 -0.2702 -0.0545  0.2725
   27DOPC   PO4  314  15.358   7.226  21.884 -0.2700  0.0615 -0.2164
   27DOPC   GL1  315  15.272   6.822  21.714 -0.0705  0.2501 -0.1022
   27DOPC   GL2  316  15.331   6.702  21.938 -0.0677 -0.1123  0.0818
   27DOPC   C1A  317  15.416   6.716  21.291  0.0672 -0.0917 -0.0621
   27DOPC   D2A  318  15.703   6.728  20.826 -0.2198 -0.1272 -0.1481
   27DOPC   C3A  319  16.131   6.841  20.909 -0.0892 -0.1800  0.0887
   27DOPC   C4A  320  16.494   6.711  21.186  0.1593  0.2264 -0.0460
   27DOPC   C1B  321  15.494   6.294  21.692 -0.0838 -0.0466 -0.0332
   27DOPC   D2B  322  15.461   5.864  21.363  0.0228 -0.0772  0.1111
   27DOPC   C3B  323  15.651   5.691  20.970  0.0060  0.1001  0.3357
   27DOPC   C4B  324  15.740   5.291  20.616  0.0745 -0.2625 -0.0076
   28DOPC   NC3  325   2.724   3.796  16.992 -0.0867 -0.1041 -0.1572
   28DOPC   PO4  326   2.467   3.495  16.918  0.0701 -0.2597  0.0520
   28DOPC   GL1  327   2.055   3.539  16.855 -0.1423  0.1969 -0.0585
   28DOPC   GL2  328   1.929   3.509  17.130 -0.2546  0.1278  0.0992
   28DOPC   C1A  329   1.770   3.307  16.665 -0.2677  0.0089 -0.0173
   28DOPC   D2A  330   1.541   3.257  16.290 -0.3736 -0.1117 -0.1459
   28DOPC   C3A  331   1.269   3.146  15.944 -0.2615 -0.1678 -0.0335
   28DOPC   C4A  332   0.820   3.051  15.800 -0.0060 -0.3921 -0.1187
   28DOPC   C1B  333   1.465   3.362  17.147  0.0451 -0.1992 -0.2986
   28DOPC   D2B  334   0.995   3.224  17.098 -0.0295  0.1231  0.0227
   28DOPC   C3B  335   0.711   3.016  16.721  0.0428 -0.3308 -0.0149
   28DOPC   C4B  336   0.404   2.902  16.369 -0.2751  0.0468 -0.1464
   29DOPC   NC3  337   1.574   7.628  17.812  0.0727  0.0960 -0.1695
   29DOPC   PO4  338   1.350   7.995  17.798  0.1705  0.0695  0.1063
   29DOPC   GL1  339   1.078   8.099  17.455 -0.3573  0.1280 -0.0519
   29DOPC   GL2  340   0.825   8.089  17.663  0.2241 -0.1707  0.0901
   29DOPC   C1A  341   1.075   8.095  17.028  0.1626 -0.2236  0.0585
   29DOPC   D2A  342   0.816   8.107  16.568  0.0122 -0.0514 -0.1084
   29DOPC   C3A  343   0.523   7.929  16.204  0.0156 -0.0059 -0.0277
   29DOPC   C4A  344   0.391   7.591  15.935  0.0924 -0.0128 -0.1346
   29DOPC   C1B  345   0.624   7.875  17.403  0.1906 -0.0131 -0.2520
   29DOPC   D2B  346   0.247   7.701  17.171 -0.0611  0.2029  0.2595
   29DOPC   C3B  347  -0.185   7.481  17.133  0.0571  0.1387  0.2858
   29DOPC   C4B  348  -0.657   7.412  17.154 -0.0798 -0.1631 -0.0237
   30DOPC   NC3  349  23.863   5.349  21.134  0.0629  0.0102  0.0666
   30DOPC   PO4  350  23.892   5.136  20.793 -0.2755 -0.1403 -0.1646
   30DOPC   GL1  351  23.835   5.132  20.376  0.2816  0.2298 -0.1030
   30DOPC   GL2  352  23.585   5.227  20.259 -0.3810 -0.1754  0.2717
   30DOPC   C1A  353  23.709   4.725  20.204 -0.5263  0.0363  0.0567
   30DOPC   D2A  354  23.722   4.467  19.782 -0.2771 -0.0522  0.0234
   30DOPC   C3A  355  23.415   4.506  19.448  0.1857  0.2037  0.1933
   30DOPC   C4A  356  23.115   4.648  19.052  0.2002 -0.0496  0.0774
   30DOPC   C1B  357  23.546   5.029  19.857 -0.2621 -0.0916  0.2937
   30DOPC   D2B  358  23.286   4.947  19.489  0.3757 -0.0478  0.1222
   30DOPC   C3B  359  23.073   5.207  19.142  0.1780  0.0812  0.1926
   30DOPC   C4B  360  22.820   5.539  18.841 -0.0511  0.3765 -0.2017
   31DOPC   NC3  361   3.043   6.369  16.853 -0.1639 -0.0381  0.0735
   31DOPC   PO4  362   2.887   6.505  16.474  0.2660  0.0337 -0.4728
   31DOPC   GL1  363   2.662   6.841  16.271  0.0308 -0.4367  0.3153
   31DOPC   GL2  364   2.435   6.718  16.399  0.0015 -0.1794  0.3099
   31DOPC   C1A  365   2.515   6.959  15.849 -0.1114 -0.0478 -0.2130
   31DOPC   D2A  366   2.412   6.918  15.371 -0.3433 -0.0171 -0.1550
   31DOPC   C3A  367   1.908   6.926  15.336  0.0474  0.0742  0.2905
   31DOPC   C4A  368   1.429   6.863  15.358 -0.1454  0.0217 -0.3570
   31DOPC   C1B  369   2.067   6.932  16.213 -0.5693  0.0525  0.1286
   31DOPC   D2B  370   1.651   7.087  15.970 -0.3596  0.1828 -0.2767
   31DOPC   C3B  371   1.385   7.358  16.028  0.0280 -0.0338 -0.1030
   31DOPC   C4B  372   1.014   7.650  16.222  0.4182  0.1386  0.1282
   32DOPC   NC3  373  20.222   4.600  22.175 -0.1865 -0.0043 -0.1786
   32DOPC   PO4  374  19.974   4.363  22.423  0.1393  0.5714 -0.0737
   32DOPC   GL1  375  19.791   4.353  22.043  0.2793  0.2773  0.1778
   32DOPC   GL2  376  19.676   4.122  22.104 -0.2414  0.4524  0.4313
   32DOPC   C1A  377  19.578   4.425  21.585  0.0529 -0.3739 -0.0541
   32DOPC   D2A  378  19.433   4.387  21.097  0.1621 -0.1453 -0.0357
   32DOPC   C3A  379  19.229   4.054  20.807  0.2533  0.0433 -0.2603
   32DOPC   C4A  380  19.210   3.785  20.357  0.3422 -0.2995 -0.1813
   32DOPC   C1B  381  19.454   4.018  21.749 -0.1132  0.2004  0.1444
   32DOPC   D2B  382  19.272   3.877  21.304 -0.1411 -0.2030  0.1834
   32DOPC   C3B  383  19.248   3.455  21.140 -0.1823  0.1166 -0.3312
   32DOPC   C4B  384  19.148   2.949  21.072  0.0941  0.1911  0.0945
   33DOPC   NC3  385  11.771   3.311  18.352 -0.4471 -0.0260 -0.2384
   33DOPC   PO4  386  12.090   3.481  18.457  0.0399 -0.2611  0.1630
   33DOPC   GL1  387  12.539   3.333  18.411  0.1548  0.0054  0.0369
   33DOPC   GL2  388  12.514   3.486  18.223 -0.1719  0.0642  0.1224
   33DOPC   C1A  389  12.804   3.129  18.718  0.2235 -0.1567 -0.0039
   33DOPC   D2A  390  13.184   2.801  18.860 -0.4538 -0.0078  0.0553
   33DOPC   C3A  391  13.558   2.627  18.758  0.1664  0.0180 -0.0185
   33DOPC   C4A  392  13.904   2.293  18.682 -0.3541 -0.0295  0.0921
   33DOPC   C1B  393  12.630   3.239  17.865 -0.0783  0.0667  0.0338
   33DOPC   D2B  394  13.028   3.142  17.563 -0.0339  0.2432 -0.2135
   33DOPC   C3B  395  13.318   3.419  17.557  0.0821 -0.1571  0.0027
   33DOPC   C4B  396  13.542   3.826  17.506  0.1017  0.1970  0.0387
   34DOPC   NC3  397  13.264   5.085  20.114  0.0864  0.0120  0.2523
   34DOPC   PO4  398  13.467   4.756  20.122 -0.0366 -0.0790  0.0473
   34DOPC   GL1  399  13.865   4.646  20.020 -0.0264 -0.1180  0.0195
   34DOPC   GL2  400  13.775   4.379  20.078 -0.3015  0.2249 -0.0802
   34DOPC   C1A  401  14.105   4.847  19.674 -0.1101 -0.2453  0.2862
   34DOPC   D2A  402  14.351   5.105  19.360 -0.0576 -0.0425  0.0750
   34DOPC   C3A  403  14.677   5.371  19.188  0.2480  0.1420 -0.2917
   34DOPC   C4A  404  14.918   5.630  18.809 -0.1898 -0.4744  0.1126
   34DOPC   C1B  405  13.958   3.994  19.897 -0.0649  0.1903  0.0621
   34DOPC   D2B  406  14.179   3.746  19.610  0.0844  0.0138 -0.1641
   34DOPC   C3B  407  14.298   3.657  19.204 -0.0232 -0.0300 -0.1190
   34DOPC   C4B  408  14.351   3.632  18.736  0.0587 -0.0060  0.2142
   35DOPC   NC3  409   2.800   1.580  16.287  0.4000 -0.1907 -0.0632
   35DOPC   PO4  410   2.824   1.195  16.269  0.1672 -0.2583  0.2216
   35DOPC   GL1  411   2.565   1.087  16.046 -0.0668 -0.1644  0.4920
   35DOPC   GL2  412   2.631   0.901  15.835 -0.0194 -0.1063  0.1430
   35DOPC   C1A  413   2.151   1.111  16.106 -0.3419 -0.1798  0.3276
   35DOPC   D2A  414   1.650   1.130  15.865  0.0306 -0.4741  0.2649
   35DOPC   C3A  415   1.544   1.460  15.546 -0.1643  0.0743 -0.0163
   35DOPC   C4A  416   1.189   1.700  15.264 -0.1147 -0.1421 -0.1207
   35DOPC   C1B  417   2.294   0.956  15.629 -0.1213 -0.1445  0.1826
   35DOPC   D2B  418   1.844   1.060  15.402  0.2672 -0.0396 -0.0956
   35DOPC   C3B  419   1.517   1.279  15.095  0.2554 -0.0909  0.0927
   35DOPC   C4B  420   1.341   1.603  14.801  0.1026  0.2707 -0.1355
   36DOPC   NC3  421  19.642   7.388  22.582  0.1385 -0.2666  0.0166
   36DOPC   PO4  422  19.517   7.180  22.277 -0.1368 -0.1279  0.1041
   36DOPC   GL1  423  19.348   7.167  21.905  0.0255  0.1361  0.0386
   36DOPC   GL2  424  19.622   7.038  21.872  0.1946 -0.1903 -0.1211
   36DOPC   C1A  425  19.049   7.239  21.524  0.2876  0.1507 -0.1841
   36DOPC   D2A  426  18.931   7.186  21.077  0.0559 -0.0604 -0.1676
   36DOPC   C3A  427  18.967   6.893  20.728 -0.1622  0.2169  0.0872
   36DOPC   C4A  428  18.730   6.590  20.456  0.0358 -0.2324 -0.0005
   36DOPC   C1B  429  19.644   6.735  21.554  0.2436  0.0013  0.1043
   36DOPC   D2B  430  19.609   6.448  21.178 -0.1883 -0.1981  0.0785
   36DOPC   C3B  431  19.904   6.413  20.796  0.0706  0.0306  0.2796
   36DOPC   C4B  432  20.152   6.434  20.395 -0.0702  0.0181 -0.0382
   37DOPC   NC3  433   5.934   4.151  14.931  0.0611 -0.3331 -0.1282
   37DOPC   PO4  434   6.194   3.987  14.681 -0.2781 -0.1788  0.2014
   37DOPC   GL1  435   6.127   3.808  14.361 -0.1775 -0.0241  0.1720
   37DOPC   GL2  436   5.868   3.783  14.201 -0.0365  0.2591 -0.1086
   37DOPC   C1A  437   6.352   3.867  13.972 -0.0417  0.2313  0.1646
   37DOPC   D2A  438   6.722   3.710  13.666 -0.4604  0.0394 -0.0239
   37DOPC   C3A  439   6.501   3.632  13.225 -0.1660 -0.1090  0.0859
   37DOPC   C4A  440   6.428   3.643  12.732 -0.2208  0.0724 -0.2612
   37DOPC   C1B  441   5.849   3.952  13.776 -0.0003  0.2327  0.1310
   37DOPC   D2B  442   6.240   4.034  13.460  0.1307 -0.0810  0.0349
   37DOPC   C3B  443   6.247   4.038  13.004  0.0362  0.3101 -0.0492
   37DOPC   C4B  444   6.317   4.100  12.532  0.1100  0.2081  0.3025
   38DOPC   NC3  445   8.459   2.893  14.468  0.0664 -0.1602 -0.2019
   38DOPC   PO4  446   8.030   3.008  14.460 -0.1869 -0.1689  0.3908
   38DOPC   GL1  447   7.960   3.042  14.069 -0.0701  0.3431  0.2909
   38DOPC   GL2  448   8.294   3.136  14.077  0.4153  0.0130  0.3014
   38DOPC   C1A  449   8.146   2.970  13.679 -0.0061  0.0203 -0.0790
   38DOPC   D2A  450   8.346   3.048  13.229  0.1237  0.0349 -0.1430
   38DOPC   C3A  451   8.339   3.372  12.866  0.0403  0.0706  0.0550
   38DOPC   C4A  452   8.227   3.615  12.459  0.1855 -0.1167  0.1068
   38DOPC   C1B  453   8.366   3.403  13.746 -0.0014  0.0542 -0.1533
   38DOPC   D2B  454   8.401   3.643  13.316  0.1788  0.2109 -0.0605
   38DOPC   C3B  455   8.363   4.122  13.291 -0.0692 -0.2564  0.0621
   38DOPC   C4B  456   8.327   4.509  12.965  0.2482  0.1618 -0.0020
   39DOPC   NC3  457   3.201   5.162  16.491  0.1911 -0.1813  0.0614
   39DOPC   PO4  458   3.380   4.832  16.346 -0.0556 -0.0299 -0.1242
   39DOPC   GL1  459   3.127   4.744  15.993 -0.1264  0.3800 -0.5151
   39DOPC   GL2  460   3.293   4.892  15.796  0.1433 -0.0375  0.3191
   39DOPC   C1A  461   2.818   4.653  15.756 -0.0357  0.0365 -0.1350
   39DOPC   D2A  462   2.489   4.484  16.009 -0.2787 -0.2246  0.0660
   39DOPC   C3A  463   2.181   4.736  16.119 -0.1884  0.0061 -0.1742
   39DOPC   C4A  464   1.829   4.794  16.325  0.2908  0.0286 -0.1492
   39DOPC   C1B  465   3.046   4.990  15.477  0.2689  0.0277 -0.1511
   39DOPC   D2B  466   2.754   4.893  15.042  0.1974 -0.0530  0.0895
   39DOPC   C3B  467   2.752   4.581  14.728 -0.0974  0.0219  0.1623
   39DOPC   C4B  468   2.615   4.309  14.364  0.0678  0.0643  0.0907
   40DOPC   NC3  469  11.469   3.619  17.956  0.0883 -0.1756  0.0622
   40DOPC   PO4  470  11.810   3.396  17.881  0.2809 -0.0218  0.1251
   40DOPC   GL1  471  11.995   3.129  17.619 -0.0108 -0.4556 -0.0031
   40DOPC   GL2  472  11.781   3.122  17.442  0.3487  0.1049  0.0348
   40DOPC   C1A  473  12.392   2.990  17.504  0.0642  0.1201  0.0757
   40DOPC   D2A  474  12.780   2.708  17.285  0.2641 -0.0764 -0.0070
   40DOPC   C3A  475  13.012   2.609  16.846  0.0686 -0.1063  0.3417
   40DOPC   C4A  476  13.266   2.706  16.413 -0.2051 -0.0972 -0.3679
   40DOPC   C1B  477  11.999   3.186  17.081  0.2192  0.0268 -0.0100
   40DOPC   D2B  478  12.274   3.350  16.737 -0.0214 -0.1944  0.2622
   40DOPC   C3B  479  12.428   3.182  16.310  0.3080 -0.5284 -0.0247
   40DOPC   C4B  480  12.814   2.939  16.070 -0.1479  0.1186  0.0487
   41DOPC   NC3  481  21.501   5.173  21.493  0.0949 -0.1654  0.0572
   41DOPC   PO4  482  21.869   5.075  21.660 -0.3143 -0.0139  0.0586
   41DOPC   GL1  483  21.972   5.155  21.209 -0.1382  0.1306  0.2264
   41DOPC   GL2  484  22.229   5.004  21.264 -0.0060  0.1827 -0.1883
   41DOPC   C1A  485  21.897   5.058  20.740 -0.2937  0.1610  0.0288
   41DOPC   D2A  486  21.835   4.692  20.336 -0.1670 -0.2434  0.3681
   41DOPC   C3A  487  21.595   4.455  20.086 -0.3333  0.0978 -0.0289
   41DOPC   C4A  488  21.257   4.303  19.744  0.0367  0.0729 -0.2954
   41DOPC   C1B  489  22.463   5.033  20.910 -0.1618 -0.1062 -0.1135
   41DOPC   D2B  490  22.739   4.887  20.488 -0.0418  0.0839  0.0654
   41DOPC   C3B  491  22.748   4.522  20.203  0.1527  0.0531 -0.1728
   41DOPC   C4B  492  22.511   4.380  19.833  0.0896  0.0422 -0.4330
   42DOPC   NC3  493   9.586   5.194  15.688  0.1869  0.1836 -0.1095
   42DOPC   PO4  494   9.703   5.484  15.496 -0.3468 -0.1189 -0.3679
   42DOPC   GL1  495   9.937   5.501  15.210  0.3129  0.1034 -0.1374
   42DOPC   GL2  496  10.069   5.699  15.269 -0.0595 -0.3169 -0.1303
   42DOPC   C1A  497  10.075   5.306  14.816  0.1031  0.0004  0.0699
   42DOPC   D2A  498  10.332   5.288  14.372  0.0151 -0.1585  0.0801
   42DOPC   C3A  499  10.329   5.257  13.921 -0.4232  0.2881  0.3385
   42DOPC   C4A  500  10.146   5.286  13.440 -0.0936 -0.3949  0.0054
   42DOPC   C1B  501  10.325   5.761  14.916 -0.0527 -0.0027  0.0088
   42DOPC   D2B  502  10.597   5.847  14.557 -0.0100  0.1003  0.2556
   42DOPC   C3B  503  10.954   6.083  14.618  0.1806  0.1695  0.4329
   42DOPC   C4B  504  11.104   6.584  14.553  0.2013 -0.2705  0.2152
   43DOPC   NC3  505  11.053   2.483  17.272 -0.1004  0.3434 -0.1673
   43DOPC   PO4  506  11.444   2.579  17.308 -0.0381 -0.2772  0.2124
   43DOPC   GL1  507  11.723   2.536  16.990 -0.1701 -0.1001 -0.3132
   43DOPC   GL2  508  11.863   2.758  17.174  0.2255 -0.0795  0.4283
   43DOPC   C1A  509  11.736   2.544  16.558  0.1232 -0.0355 -0.2714
   43DOPC   D2A  510  11.888   2.405  16.172 -0.0149 -0.3776 -0.3124
   43DOPC   C3A  511  12.135   2.295  15.804  0.4791  0.2054  0.1210
   43DOPC   C4A  512  12.389   2.215  15.416  0.1088 -0.2189  0.2194
   43DOPC   C1B  513  12.273   2.752  16.973 -0.1773 -0.1086 -0.2102
   43DOPC   D2B  514  12.593   2.746  16.633  0.0103 -0.1276 -0.0060
   43DOPC   C3B  515  12.813   3.180  16.729  0.3899  0.0256 -0.0614
   43DOPC   C4B  516  12.821   3.698  16.804  0.2201  0.2198  0.1875
   44DOPC   NC3  517   7.263   3.056  14.729 -0.2970 -0.0591 -0.1776
   44DOPC   PO4  518   7.119   2.992  14.392 -0.0719  0.2033  0.3740
   44DOPC   GL1  519   7.036   3.127  14.049 -0.2067  0.1202  0.0266
   44DOPC   GL2  520   7.168   3.374  13.993  0.0072  0.1071  0.0085
   44DOPC   C1A  521   6.775   3.214  13.702  0.1192  0.1120 -0.3860
   44DOPC   D2A  522   6.379   3.132  13.364  0.0341 -0.1470 -0.0441
   44DOPC   C3A  523   6.129   3.239  13.012  0.0837 -0.0398 -0.0910
   44DOPC   C4A  524   5.933   3.288  12.547 -0.2044 -0.1772  0.1421
   44DOPC   C1B  525   7.256   3.342  13.589 -0.0209  0.1182 -0.0157
   44DOPC   D2B  526   6.916   3.269  13.231 -0.2591  0.0318  0.0306
   44DOPC   C3B  527   6.954   3.437  12.806  0.0551 -0.1497  0.1575
   44DOPC   C4B  528   6.831   3.784  12.455  0.1164  0.1513  0.1337
   45DOPC   NC3  529   6.291   0.473  13.594 -0.0247 -0.1587 -0.0946
   45DOPC   PO4  530   6.134   0.729  13.797 -0.3213 -0.2607  0.1411
   45DOPC   GL1  531   5.826   0.936  13.547 -0.2515 -0.1747  0.1054
   45DOPC   GL2  532   6.105   0.956  13.350  0.1441 -0.1745 -0.1350
   45DOPC   C1A  533   5.563   0.586  13.442  0.0729  0.1432  0.0544
   45DOPC   D2A  534   5.254   0.329  13.771  0.0410 -0.0859  0.3735
   45DOPC   C3A  535   4.894   0.059  13.820 -0.0470  0.0892 -0.2044
   45DOPC   C4A  536   4.486  -0.259  13.777 -0.0153 -0.0097  0.0808
   45DOPC   C1B  537   6.265   0.645  13.063  0.2948  0.0043  0.2042
   45DOPC   D2B  538   5.910   0.293  12.789 -0.3209  0.2609 -0.0068
   45DOPC   C3B  539   5.712   0.347  12.394 -0.0183 -0.4294  0.1594
   45DOPC   C4B  540   5.472   0.422  11.979 -0.0658 -0.2698  0.0342
   46DOPC   NC3  541  10.863   3.116  16.797  0.1646  0.2168  0.2994
   46DOPC   PO4  542  10.759   3.372  16.532  0.2083  0.1240  0.2793
   46DOPC   GL1  543  10.926   3.277  16.216  0.2703  0.0795 -0.1475
   46DOPC   GL2  544  11.062   3.040  16.252  0.1081 -0.2963  0.2555
   46DOPC   C1A  545  11.205   3.362  15.893 -0.0822 -0.3961 -0.0121
   46DOPC   D2A  546  11.660   3.295  15.770  0.0498  0.2331 -0.0048
   46DOPC   C3A  547  12.079   3.379  15.509 -0.2099  0.2333  0.2198
   46DOPC   C4A  548  12.560   3.565  15.397 -0.0372 -0.1986  0.0341
   46DOPC   C1B  549  11.278   2.876  15.926  0.0516 -0.1626 -0.1762
   46DOPC   D2B  550  11.564   2.820  15.490  0.1152  0.0532 -0.0510
   46DOPC   C3B  551  11.676   3.107  15.126  0.0879  0.0406  0.0984
   46DOPC   C4B  552  12.048   3.265  14.855 -0.1701  0.0788  0.1336
   47DOPC   NC3  553   1.783   5.503  17.504 -0.1432 -0.0409 -0.1056
   47DOPC   PO4  554   2.139   5.320  17.439 -0.3456  0.0920 -0.0411
   47DOPC   GL1  555   2.029   5.112  17.062 -0.1549 -0.0472 -0.3426
   47DOPC   GL2  556   2.132   5.364  16.899 -0.5016  0.2100  0.0636
   47DOPC   C1A  557   1.714   4.801  16.927  0.0390  0.0904 -0.0009
   47DOPC   D2A  558   1.278   4.644  16.798  0.3105 -0.3385  0.1827
   47DOPC   C3A  559   1.031   4.481  16.367 -0.0954 -0.1517 -0.2485
   47DOPC   C4A  560   0.820   4.695  15.949  0.1081  0.2826 -0.1789
   47DOPC   C1B  561   1.711   5.618  16.968 -0.1434 -0.0870  0.2667
   47DOPC   D2B  562   1.325   5.938  16.894 -0.2247 -0.1688  0.0431
   47DOPC   C3B  563   1.122   6.155  16.507  0.0082  0.2981  0.1517
   47DOPC   C4B  564   1.191   6.433  16.137 -0.1096 -0.2719  0.3925
   48DOPC   NC3  565   7.577   2.321  13.966 -0.2546 -0.0430 -0.3532
   48DOPC   PO4  566   7.946   2.181  14.004  0.1412  0.0780  0.0108
   48DOPC   GL1  567   8.183   2.214  13.726 -0.0072 -0.3486  0.0265
   48DOPC   GL2  568   8.150   1.928  13.567 -0.0939  0.3151 -0.0678
   48DOPC   C1A  569   8.432   2.506  13.525 -0.1433 -0.2089  0.0096
   48DOPC   D2A  570   8.789   2.634  13.209  0.1401  0.2274 -0.0140
   48DOPC   C3A  571   9.252   2.717  13.161  0.0195 -0.0196  0.1696
   48DOPC   C4A  572   9.746   2.640  13.005 -0.0734 -0.2254 -0.2804
   48DOPC   C1B  573   8.361   1.801  13.146  0.0109  0.0738 -0.3273
   48DOPC   D2B  574   8.556   1.495  12.897 -0.0833 -0.1450 -0.2638
   48DOPC   C3B  575   8.880   1.469  12.469  0.3110 -0.0132 -0.1197
   48DOPC   C4B  576   9.160   1.724  12.204  0.3090  0.0006  0.1422
   49DOPC   NC3  577  12.709   4.226  19.202 -0.2434 -0.0846 -0.1354
   49DOPC   PO4  578  13.029   4.215  19.462 -0.3083  0.2274 -0.2907
   49DOPC   GL1  579  13.327   4.399  19.202 -0.1007 -0.0871  0.0480
   49DOPC   GL2  580  13.186   4.315  18.977 -0.2277 -0.0422  0.4148
   49DOPC   C1A  581  13.669   4.223  18.980  0.2027 -0.0188  0.0673
   49DOPC   D2A  582  13.927   3.898  18.674  0.2301 -0.2480  0.2568
   49DOPC   C3A  583  14.107   3.647  18.256  0.2464 -0.1118 -0.3277
   49DOPC   C4A  584  14.288   3.389  17.866 -0.2191 -0.2659 -0.0730
   49DOPC   C1B  585  13.391   4.427  18.637  0.0453 -0.0466  0.1933
   49DOPC   D2B  586  13.663   4.583  18.211  0.0141  0.2782  0.0027
   49DOPC   C3B  587  13.636   4.747  17.785  0.1709  0.0021  0.4813
   49DOPC   C4B  588  13.471   5.083  17.456  0.0162 -0.1366 -0.0391
   50DOPC   NC3  589   3.753   2.688  16.082  0.1846  0.2391 -0.4852
   50DOPC   PO4  590   3.429   2.844  15.902 -0.0025  0.2042 -0.0444
   50DOPC   GL1  591   3.398   2.831  15.544  0.0841  0.0504  0.1738
   50DOPC   GL2  592   3.419   3.157  15.510 -0.0518  0.0700 -0.2914
   50DOPC   C1A  593   3.214   2.733  15.191 -0.0916  0.3323 -0.0843
   50DOPC   D2A  594   3.167   2.778  14.655  0.0008  0.3775  0.0151
   50DOPC   C3A  595   2.767   2.645  14.406  0.2497  0.1403 -0.2701
   50DOPC   C4A  596   2.537   2.212  14.421  0.1186  0.0104  0.0269
   50DOPC   C1B  597   3.056   3.327  15.342  0.3578  0.0589  0.1188
   50DOPC   D2B  598   2.720   3.531  15.047  0.0411  0.1577  0.0341
   50DOPC   C3B  599   2.264   3.424  14.956 -0.0257 -0.0746  0.0757
   50DOPC   C4B  600   1.904   3.673  14.766  0.0900  0.1926 -0.0332
   51DOPC   NC3  601   6.898   6.316  14.581 -0.0805  0.0213 -0.4544
   51DOPC   PO4  602   6.550   6.224  14.428 -0.1862 -0.3067  0.0603
   51DOPC   GL1  603   6.632   6.354  13.982  0.2025 -0.0642  0.0120
   51DOPC   GL2  604   6.319   6.272  14.056 -0.1030  0.0769 -0.5654
   51DOPC   C1A  605   6.421   6.210  13.611 -0.3597 -0.1562 -0.1160
   51DOPC   D2A  606   6.031   6.281  13.249  0.0820 -0.0104 -0.3910
   51DOPC   C3A  607   6.105   6.522  12.869 -0.2303  0.0729  0.2815
   51DOPC   C4A  608   6.384   6.787  12.543 -0.0427  0.1387 -0.0975
   51DOPC   C1B  609   6.047   6.546  13.765  0.3643 -0.0600 -0.0288
   51DOPC   D2B  610   5.841   6.715  13.296 -0.0586 -0.0659  0.1884
   51DOPC   C3B  611   5.388   6.751  13.144 -0.1065  0.2664  0.0029
   51DOPC   C4B  612   4.926   6.735  13.015  0.1588 -0.0954  0.1666
   52DOPC   NC3  613  17.693   7.641  22.134 -0.1853  0.0948 -0.1138
   52DOPC   PO4  614  17.929   7.469  22.401  0.0824  0.3001 -0.2214
   52DOPC   GL1  615  18.160   7.404  22.078  0.3017 -0.3917  0.2644
   52DOPC   GL2  616  18.439   7.452  22.152  0.1419 -0.1505  0.1516
   52DOPC   C1A  617  18.194   7.530  21.647 -0.2751 -0.0764  0.2583
   52DOPC   D2A  618  18.357   7.815  21.283  0.1395  0.0939 -0.0414
   52DOPC   C3A  619  18.493   7.417  21.215 -0.0326  0.0283  0.1714
   52DOPC   C4A  620  18.591   6.999  21.433  0.0165  0.0974  0.3209
   52DOPC   C1B  621  18.673   7.484  21.773  0.0322  0.1972  0.0062
   52DOPC   D2B  622  18.892   7.678  21.335  0.1488  0.0027  0.0805
   52DOPC   C3B  623  19.294   7.863  21.289  0.1822  0.1422 -0.0320
   52DOPC   C4B  624  19.658   8.172  21.301 -0.1706  0.1641  0.0942
   53DOPC   NC3  625   8.997   1.978  15.307 -0.3162  0.1057 -0.2393
   53DOPC   PO4  626   9.129   2.115  14.963  0.0424 -0.0910 -0.1211
   53DOPC   GL1  627   9.252   1.926  14.586  0.0716  0.0148  0.1382
   53DOPC   GL2  628   9.524   1.887  14.652  0.1456 -0.2043 -0.2200
   53DOPC   C1A  629   9.226   1.597  14.303  0.0781 -0.0269  0.0248
   53DOPC   D2A  630   9.352   1.470  13.852 -0.0854 -0.0025 -0.3694
   53DOPC   C3A  631   9.378   1.475  13.378  0.0069  0.1054 -0.0883
   53DOPC   C4A  632   9.431   1.496  12.881  0.0385  0.2246  0.1685
   53DOPC   C1B  633   9.725   2.247  14.477 -0.1493 -0.2482 -0.2918
   53DOPC   D2B  634  10.205   2.534  14.368 -0.2524  0.2497 -0.3626
   53DOPC   C3B  635  10.681   2.560  14.410  0.0555 -0.3330  0.0598
   53DOPC   C4B  636  11.098   2.554  14.172  0.1220  0.1785 -0.1904
   54DOPC   NC3  637  20.293   3.049  22.523 -0.1222 -0.0070 -0.0148
   54DOPC   PO4  638  20.342   3.061  22.123  0.0867  0.0108 -0.3008
   54DOPC   GL1  639  20.112   3.330  21.891 -0.1879  0.6409 -0.0263
   54DOPC   GL2  640  20.238   3.622  21.845 -0.1418  0.0151  0.2059
   54DOPC   C1A  641  19.931   3.221  21.551 -0.1295 -0.2508  0.1369
   54DOPC   D2A  642  19.897   2.855  21.229 -0.4181 -0.2554 -0.0260
   54DOPC   C3A  643  19.792   2.674  20.849  0.0635  0.0617 -0.1505
   54DOPC   C4A  644  19.734   2.607  20.373  0.1216 -0.1642  0.2620
   54DOPC   C1B  645  20.186   3.703  21.401 -0.2619 -0.2150 -0.1181
   54DOPC   D2B  646  20.269   3.896  20.900 -0.0869 -0.0616  0.0483
   54DOPC   C3B  647  20.072   3.705  20.542  0.1283 -0.1157  0.3146
   54DOPC   C4B  648  20.116   3.533  20.082 -0.0825 -0.2028 -0.0101
   55DOPC   NC3  649  24.158   4.309  20.751 -0.3035 -0.3865 -0.4447
   55DOPC   PO4  650  23.760   4.201  20.795 -0.1608  0.1356 -0.0481
   55DOPC   GL1  651  23.401   4.185  20.578 -0.2959  0.2545  0.0436
   55DOPC   GL2  652  23.341   4.483  20.732 -0.0152  0.1350  0.2405
   55DOPC   C1A  653  23.372   4.389  20.265 -0.1322 -0.0489 -0.0197
   55DOPC   D2A  654  23.230   4.606  19.892 -0.3515  0.0047  0.3808
   55DOPC   C3A  655  22.889   4.693  19.537 -0.0836  0.2598 -0.3754
   55DOPC   C4A  656  22.582   4.819  19.140  0.0096  0.2655  0.1347
   55DOPC   C1B  657  23.319   4.848  20.559  0.0083  0.0286 -0.1801
   55DOPC   D2B  658  23.179   5.132  20.201 -0.2695 -0.1632  0.0452
   55DOPC   C3B  659  22.837   4.976  19.926  0.1335  0.1089  0.2038
   55DOPC   C4B  660  22.448   4.924  19.617 -0.1792  0.1808  0.0687
   56DOPC   NC3  661   8.456   0.535  14.316 -0.0231  0.0648 -0.1097
   56DOPC   PO4  662   8.637   0.858  14.425 -0.1044  0.1593  0.1734
   56DOPC   GL1  663   8.885   0.940  14.131 -0.1766 -0.0183 -0.1497
   56DOPC   GL2  664   8.631   0.829  13.937 -0.3471  0.0438 -0.1369
   56DOPC   C1A  665   9.278   0.953  14.060  0.1483 -0.1194 -0.2175
   56DOPC   D2A  666   9.622   1.056  13.735 -0.1984  0.1680  0.0439
   56DOPC   C3A  667   9.630   1.025  13.256 -0.3170  0.1403 -0.1243
   56DOPC   C4A  668   9.586   0.958  12.757  0.1685  0.2047 -0.2072
   56DOPC   C1B  669   8.621   0.843  13.492  0.0497 -0.0359 -0.0142
   56DOPC   D2B  670   8.670   0.907  12.999  0.2634 -0.1710  0.1818
   56DOPC   C3B  671   8.523   0.884  12.545 -0.1143 -0.2966 -0.0869
   56DOPC   C4B  672   8.260   1.002  12.123  0.0715 -0.1145 -0.0945
   57DOPC   NC3  673   1.068   2.935  18.477 -0.3470  0.1962 -0.3601
   57DOPC   PO4  674   1.031   3.273  18.661 -0.1163  0.0955 -0.1095
   57DOPC   GL1  675   0.744   3.457  18.420 -0.0630 -0.1367  0.1924
   57DOPC   GL2  676   0.800   3.202  18.249 -0.1550 -0.0483  0.0188
   57DOPC   C1A  677   0.311   3.537  18.331  0.0230 -0.0237  0.0944
   57DOPC   D2A  678   0.130   3.953  18.094  0.2065 -0.0080  0.2790
   57DOPC   C3A  679  -0.378   4.053  18.031  0.2770  0.1067  0.0915
   57DOPC   C4A  680  -0.589   3.793  17.675 -0.0414  0.0836  0.0443
   57DOPC   C1B  681   0.596   3.159  17.907 -0.0085  0.0454  0.0121
   57DOPC   D2B  682   0.399   3.094  17.459  0.0110  0.0187  0.0482
   57DOPC   C3B  683   0.322   3.199  17.061  0.1413  0.0164  0.0553
   57DOPC   C4B  684   0.157   3.234  16.588 -0.1997  0.0999  0.1934
   58DOPC   NC3  685   7.028   0.052  13.636 -0.0298  0.0066 -0.2669
   58DOPC   PO4  686   6.641   0.131  13.677 -0.0072 -0.1959  0.1753
   58DOPC   GL1  687   6.507   0.227  13.297 -0.1339  0.1470  0.0221
   58DOPC   GL2  688   6.621   0.501  13.262  0.2183 -0.3783  0.0188
   58DOPC   C1A  689   6.316   0.109  12.964 -0.2733  0.0180  0.1323
   58DOPC   D2A  690   6.231  -0.161  12.567  0.1415  0.2198  0.0556
   58DOPC   C3A  691   6.296  -0.201  12.157  0.0157  0.0732  0.0086
   58DOPC   C4A  692   6.309  -0.007  11.712 -0.1276 -0.0102  0.0941
   58DOPC   C1B  693   6.745   0.803  12.921 -0.2210  0.4085 -0.1269
   58DOPC   D2B  694   6.727   1.248  12.683 -0.2634 -0.3116 -0.1776
   58DOPC   C3B  695   7.086   1.294  12.391 -0.3303  0.0575 -0.4423
   58DOPC   C4B  696   7.259   1.469  11.962 -0.1945 -0.0765  0.1073
   59DOPC   NC3  697  11.589   3.536  17.373  0.1051  0.0441  0.1589
   59DOPC   PO4  698  11.232   3.472  17.173  0.2453 -0.0247  0.4884
   59DOPC   GL1  699  11.441   3.459  16.853  0.0015  0.1684  0.1024
   59DOPC   GL2  700  11.256   3.413  16.635 -0.4560 -0.0957 -0.3273
   59DOPC   C1A  701  11.726   3.258  16.690 -0.0274 -0.1185  0.4686
   59DOPC   D2A  702  12.054   2.931  16.559 -0.1881 -0.1376 -0.2476
   59DOPC   C3A  703  12.306   2.702  16.179  0.0892 -0.1421  0.0975
   59DOPC   C4A  704  12.522   2.615  15.683  0.3566  0.3732  0.1633
   59DOPC   C1B  705  11.443   3.428  16.286  0.1259  0.2352  0.2070
   59DOPC   D2B  706  11.766   3.771  16.029  0.2383 -0.1867 -0.2026
   59DOPC   C3B  707  11.557   3.716  15.615 -0.2052  0.1797  0.2048
   59DOPC   C4B  708  11.278   3.442  15.309  0.2131  0.1651 -0.2489
   60DOPC   NC3  709   0.488   3.434  18.974  0.2392 -0.1181  0.0945
   60DOPC   PO4  710   0.472   3.079  19.193  0.2852  0.2325 -0.1145
   60DOPC   GL1  711   0.191   2.778  19.031 -0.2028 -0.0220  0.3430
   60DOPC   GL2  712   0.015   2.963  19.144 -0.1600 -0.1730 -0.1137
   60DOPC   C1A  713   0.166   2.734  18.567 -0.0583  0.0124 -0.0839
   60DOPC   D2A  714  -0.209   2.816  18.152  0.0392 -0.1537  0.1569
   60DOPC   C3A  715  -0.556   2.853  17.842 -0.0020  0.2156 -0.0459
   60DOPC   C4A  716  -0.850   2.965  17.474 -0.0080 -0.0293  0.2205
   60DOPC   C1B  717  -0.341   2.908  18.852 -0.1211  0.1073  0.1855
   60DOPC   D2B  718  -0.637   2.833  18.493 -0.3820 -0.0358  0.4805
   60DOPC   C3B  719  -0.946   2.637  18.169  0.1597  0.0167 -0.3161
   60DOPC   C4B  720  -1.187   2.253  18.081  0.3250  0.0723  0.1458
   61DOPC   NC3  721  11.854   5.755  18.321  0.0142 -0.2557 -0.0833
   61DOPC   PO4  722  11.764   5.749  17.943 -0.0784  0.2291 -0.0832
   61DOPC   GL1  723  12.007   5.525  17.733 -0.1221  0.0403  0.1301
   61DOPC   GL2  724  11.870   5.610  17.512 -0.1521  0.0705 -0.0361
   61DOPC   C1A  725  12.340   5.543  17.504  0.0296  0.3221 -0.1700
   61DOPC   D2A  726  12.790   5.412  17.275  0.0668 -0.0575 -0.1877
   61DOPC   C3A  727  13.011   5.092  17.609 -0.0174 -0.0936 -0.2566
   61DOPC   C4A  728  13.168   4.731  17.921 -0.1311  0.0531 -0.0229
   61DOPC   C1B  729  11.985   5.625  17.039  0.0162  0.4076 -0.0269
   61DOPC   D2B  730  12.148   5.669  16.579 -0.1359 -0.2623 -0.1414
   61DOPC   C3B  731  12.563   5.827  16.486 -0.0257 -0.1743  0.1627
   61DOPC   C4B  732  13.026   5.920  16.380  0.0282  0.1174  0.1707
   62DOPC   NC3  733  24.694   1.458  20.198 -0.0285  0.1613  0.0077
   62DOPC   PO4  734  24.430   1.754  20.243 -0.2128 -0.0454  0.1568
   62DOPC   GL1  735  24.091   1.797  19.946 -0.0904 -0.2510  0.2073
   62DOPC   GL2  736  24.255   1.953  19.904  0.2251  0.1396 -0.0338
   62DOPC   C1A  737  23.910   1.799  19.579  0.1205 -0.3010  0.5235
   62DOPC   D2A  738  23.632   2.007  19.177 -0.1595 -0.0437  0.2277
   62DOPC   C3A  739  23.597   2.159  18.735 -0.0090 -0.0678 -0.1379
   62DOPC   C4A  740  23.434   2.209  18.176 -0.0570 -0.0193  0.1867
   62DOPC   C1B  741  24.055   2.308  19.734  0.0150  0.1816  0.1374
   62DOPC   D2B  742  23.792   2.661  19.564 -0.0677  0.1751  0.0247
   62DOPC   C3B  743  23.457   2.459  19.288  0.1632  0.1482  0.1386
   62DOPC   C4B  744  23.152   2.133  19.084  0.1567 -0.0148  0.2189
   63DOPC   NC3  745  24.652   4.127  19.882 -0.1572 -0.0212  0.0702
   63DOPC   PO4  746  24.741   3.775  19.982 -0.0608 -0.0997 -0.2982
   63DOPC   GL1  747  24.526   3.693  19.673 -0.1761 -0.0670 -0.0501
   63DOPC   GL2  748  24.384   3.480  19.805  0.4027  0.1648  0.2726
   63DOPC   C1A  749  24.371   3.986  19.357 -0.0279  0.1622  0.0991
   63DOPC   D2A  750  24.259   4.315  19.050  0.1576  0.2133 -0.0131
   63DOPC   C3A  751  24.160   4.464  18.583  0.3702 -0.0491  0.0649
   63DOPC   C4A  752  24.118   4.561  18.080  0.0606  0.0655 -0.2481
   63DOPC   C1B  753  24.336   3.075  19.637  0.2654 -0.1661  0.0549
   63DOPC   D2B  754  24.281   2.690  19.444 -0.2039 -0.0488 -0.0225
   63DOPC   C3B  755  24.345   2.925  19.057 -0.0461 -0.3067  0.0952
   63DOPC   C4B  756  24.443   3.257  18.712 -0.0323 -0.0513 -0.0529
   64DOPC   NC3  757  23.685   1.906  21.334  0.1321  0.0687 -0.1753
   64DOPC   PO4  758  23.428   1.733  21.064  0.3154 -0.1733  0.3079
   64DOPC   GL1  759  23.123   1.877  20.742  0.1419 -0.1718  0.1742
   64DOPC   GL2  760  23.347   2.045  20.609 -0.1252  0.2104 -0.2133
   64DOPC   C1A  761  22.736   1.887  20.701  0.3672  0.1176 -0.1501
   64DOPC   D2A  762  22.476   1.872  20.230 -0.3236 -0.0049  0.0986
   64DOPC   C3A  763  22.328   1.900  19.773  0.1556  0.2700 -0.0513
   64DOPC   C4A  764  22.276   1.660  19.326 -0.1332  0.2054  0.1655
   64DOPC   C1B  765  23.123   2.082  20.253 -0.2001 -0.2417  0.1957
   64DOPC   D2B  766  22.803   2.236  19.925 -0.0372 -0.1075 -0.2673
   64DOPC   C3B  767  22.762   2.169  19.409 -0.1783 -0.0737  0.5166
   64DOPC   C4B  768  22.640   2.230  18.951  0.1257 -0.0290  0.3668
   65DOPC   NC3  769   6.663   5.945  14.806 -0.1924 -0.1867  0.0514
   65DOPC   PO4  770   6.730   5.651  14.564  0.0203  0.0548  0.1256
   65DOPC   GL1  771   6.678   5.827  14.217 -0.1502 -0.3240 -0.1227
   65DOPC   GL2  772   6.467   5.890  14.051 -0.2890  0.1048 -0.0378
   65DOPC   C1A  773   6.917   5.684  13.874  0.2323 -0.3575 -0.3310
   65DOPC   D2A  774   7.115   5.650  13.420  0.2459  0.1832 -0.3368
   65DOPC   C3A  775   6.971   5.642  13.033  0.1248  0.0236 -0.1058
   65DOPC   C4A  776   6.851   5.878  12.636 -0.0034  0.1640 -0.2520
   65DOPC   C1B  777   6.258   5.737  13.756  0.1141  0.0705  0.0180
   65DOPC   D2B  778   5.884   5.484  13.583 -0.1847 -0.0748 -0.0523
   65DOPC   C3B  779   5.585   5.540  13.158  0.0766 -0.2302 -0.1670
   65DOPC   C4B  780   5.226   5.561  12.868  0.0744 -0.2776  0.0537
   66DOPC   NC3  781  10.371   4.762  16.134  0.1483 -0.1002 -0.0126
   66DOPC   PO4  782  10.426   5.127  16.054  0.0306 -0.1226 -0.1551
   66DOPC   GL1  783  10.737   5.121  15.803 -0.3618 -0.1594 -0.2743
   66DOPC   GL2  784  10.603   5.160  15.531  0.4442  0.0866 -0.1506
   66DOPC   C1A  785  11.202   5.262  15.710 -0.0693 -0.0462  0.0729
   66DOPC   D2A  786  11.586   5.531  15.389  0.0311  0.2056 -0.1578
   66DOPC   C3A  787  11.913   5.582  15.164 -0.1345  0.3204 -0.4067
   66DOPC   C4A  788  12.236   5.366  15.039  0.0033  0.0170 -0.1483
   66DOPC   C1B  789  10.603   4.798  15.180 -0.1304  0.0496 -0.0141
   66DOPC   D2B  790  10.741   4.378  14.988  0.0504 -0.0569  0.1221
   66DOPC   C3B  791  11.141   4.202  14.716 -0.0354  0.4661  0.0941
   66DOPC   C4B  792  11.456   4.177  14.343  0.1224  0.1613  0.1115
   67DOPC   NC3  793  11.283   0.916  17.715  0.2165 -0.0421  0.0144
   67DOPC   PO4  794  11.413   0.519  17.659 -0.0154 -0.2371  0.0340
   67DOPC   GL1  795  11.786   0.637  17.545 -0.1676  0.4245 -0.2415
   67DOPC   GL2  796  11.761   0.836  17.774  0.4373 -0.0175 -0.1442
   67DOPC   C1A  797  11.940   0.622  17.124 -0.0169 -0.0541 -0.0268
   67DOPC   D2A  798  12.382   0.562  17.020  0.0455  0.2619  0.2834
   67DOPC   C3A  799  12.798   0.737  16.933 -0.0049  0.1645  0.0404
   67DOPC   C4A  800  13.275   0.915  16.938  0.0718 -0.5550 -0.1923
   67DOPC   C1B  801  12.149   1.083  17.866  0.2371 -0.0313  0.0057
   67DOPC   D2B  802  12.480   1.466  17.753  0.2047 -0.0449 -0.0877
   67DOPC   C3B  803  12.832   1.570  17.443  0.3953  0.1952  0.0066
   67DOPC   C4B  804  13.244   1.588  17.202  0.0170  0.0327  0.0265
   68DOPC   NC3  805   5.606   1.685  14.207 -0.1992 -0.0836 -0.1990
   68DOPC   PO4  806   5.335   1.572  14.456 -0.1030 -0.0042  0.1823
   68DOPC   GL1  807   4.994   1.581  14.144  0.0602 -0.1344 -0.1254
   68DOPC   GL2  808   5.214   1.693  13.929 -0.2384 -0.0408 -0.0240
   68DOPC   C1A  809   4.744   1.489  13.787 -0.0588  0.0936 -0.2278
   68DOPC   D2A  810   4.763   1.475  13.277 -0.0165  0.1053  0.2049
   68DOPC   C3A  811   4.665   1.052  13.230 -0.1016  0.1694  0.0640
   68DOPC   C4A  812   4.459   0.652  12.979 -0.0486 -0.0966  0.0264
   68DOPC   C1B  813   5.005   1.877  13.529 -0.0121 -0.0365 -0.0561
   68DOPC   D2B  814   4.724   2.119  13.227 -0.0790  0.0573  0.0419
   68DOPC   C3B  815   4.463   1.806  13.120 -0.2051 -0.0194  0.2441
   68DOPC   C4B  816   4.273   1.334  13.079 -0.1658 -0.2623  0.1015
   69DOPC   NC3  817  14.286   0.980  21.040  0.1717  0.2642  0.0375
   69DOPC   PO4  818  14.117   1.138  20.718 -0.1328 -0.1037  0.1478
   69DOPC   GL1  819  14.223   1.278  20.364  0.0728  0.0675 -0.0187
   69DOPC   GL2  820  14.088   1.197  20.204 -0.3172  0.3614 -0.0160
   69DOPC   C1A  821  14.611   1.430  20.287  0.0602 -0.0176  0.1348
   69DOPC   D2A  822  14.949   1.737  20.512  0.2857 -0.0730  0.0776
   69DOPC   C3A  823  15.443   1.611  20.492  0.0259 -0.0719 -0.2773
   69DOPC   C4A  824  15.916   1.555  20.354 -0.1699 -0.0870 -0.0148
   69DOPC   C1B  825  14.208   0.880  20.017  0.0081  0.2600  0.1139
   69DOPC   D2B  826  14.459   0.504  20.081  0.0480 -0.0939 -0.1737
   69DOPC   C3B  827  14.721   0.108  19.990 -0.0828  0.0044 -0.0020
   69DOPC   C4B  828  15.052  -0.228  19.917  0.0807  0.1139  0.2264
   70DOPC   NC3  829  20.368   6.129  22.010 -0.1467  0.4804 -0.3730
   70DOPC   PO4  830  20.250   6.497  21.940  0.0103 -0.0591  0.1057
   70DOPC   GL1  831  20.066   6.590  21.572  0.1001  0.3374  0.1485
   70DOPC   GL2  832  19.858   6.352  21.616 -0.2914  0.1964  0.1389
   70DOPC   C1A  833  20.198   6.542  21.140 -0.0609 -0.0835 -0.2242
   70DOPC   D2A  834  20.476   6.449  20.770  0.0670 -0.0907  0.2263
   70DOPC   C3A  835  20.508   6.009  20.603 -0.0734  0.1816 -0.1891
   70DOPC   C4A  836  20.706   5.712  20.310  0.1631  0.2982  0.1904
   70DOPC   C1B  837  19.751   5.989  21.300  0.2235 -0.1674  0.2409
   70DOPC   D2B  838  19.661   5.719  20.885  0.0274  0.3201 -0.4268
   70DOPC   C3B  839  19.381   6.033  20.726 -0.1305 -0.3746 -0.2475
   70DOPC   C4B  840  18.926   6.136  20.504  0.1188  0.0274  0.1290
   71DOPC   NC3  841   7.453   0.935  14.221 -0.0838 -0.3415 -0.0913
   71DOPC   PO4  842   7.789   1.103  14.125 -0.3999 -0.1622 -0.1572
   71DOPC   GL1  843   7.897   1.144  13.729 -0.2289  0.1245 -0.2368
   71DOPC   GL2  844   7.758   1.356  13.562 -0.1064  0.0524 -0.1825
   71DOPC   C1A  845   8.082   0.875  13.423 -0.2880 -0.1974 -0.1694
   71DOPC   D2A  846   8.267   0.470  13.212 -0.2667  0.1341 -0.2054
   71DOPC   C3A  847   8.374   0.521  12.776 -0.0107  0.1970  0.0378
   71DOPC   C4A  848   8.447   0.357  12.351  0.2064  0.2567 -0.0184
   71DOPC   C1B  849   7.696   1.307  13.120 -0.2526 -0.0278 -0.2172
   71DOPC   D2B  850   7.667   1.280  12.565 -0.0947  0.1288 -0.1400
   71DOPC   C3B  851   7.468   1.641  12.322 -0.2000  0.1938 -0.3050
   71DOPC   C4B  852   7.371   1.984  11.930 -0.1385 -0.1559  0.2048
   72DOPC   NC3  853  10.824   0.153  16.639  0.1369 -0.0243  0.1448
   72DOPC   PO4  854  10.748   0.536  16.517  0.3296 -0.0621 -0.1556
   72DOPC   GL1  855  10.860   0.601  16.113  0.2046 -0.0780 -0.0618
   72DOPC   GL2  856  11.048   0.753  16.241  0.0786  0.2877  0.3665
   72DOPC   C1A  857  10.988   0.337  15.798 -0.2231  0.0042 -0.2916
   72DOPC   D2A  858  11.339   0.098  15.511  0.0391  0.3014  0.0703
   72DOPC   C3A  859  11.686  -0.100  15.295  0.0943 -0.0213 -0.2913
   72DOPC   C4A  860  11.902  -0.232  14.903 -0.1846 -0.1456 -0.0361
   72DOPC   C1B  861  11.437   0.640  16.066 -0.1999 -0.1780 -0.0497
   72DOPC   D2B  862  11.908   0.494  16.150  0.0560 -0.0255 -0.1267
   72DOPC   C3B  863  11.758   0.065  16.436  0.3619  0.0730  0.2630
   72DOPC   C4B  864  11.358  -0.215  16.485  0.0603  0.1720  0.0170
   73DOPC   NC3  865   1.220   2.167  18.926 -0.2443  0.1840  0.2352
   73DOPC   PO4  866   1.110   2.453  18.726 -0.0373 -0.0519  0.0591
   73DOPC   GL1  867   0.839   2.355  18.389 -0.1484 -0.2725 -0.0657
   73DOPC   GL2  868   0.914   2.567  18.270  0.0944  0.0245 -0.4220
   73DOPC   C1A  869   0.590   2.226  18.039 -0.0893  0.2449 -0.1531
   73DOPC   D2A  870   0.230   2.113  17.700  0.0840 -0.0383 -0.0523
   73DOPC   C3A  871  -0.121   2.442  17.603 -0.3058  0.2029  0.0054
   73DOPC   C4A  872  -0.518   2.604  17.453  0.2421  0.0302  0.1967
   73DOPC   C1B  873   0.602   2.726  18.228 -0.2500  0.0812  0.3319
   73DOPC   D2B  874   0.271   3.061  18.211  0.2641 -0.0161 -0.0308
   73DOPC   C3B  875  -0.039   3.014  17.769 -0.1242 -0.0063  0.2549
   73DOPC   C4B  876  -0.189   2.926  17.292  0.1701 -0.1557  0.1120
   74DOPC   NC3  877  14.660   6.284  20.915  0.1641  0.7089  0.0840
   74DOPC   PO4  878  14.571   6.651  21.022  0.1512  0.3075 -0.1683
   74DOPC   GL1  879  14.995   6.858  20.961 -0.1620 -0.0155  0.0087
   74DOPC   GL2  880  14.990   6.623  21.026  0.0900  0.3859 -0.0433
   74DOPC   C1A  881  15.309   7.047  20.835 -0.0050  0.0769 -0.0998
   74DOPC   D2A  882  15.460   7.172  20.391 -0.2027  0.1289  0.0567
   74DOPC   C3A  883  15.844   6.910  20.405 -0.2208  0.0803 -0.0676
   74DOPC   C4A  884  16.317   6.660  20.415 -0.0223 -0.1056  0.2122
   74DOPC   C1B  885  15.059   6.341  20.633  0.1388  0.1063  0.0966
   74DOPC   D2B  886  15.047   6.388  20.109  0.0680  0.3501 -0.3580
   74DOPC   C3B  887  15.152   6.519  19.702 -0.0999  0.0272 -0.4918
   74DOPC   C4B  888  15.353   6.866  19.457  0.1283 -0.1506  0.1478
   75DOPC   NC3  889  22.976   1.009  21.196 -0.1172  0.1632  0.1540
   75DOPC   PO4  890  23.053   0.632  21.189  0.2965 -0.1283 -0.2114
   75DOPC   GL1  891  22.672   0.483  20.897  0.0819  0.0345 -0.1331
   75DOPC   GL2  892  22.876   0.635  20.699  0.3959  0.3668 -0.1220
   75DOPC   C1A  893  22.455   0.126  20.747  0.1447  0.0825  0.1031
   75DOPC   D2A  894  22.021  -0.036  20.545  0.1607  0.0749 -0.0296
   75DOPC   C3A  895  22.094  -0.241  20.063 -0.1146 -0.0497  0.0261
   75DOPC   C4A  896  22.068  -0.254  19.607 -0.1247 -0.0499 -0.1554
   75DOPC   C1B  897  22.671   0.546  20.390 -0.3012  0.0069 -0.0105
   75DOPC   D2B  898  22.558   0.588  19.920  0.0208  0.1044  0.0705
   75DOPC   C3B  899  22.233   0.871  19.847 -0.0627 -0.0262  0.0945
   75DOPC   C4B  900  21.853   1.110  20.073  0.0008 -0.3196  0.0146
   76DOPC   NC3  901   8.571   1.313  14.343  0.2000 -0.2645 -0.1729
   76DOPC   PO4  902   8.302   1.139  14.081 -0.1625  0.5202 -0.0151
   76DOPC   GL1  903   8.325   1.250  13.683  0.0087  0.0459  0.2290
   76DOPC   GL2  904   8.208   1.473  13.631 -0.1080  0.3329 -0.2190
   76DOPC   C1A  905   8.662   1.342  13.363  0.2812 -0.2185  0.2030
   76DOPC   D2A  906   8.959   1.668  13.013  0.4930  0.4093 -0.0337
   76DOPC   C3A  907   9.194   1.907  12.712 -0.2492  0.0817 -0.0489
   76DOPC   C4A  908   9.727   1.898  12.692 -0.2053 -0.0988  0.2167
   76DOPC   C1B  909   8.174   1.308  13.189 -0.1302 -0.2998  0.0816
   76DOPC   D2B  910   8.132   1.060  12.712  0.2998  0.0733 -0.0417
   76DOPC   C3B  911   8.346   1.376  12.416 -0.0055 -0.1095  0.2152
   76DOPC   C4B  912   8.570   1.678  12.126  0.0545 -0.0711 -0.1364
   77DOPC   NC3  913  15.936   0.739  21.733 -0.0102 -0.0881 -0.1055
   77DOPC   PO4  914  16.044   0.358  21.847  0.0184  0.0541 -0.0056
   77DOPC   GL1  915  16.215   0.030  21.622  0.0075 -0.2065 -0.0774
   77DOPC   GL2  916  16.215  -0.164  21.764 -0.2400 -0.2472 -0.2956
   77DOPC   C1A  917  16.336  -0.011  21.248 -0.0837  0.1732  0.0699
   77DOPC   D2A  918  16.649  -0.146  20.833  0.1903  0.1282 -0.0444
   77DOPC   C3A  919  17.048   0.012  20.972 -0.0677 -0.2032 -0.1775
   77DOPC   C4A  920  17.340   0.137  21.346 -0.0727 -0.1242 -0.1239
   77DOPC   C1B  921  16.190  -0.456  21.489  0.1379  0.1935  0.2047
   77DOPC   D2B  922  16.333  -0.489  21.041  0.1499 -0.2389 -0.1415
   77DOPC   C3B  923  16.649  -0.667  20.765 -0.2267  0.2700 -0.0469
   77DOPC   C4B  924  16.745  -0.597  20.269  0.0589 -0.4064 -0.1343
   78DOPC   NC3  925   6.804   0.037  14.155 -0.0420  0.1048 -0.2537
   78DOPC   PO4  926   6.880  -0.307  13.983 -0.0774 -0.0769 -0.0432
   78DOPC   GL1  927   6.682  -0.414  13.557  0.2902 -0.2024  0.0007
   78DOPC   GL2  928   6.776  -0.221  13.426 -0.4329  0.0258  0.0127
   78DOPC   C1A  929   6.818  -0.686  13.229  0.1326 -0.0251  0.3426
   78DOPC   D2A  930   7.085  -0.981  12.883 -0.0402  0.0124  0.0029
   78DOPC   C3A  931   6.796  -1.247  12.721  0.0082  0.0269 -0.1101
   78DOPC   C4A  932   6.452  -1.566  12.576  0.0288 -0.1008  0.1385
   78DOPC   C1B  933   6.845  -0.223  12.950  0.1428  0.1383  0.0314
   78DOPC   D2B  934   6.826  -0.166  12.446 -0.2322 -0.2185  0.4051
   78DOPC   C3B  935   7.157  -0.333  12.149 -0.1233  0.0938  0.0974
   78DOPC   C4B  936   7.559  -0.576  11.873 -0.0891 -0.1791  0.2026
   79DOPC   NC3  937   1.453   6.260  17.790 -0.0956  0.0117  0.0974
   79DOPC   PO4  938   1.652   6.522  17.645  0.0530 -0.1361 -0.1147
   79DOPC   GL1  939   1.452   6.620  17.287 -0.3687 -0.1957 -0.0133
   79DOPC   GL2  940   1.405   6.901  17.196  0.2899 -0.0983  0.0254
   79DOPC   C1A  941   1.169   6.470  17.056  0.2043 -0.1140  0.1242
   79DOPC   D2A  942   0.909   6.568  16.546 -0.0416  0.0603 -0.3344
   79DOPC   C3A  943   0.696   6.794  16.222  0.1747 -0.0734 -0.1996
   79DOPC   C4A  944   0.265   6.747  15.988  0.0484  0.2895 -0.1112
   79DOPC   C1B  945   1.000   6.963  17.251 -0.2270 -0.1361  0.1417
   79DOPC   D2B  946   0.525   6.888  17.457 -0.0346 -0.1145  0.0671
   79DOPC   C3B  947   0.320   6.527  17.603 -0.0140  0.0616 -0.0860
   79DOPC   C4B  948   0.054   6.212  17.784 -0.2145  0.3668 -0.2463
   80DOPC   NC3  949  22.264   2.731  21.109  0.2277 -0.1331 -0.1275
   80DOPC   PO4  950  22.499   2.918  21.372 -0.0196  0.2890  0.0398
   80DOPC   GL1  951  22.253   3.243  21.094 -0.2197 -0.1636 -0.0239
   80DOPC   GL2  952  22.027   3.212  21.212 -0.0948  0.0394  0.1960
   80DOPC   C1A  953  22.141   3.024  20.740 -0.0673 -0.1379 -0.0653
   80DOPC   D2A  954  22.225   2.882  20.323 -0.2393  0.0715 -0.0407
   80DOPC   C3A  955  22.131   2.693  19.884  0.1759 -0.1842 -0.0342
   80DOPC   C4A  956  22.167   2.331  19.595 -0.2334 -0.2907 -0.0361
   80DOPC   C1B  957  21.659   3.361  20.980  0.4463  0.3765  0.3539
   80DOPC   D2B  958  21.259   3.384  20.663 -0.0964  0.2302  0.2366
   80DOPC   C3B  959  20.847   3.361  20.429 -0.0330  0.1606 -0.1250
   80DOPC   C4B  960  20.378   3.210  20.462  0.1124  0.3038 -0.3297
   81DOPC   NC3  961   7.469   7.192  14.439 -0.0404  0.2554  0.1272
   81DOPC   PO4  962   7.460   6.820  14.293 -0.0476 -0.1984  0.0726
   81DOPC   GL1  963   7.504   6.753  13.893  0.0967  0.0599  0.1542
   81DOPC   GL2  964   7.341   7.012  13.794  0.1613  0.0267  0.0879
   81DOPC   C1A  965   7.857   6.628  13.521 -0.0123 -0.0654 -0.0117
   81DOPC   D2A  966   8.277   6.751  13.351 -0.0725  0.3317 -0.3339
   81DOPC   C3A  967   8.575   6.787  13.067  0.2622  0.0115 -0.2574
   81DOPC   C4A  968   8.710   6.566  12.700  0.0045 -0.2950 -0.2620
   81DOPC   C1B  969   7.377   6.977  13.390  0.1553  0.3441 -0.0179
   81DOPC   D2B  970   7.535   6.745  12.975  0.2057  0.1589  0.1578
   81DOPC   C3B  971   7.711   6.436  12.681 -0.0461 -0.1036 -0.1060
   81DOPC   C4B  972   7.693   5.972  12.550  0.1721 -0.0273 -0.3610
   82DOPC   NC3  973  10.301   0.303  16.661  0.0143  0.2831 -0.0645
   82DOPC   PO4  974  10.332  -0.039  16.518  0.3344  0.1429  0.1902
   82DOPC   GL1  975  10.660  -0.194  16.392  0.0363  0.4018  0.4608
   82DOPC   GL2  976  10.602  -0.314  16.221  0.2627  0.0885 -0.4223
   82DOPC   C1A  977  10.996   0.016  16.187 -0.0397 -0.0151 -0.0158
   82DOPC   D2A  978  11.438   0.125  16.026 -0.1092  0.3862  0.1591
   82DOPC   C3A  979  11.639  -0.232  15.805  0.0933  0.4570  0.1286
   82DOPC   C4A  980  11.749  -0.664  15.526  0.0647 -0.0830 -0.3000
   82DOPC   C1B  981  10.590  -0.022  15.860 -0.0864  0.1814 -0.1316
   82DOPC   D2B  982  10.761   0.104  15.411 -0.1740  0.0953  0.0346
   82DOPC   C3B  983  11.015   0.045  15.082 -0.2169 -0.0940  0.1621
   82DOPC   C4B  984  11.392  -0.205  14.916 -0.1087  0.0958  0.0635
   83DOPC   NC3  985  10.383   3.278  16.272 -0.0714  0.5118 -0.1296
   83DOPC   PO4  986  10.558   2.923  16.200  0.1870  0.3490  0.1813
   83DOPC   GL1  987  10.819   2.852  15.899  0.3556  0.0889 -0.3199
   83DOPC   GL2  988  10.723   2.685  15.648 -0.0123  0.1060 -0.4391
   83DOPC   C1A  989  10.979   3.139  15.578  0.0007 -0.0678  0.5155
   83DOPC   D2A  990  11.066   3.026  15.099  0.0596 -0.1444 -0.1729
   83DOPC   C3A  991  11.357   2.956  14.728  0.1516  0.0170 -0.2117
   83DOPC   C4A  992  11.475   2.870  14.302  0.2273 -0.2106 -0.3116
   83DOPC   C1B  993  11.125   2.605  15.458 -0.2466  0.1202 -0.1380
   83DOPC   D2B  994  11.435   2.480  15.097 -0.0689  0.0532  0.0291
   83DOPC   C3B  995  11.791   2.355  14.873 -0.0355 -0.2065 -0.0577
   83DOPC   C4B  996  12.043   2.226  14.459  0.1037  0.0946 -0.0338
   84DOPC   NC3  997  16.914   7.242  21.913  0.2095  0.0972 -0.2389
   84DOPC   PO4  998  17.121   7.015  22.138  0.1053 -0.1840  0.3176
   84DOPC   GL1  999  17.359   6.983  21.817  0.0741 -0.1342 -0.0614
   84DOPC   GL2 1000  17.403   7.355  21.901 -0.0291  0.3138 -0.1783
   84DOPC   C1A 1001  17.060   6.868  21.532 -0.2021 -0.0082 -0.1422
   84DOPC   D2A 1002  16.971   6.876  21.060 -0.1565  0.0715  0.2611
   84DOPC   C3A 1003  16.830   6.672  20.718 -0.1054 -0.0278 -0.3147
   84DOPC   C4A 1004  16.637   6.314  20.390  0.0559 -0.2850 -0.0725
   84DOPC   C1B 1005  17.620   7.695  21.621  0.0156 -0.1939  0.2834
   84DOPC   D2B 1006  17.892   8.042  21.766  0.0770  0.0305 -0.1282
   84DOPC   C3B 1007  17.622   8.395  21.541 -0.0789 -0.2444 -0.0508
   84DOPC   C4B 1008  17.468   8.638  21.113  0.1505 -0.1425  0.1034
   85DOPC   NC3 1009   5.959   0.340  14.527 -0.0757 -0.0447  0.2458
   85DOPC   PO4 1010   5.629   0.370  14.322  0.0610  0.0680 -0.0366
   85DOPC   GL1 1011   5.291   0.061  14.153 -0.0012  0.2130 -0.1110
   85DOPC   GL2 1012   5.508   0.034  13.974  0.0221 -0.2218 -0.2581
   85DOPC   C1A 1013   5.062  -0.307  14.076  0.0039 -0.3735  0.2386
   85DOPC   D2A 1014   4.888  -0.672  13.809 -0.1766  0.1041  0.1764
   85DOPC   C3A 1015   5.045  -0.776  13.317 -0.0147 -0.3246  0.1364
   85DOPC   C4A 1016   5.184  -0.727  12.777  0.3412 -0.2536 -0.0040
   85DOPC   C1B 1017   5.598  -0.048  13.600 -0.0681  0.0627  0.0446
   85DOPC   D2B 1018   5.579   0.000  13.095 -0.0211  0.1310  0.1235
   85DOPC   C3B 1019   5.229   0.171  12.839 -0.0652  0.3572 -0.2014
   85DOPC   C4B 1020   4.846   0.251  12.493  0.3520 -0.0833 -0.1177
   86DOPC   NC3 1021  10.092   3.406  15.155  0.0209  0.2524 -0.1940
   86DOPC   PO4 1022  10.172   3.410  15.514  0.0550  0.1476  0.0176
   86DOPC   GL1 1023  10.529   3.604  15.546 -0.0139 -0.1207  0.0210
   86DOPC   GL2 1024  10.631   3.625  15.776  0.0852 -0.2532 -0.1451
   86DOPC   C1A 1025  10.831   3.515  15.184 -0.2331 -0.2492  0.0720
   86DOPC   D2A 1026  10.969   3.403  14.739 -0.1395  0.1017  0.0700
   86DOPC   C3A 1027  11.238   3.283  14.410 -0.0953  0.1907  0.1191
   86DOPC   C4A 1028  11.510   3.243  13.944  0.3107 -0.0940 -0.2575
   86DOPC   C1B 1029  10.950   3.815  15.542  0.0258 -0.0488 -0.0201
   86DOPC   D2B 1030  11.328   3.900  15.150 -0.0666  0.2017 -0.0052
   86DOPC   C3B 1031  11.530   3.624  14.820 -0.0059  0.0101  0.2352
   86DOPC   C4B 1032  11.731   3.272  14.534  0.3163  0.0350  0.1050
   87DOPC   NC3 1033   1.801   6.400  18.157 -0.0179 -0.0413 -0.1726
   87DOPC   PO4 1034   1.931   6.092  17.902  0.0889 -0.1622 -0.0693
   87DOPC   GL1 1035   1.785   5.930  17.603  0.1469 -0.0140  0.1002
   87DOPC   GL2 1036   1.991   6.041  17.423 -0.2093  0.1039  0.1343
   87DOPC   C1A 1037   1.469   5.924  17.366 -0.4158 -0.1859  0.1049
   87DOPC   D2A 1038   1.173   5.593  17.211 -0.0723  0.3201  0.2051
   87DOPC   C3A 1039   0.947   5.550  16.793  0.1311 -0.0466  0.1240
   87DOPC   C4A 1040   0.575   5.494  16.377 -0.0586  0.1481  0.1354
   87DOPC   C1B 1041   1.866   6.070  17.040 -0.3774 -0.0265  0.0926
   87DOPC   D2B 1042   1.719   6.127  16.533 -0.3963  0.2029  0.0503
   87DOPC   C3B 1043   1.558   5.928  16.110  0.3982  0.2061  0.4408
   87DOPC   C4B 1044   1.221   6.003  15.727 -0.0885  0.3027  0.1941
   88DOPC   NC3 1045  16.448   1.361  21.943 -0.0206  0.1834 -0.2281
   88DOPC   PO4 1046  16.201   1.653  21.776  0.1584  0.2121  0.0054
   88DOPC   GL1 1047  16.401   1.744  21.435  0.2871 -0.0872  0.0422
   88DOPC   GL2 1048  16.500   2.003  21.538  0.1482  0.3495 -0.2618
   88DOPC   C1A 1049  16.375   1.796  21.022 -0.2166 -0.1560 -0.3211
   88DOPC   D2A 1050  16.346   1.829  20.490 -0.1761 -0.1307 -0.0736
   88DOPC   C3A 1051  16.678   1.698  20.217  0.0789  0.2740  0.0290
   88DOPC   C4A 1052  17.091   1.676  19.967  0.0531  0.1509  0.0758
   88DOPC   C1B 1053  16.605   2.279  21.250  0.1481 -0.1407  0.2111
   88DOPC   D2B 1054  16.731   2.590  20.857 -0.0505 -0.3183 -0.0270
   88DOPC   C3B 1055  16.930   2.730  20.482  0.0113 -0.1237  0.2907
   88DOPC   C4B 1056  17.045   2.926  20.035  0.3494 -0.1834  0.0806
   89DOPC   NC3 1057  21.483   2.773  22.110  0.0718 -0.0012  0.2396
   89DOPC   PO4 1058  21.098   2.595  22.153 -0.3790 -0.4121  0.2800
   89DOPC   GL1 1059  20.939   2.767  21.824 -0.0107 -0.4596  0.2001
   89DOPC   GL2 1060  20.671   2.664  21.899 -0.1297  0.2095  0.2154
   89DOPC   C1A 1061  20.851   2.738  21.351 -0.1159 -0.0145 -0.1629
   89DOPC   D2A 1062  20.451   2.623  21.072  0.1187  0.0157 -0.1760
   89DOPC   C3A 1063  20.248   2.882  20.797 -0.1683  0.2361 -0.1866
   89DOPC   C4A 1064  19.844   3.092  20.558  0.3323  0.0314 -0.2476
   89DOPC   C1B 1065  20.453   2.371  21.519  0.3140 -0.0554  0.1384
   89DOPC   D2B 1066  20.529   2.067  21.149 -0.1855  0.0464  0.0723
   89DOPC   C3B 1067  20.605   2.106  20.758  0.1779 -0.0885  0.0220
   89DOPC   C4B 1068  20.795   2.139  20.324 -0.1366 -0.0587 -0.1955
   90DOPC   NC3 1069   1.583   0.518  17.393 -0.1324  0.1615 -0.0923
   90DOPC   PO4 1070   1.905   0.284  17.225  0.0800  0.0172  0.1229
   90DOPC   GL1 1071   1.702   0.286  16.932  0.1575 -0.0166  0.1166
   90DOPC   GL2 1072   1.828   0.194  16.727  0.1637 -0.1202 -0.0493
   90DOPC   C1A 1073   1.408   0.599  16.726  0.1644  0.2939 -0.1616
   90DOPC   D2A 1074   1.078   0.682  16.394  0.1548 -0.2558 -0.1261
   90DOPC   C3A 1075   0.874   0.479  16.048  0.0570 -0.0623  0.1721
   90DOPC   C4A 1076   0.863   0.068  15.763 -0.4129  0.2147  0.0796
   90DOPC   C1B 1077   1.741   0.358  16.373  0.4360 -0.1024 -0.0605
   90DOPC   D2B 1078   1.557   0.684  16.126 -0.0671  0.2158  0.0442
   90DOPC   C3B 1079   1.189   0.932  15.854 -0.1819 -0.1378  0.1685
   90DOPC   C4B 1080   1.165   1.167  15.446 -0.0966 -0.0643 -0.0846
   91DOPC   NC3 1081   1.320   6.933  17.662  0.0046  0.2014 -0.1546
   91DOPC   PO4 1082   1.215   6.650  17.881  0.1262  0.0152 -0.0290
   91DOPC   GL1 1083   0.871   6.527  17.615  0.4435  0.0972  0.0556
   91DOPC   GL2 1084   1.076   6.362  17.513 -0.1210 -0.4601 -0.0719
   91DOPC   C1A 1085   0.692   6.413  17.243  0.0001 -0.0292  0.0841
   91DOPC   D2A 1086   0.690   6.072  16.845 -0.2445 -0.0398  0.1837
   91DOPC   C3A 1087   0.348   5.823  16.668  0.2272 -0.0922 -0.2088
   91DOPC   C4A 1088  -0.103   5.822  16.502 -0.0004  0.1850  0.1615
   91DOPC   C1B 1089   0.981   6.040  17.283 -0.2418 -0.0988  0.1890
   91DOPC   D2B 1090   0.631   5.648  17.256  0.0691  0.1475  0.1861
   91DOPC   C3B 1091   0.280   5.522  17.037 -0.0164 -0.0729 -0.0796
   91DOPC   C4B 1092  -0.156   5.512  16.896 -0.0271  0.0657 -0.0958
   92DOPC   NC3 1093   7.520   5.903  14.761  0.0401 -0.0862  0.0123
   92DOPC   PO4 1094   7.154   5.894  14.655 -0.3282 -0.1901 -0.0557
   92DOPC   GL1 1095   7.273   5.940  14.240 -0.0417 -0.0536 -0.5049
   92DOPC   GL2 1096   7.045   6.145  14.147 -0.0819 -0.0781 -0.0123
   92DOPC   C1A 1097   7.447   5.701  13.876 -0.0484  0.0603 -0.0118
   92DOPC   D2A 1098   7.845   5.567  13.525  0.0586 -0.0428  0.0015
   92DOPC   C3A 1099   8.031   5.485  13.136  0.2040 -0.1434  0.3387
   92DOPC   C4A 1100   8.186   5.177  12.797  0.0680  0.1725  0.1359
   92DOPC   C1B 1101   6.936   6.148  13.695  0.1069 -0.1897  0.0263
   92DOPC   D2B 1102   6.971   6.160  13.214 -0.1018  0.2604  0.0836
   92DOPC   C3B 1103   7.218   6.306  12.849 -0.0904 -0.2372 -0.2180
   92DOPC   C4B 1104   7.293   6.523  12.433  0.1118 -0.0528 -0.2486
   93DOPC   NC3 1105  11.032   0.131  17.506  0.0107  0.2007  0.2610
   93DOPC   PO4 1106  11.120   0.374  17.215 -0.0644 -0.0487  0.0118
   93DOPC   GL1 1107  11.356   0.419  16.831 -0.1688  0.0258 -0.2830
   93DOPC   GL2 1108  11.405   0.188  16.819 -0.3210 -0.0036  0.1686
   93DOPC   C1A 1109  11.677   0.599  16.590 -0.0721 -0.0301  0.2275
   93DOPC   D2A 1110  12.143   0.498  16.609 -0.0647 -0.3347 -0.1820
   93DOPC   C3A 1111  12.373   0.249  16.299  0.1283 -0.0580  0.0196
   93DOPC   C4A 1112  12.739   0.093  16.035 -0.3137 -0.0437  0.4280
   93DOPC   C1B 1113  11.873   0.157  16.881 -0.2504 -0.1000  0.1349
   93DOPC   D2B 1114  12.360   0.019  16.824  0.0166 -0.3724 -0.1047
   93DOPC   C3B 1115  12.723   0.289  16.717  0.1642 -0.2012  0.2546
   93DOPC   C4B 1116  13.178   0.368  16.804  0.2669  0.2987 -0.2160
   94DOPC   NC3 1117   7.171   3.582  14.396  0.0470 -0.0509  0.2261
   94DOPC   PO4 1118   7.052   3.869  14.142 -0.1285  0.0663  0.0403
   94DOPC   GL1 1119   7.120   4.052  13.660 -0.1295  0.1900  0.1239
   94DOPC   GL2 1120   7.186   3.766  13.649 -0.0321 -0.0352  0.0299
   94DOPC   C1A 1121   7.215   4.179  13.289  0.1055 -0.3540  0.1126
   94DOPC   D2A 1122   7.334   3.933  12.899 -0.1814  0.1252 -0.0358
   94DOPC   C3A 1123   7.391   3.637  12.599 -0.0245 -0.0201 -0.4086
   94DOPC   C4A 1124   7.385   3.154  12.439  0.0584 -0.1141 -0.2708
   94DOPC   C1B 1125   6.990   3.775  13.253  0.3073  0.2870  0.1502
   94DOPC   D2B 1126   6.803   3.963  12.881 -0.3923  0.1090 -0.0602
   94DOPC   C3B 1127   6.889   4.293  12.563 -0.3036  0.2295  0.1129
   94DOPC   C4B 1128   6.844   4.234  12.057 -0.2877 -0.2515  0.0698
   95DOPC   NC3 1129   8.538   5.187  14.090  0.1204 -0.1099 -0.5194
   95DOPC   PO4 1130   8.164   5.026  14.118  0.2892 -0.0977 -0.2416
   95DOPC   GL1 1131   8.033   4.883  13.722  0.1538 -0.1088 -0.0116
   95DOPC   GL2 1132   7.921   5.123  13.542  0.2153 -0.0364  0.2512
   95DOPC   C1A 1133   8.002   4.574  13.361  0.1402 -0.1324  0.0714
   95DOPC   D2A 1134   7.707   4.267  13.136 -0.1048 -0.2299 -0.0766
   95DOPC   C3A 1135   7.750   4.032  12.673  0.0746  0.0601 -0.2262
   95DOPC   C4A 1136   7.797   3.772  12.295 -0.2002  0.0657 -0.0906
   95DOPC   C1B 1137   7.842   4.986  13.135 -0.3803 -0.0057  0.3274
   95DOPC   D2B 1138   7.827   4.570  12.819  0.1506 -0.0462  0.0267
   95DOPC   C3B 1139   7.349   4.518  12.716  0.1216 -0.1233 -0.0132
   95DOPC   C4B 1140   6.951   4.792  12.534 -0.3334  0.0151  0.3094
   96DOPC   NC3 1141   9.361   0.216  15.644 -0.0694  0.2176 -0.2376
   96DOPC   PO4 1142   9.317   0.025  15.302 -0.2060 -0.1504  0.0078
   96DOPC   GL1 1143   9.575  -0.301  15.167  0.0684 -0.1605  0.0967
   96DOPC   GL2 1144   9.714  -0.151  14.904  0.0651 -0.1368  0.1571
   96DOPC   C1A 1145   9.942  -0.517  15.295 -0.0185 -0.1604 -0.1144
   96DOPC   D2A 1146  10.344  -0.582  15.090 -0.1990 -0.0482 -0.1115
   96DOPC   C3A 1147  10.522  -0.575  14.635  0.1882  0.2003  0.1019
   96DOPC   C4A 1148  10.822  -0.503  14.296  0.0307  0.0428  0.0737
   96DOPC   C1B 1149  10.064  -0.275  14.718  0.1833 -0.0610  0.0061
   96DOPC   D2B 1150  10.524  -0.127  14.409  0.1120  0.2228 -0.1179
   96DOPC   C3B 1151  10.821  -0.012  14.117 -0.3074 -0.0620 -0.2454
   96DOPC   C4B 1152  11.280   0.205  14.190 -0.0472  0.0576  0.1937
   97DOPC   NC3 1153  12.430   3.760  18.547  0.0976 -0.3584  0.0705
   97DOPC   PO4 1154  12.372   4.098  18.287  0.0137  0.1422 -0.1968
   97DOPC   GL1 1155  12.665   4.405  18.242  0.2106 -0.3868  0.1349
   97DOPC   GL2 1156  12.751   4.326  17.957  0.1108 -0.1428 -0.2583
   97DOPC   C1A 1157  12.980   4.713  18.386 -0.2278 -0.0565 -0.2573
   97DOPC   D2A 1158  13.337   5.023  18.441 -0.0883 -0.2230 -0.0873
   97DOPC   C3A 1159  13.756   5.072  18.240  0.0356  0.3826  0.4649
   97DOPC   C4A 1160  14.104   5.402  18.031 -0.0369  0.1154  0.1200
   97DOPC   C1B 1161  13.118   4.165  17.694  0.2918 -0.0350 -0.1449
   97DOPC   D2B 1162  13.587   4.271  17.653  0.3700 -0.2087 -0.0308
   97DOPC   C3B 1163  13.976   4.022  17.733  0.0376  0.0791 -0.2665
   97DOPC   C4B 1164  14.446   3.911  17.853 -0.1902 -0.0747 -0.2967
   98DOPC   NC3 1165  16.972   3.985  22.435  0.1177 -0.1813 -0.0528
   98DOPC   PO4 1166  17.279   4.223  22.548  0.2228 -0.1844 -0.1338
   98DOPC   GL1 1167  17.520   4.271  22.244  0.2083 -0.2428 -0.0985
   98DOPC   GL2 1168  17.467   4.561  22.189  0.1566 -0.0583 -0.3724
   98DOPC   C1A 1169  17.711   4.180  21.840 -0.0919 -0.1258 -0.0243
   98DOPC   D2A 1170  17.920   4.106  21.339 -0.2099 -0.2087  0.1203
   98DOPC   C3A 1171  18.008   4.022  20.930 -0.0232  0.1509 -0.0555
   98DOPC   C4A 1172  18.277   3.879  20.567  0.0470 -0.0100  0.0679
   98DOPC   C1B 1173  17.633   4.735  21.808  0.3249  0.1811 -0.1142
   98DOPC   D2B 1174  17.780   4.904  21.329  0.2953  0.2738  0.0583
   98DOPC   C3B 1175  18.259   4.944  21.178 -0.1380 -0.1720  0.1511
   98DOPC   C4B 1176  18.650   4.700  21.054 -0.0257 -0.0913 -0.1092
   99DOPC   NC3 1177  18.324   7.580  22.602  0.0837  0.2307  0.1421
   99DOPC   PO4 1178  18.669   7.689  22.461 -0.1199 -0.2053 -0.0961
   99DOPC   GL1 1179  18.828   7.782  22.074  0.0053  0.1521  0.3170
   99DOPC   GL2 1180  18.618   7.940  22.070 -0.4356 -0.6595 -0.3675
   99DOPC   C1A 1181  19.045   7.951  21.765  0.0132  0.1719 -0.0934
   99DOPC   D2A 1182  19.453   8.056  21.736  0.1185 -0.1894  0.1366
   99DOPC   C3A 1183  19.519   7.629  21.733 -0.0636  0.0422 -0.1507
   99DOPC   C4A 1184  19.623   7.259  21.460  0.1487  0.0370 -0.2623
   99DOPC   C1B 1185  18.561   8.049  21.678 -0.2778 -0.0911 -0.2700
   99DOPC   D2B 1186  18.784   8.243  21.273  0.0781 -0.1725 -0.2498
   99DOPC   C3B 1187  19.094   8.182  20.980  0.3092  0.1341 -0.0031
   99DOPC   C4B 1188  19.452   7.970  20.750 -0.1615  0.2584 -0.0571
  100DOPC   NC3 1189   7.132   5.457  14.276  0.1822  0.0785 -0.0004
  100DOPC   PO4 1190   7.355   5.190  14.430  0.0924  0.0177 -0.1777
  100DOPC   GL1 1191   7.267   5.014  14.059  0.0785 -0.0834 -0.2154
  100DOPC   GL2 1192   6.981   4.996  14.082 -0.5108  0.0395 -0.3204
  100DOPC   C1A 1193   7.322   5.149  13.696  0.2212  0.2556 -0.0969
  100DOPC   D2A 1194   7.488   5.345  13.265 -0.0987 -0.0736  0.0466
  100DOPC   C3A 1195   7.671   5.309  12.810  0.0026  0.1069  0.0984
  100DOPC   C4A 1196   7.898   5.336  12.368 -0.2041  0.2879  0.1348
  100DOPC   C1B 1197   6.606   4.731  13.919 -0.2753 -0.2070  0.0654
  100DOPC   D2B 1198   6.190   4.695  13.584  0.1128  0.0260 -0.1038
  100DOPC   C3B 1199   6.149   4.887  13.196  0.2693 -0.1431  0.0136
  100DOPC   C4B 1200   5.983   4.768  12.760  0.0492  0.3422  0.2373
  101DOPC   NC3 1201  19.418   5.814  17.871 -0.0857  0.1067  0.1081
  101DOPC   PO4 1202  19.646   6.063  18.111 -0.1529 -0.2301 -0.0671
  101DOPC   GL1 1203  19.726   5.988  18.482 -0.1401  0.0908  0.2354
  101DOPC   GL2 1204  19.877   6.189  18.533  0.0318 -0.4144  0.2447
  101DOPC   C1A 1205  19.612   5.792  18.836  0.0749 -0.2081 -0.0127
  101DOPC   D2A 1206  19.553   5.557  19.245 -0.1896 -0.1627 -0.0015
  101DOPC   C3A 1207  19.782   5.474  19.601 -0.2079 -0.0956 -0.0605
  101DOPC   C4A 1208  20.136   5.508  19.993 -0.0286  0.1229  0.0727
  101DOPC   C1B 1209  20.031   6.108  18.889 -0.1977  0.1185  0.2616
  101DOPC   D2B 1210  20.217   6.320  19.302 -0.0090 -0.4095 -0.0634
  101DOPC   C3B 1211  20.082   6.408  19.773 -0.1048 -0.3950  0.0566
  101DOPC   C4B 1212  19.914   6.798  20.151  0.0294 -0.0687  0.0586
  102DOPC   NC3 1213  22.115   1.904  16.619  0.1475  0.1347 -0.1924
  102DOPC   PO4 1214  22.200   1.716  16.995  0.1662  0.0116  0.1410
  102DOPC   GL1 1215  22.454   1.615  17.400  0.1415  0.0768 -0.0888
  102DOPC   GL2 1216  22.490   1.862  17.382 -0.2917  0.0695 -0.0153
  102DOPC   C1A 1217  22.709   1.336  17.559  0.2342  0.0462 -0.1263
  102DOPC   D2A 1218  23.127   1.139  17.819 -0.0310 -0.1219 -0.1940
  102DOPC   C3A 1219  23.481   0.877  17.660 -0.0463 -0.1271 -0.3623
  102DOPC   C4A 1220  23.861   0.586  17.540 -0.0850  0.0774 -0.3503
  102DOPC   C1B 1221  22.688   1.886  17.781 -0.3349 -0.2508  0.3141
  102DOPC   D2B 1222  22.939   1.893  18.249  0.0387 -0.0659 -0.0269
  102DOPC   C3B 1223  22.923   1.833  18.657 -0.2757 -0.0300  0.0999
  102DOPC   C4B 1224  23.012   1.651  19.110 -0.1928  0.4677  0.1393
  103DOPC   NC3 1225  19.680   4.799  18.719  0.2424  0.0073 -0.0921
  103DOPC   PO4 1226  19.493   4.575  18.441  0.2537 -0.0651 -0.0097
  103DOPC   GL1 1227  19.298   4.367  18.707  0.0048 -0.0455 -0.3154
  103DOPC   GL2 1228  19.628   4.283  18.762 -0.0527 -0.0476  0.2340
  103DOPC   C1A 1229  19.322   4.071  19.030 -0.2826 -0.1406 -0.1427
  103DOPC   D2A 1230  19.678   3.824  19.192  0.0322 -0.2203  0.0728
  103DOPC   C3A 1231  19.950   3.743  19.522  0.0921  0.0599 -0.2458
  103DOPC   C4A 1232  20.408   3.812  19.753 -0.0004  0.0969  0.1705
  103DOPC   C1B 1233  19.647   4.383  19.158 -0.1509 -0.2602  0.2863
  103DOPC   D2B 1234  19.586   4.108  19.606 -0.0357 -0.0211 -0.1888
  103DOPC   C3B 1235  19.563   3.777  19.946  0.1056  0.1774 -0.0117
  103DOPC   C4B 1236  19.636   3.375  20.230 -0.2022 -0.0813 -0.0875
  104DOPC   NC3 1237  14.183   3.812  15.084 -0.0847 -0.0769 -0.0993
  104DOPC   PO4 1238  14.326   4.197  15.063  0.1654 -0.1266 -0.0024
  104DOPC   GL1 1239  13.998   4.349  15.331  0.0702  0.0263  0.0199
  104DOPC   GL2 1240  14.228   4.403  15.457  0.0703 -0.2315 -0.2973
  104DOPC   C1A 1241  13.806   3.949  15.369  0.1190 -0.1227  0.0852
  104DOPC   D2A 1242  13.496   3.699  15.664 -0.0695 -0.0387  0.3585
  104DOPC   C3A 1243  13.075   3.697  15.539 -0.2155 -0.2192 -0.1447
  104DOPC   C4A 1244  12.715   3.951  15.759 -0.3139 -0.0559 -0.1487
  104DOPC   C1B 1245  14.107   4.344  15.839 -0.2289  0.1339 -0.1041
  104DOPC   D2B 1246  14.013   4.183  16.289  0.0748  0.1330  0.0835
  104DOPC   C3B 1247  13.947   4.102  16.793 -0.0115  0.0775 -0.0765
  104DOPC   C4B 1248  13.935   4.104  17.236  0.0396  0.1616  0.1569
  105DOPC   NC3 1249   7.540   1.614   9.925 -0.1340 -0.2790  0.3189
  105DOPC   PO4 1250   7.697   1.269  10.005  0.0226 -0.0396  0.0697
  105DOPC   GL1 1251   7.796   1.400  10.471 -0.0432 -0.4102  0.1586
  105DOPC   GL2 1252   7.835   1.646  10.313  0.1520 -0.2433 -0.1035
  105DOPC   C1A 1253   8.135   1.363  10.709 -0.1798 -0.0043 -0.2404
  105DOPC   D2A 1254   8.578   1.345  10.886 -0.2538 -0.3653 -0.0618
  105DOPC   C3A 1255   8.655   0.912  11.109  0.2061  0.0914  0.2042
  105DOPC   C4A 1256   8.595   0.513  11.378  0.2951 -0.2338 -0.0935
  105DOPC   C1B 1257   8.114   1.914  10.562  0.0685 -0.1930  0.1037
  105DOPC   D2B 1258   8.453   2.286  10.590  0.2063  0.1035  0.2841
  105DOPC   C3B 1259   8.419   2.178  11.018  0.0140  0.0313 -0.1266
  105DOPC   C4B 1260   8.280   2.070  11.430 -0.2277 -0.2537 -0.0651
  106DOPC   NC3 1261   0.462   3.287  12.872  0.0210 -0.0555 -0.0775
  106DOPC   PO4 1262   0.496   3.444  13.247 -0.1297  0.2112 -0.0906
  106DOPC   GL1 1263   0.382   3.311  13.730  0.2176 -0.3855  0.3247
  106DOPC   GL2 1264   0.624   3.489  13.666  0.1719 -0.0758  0.1736
  106DOPC   C1A 1265   0.456   3.102  14.095 -0.0819  0.0594  0.2007
  106DOPC   D2A 1266   0.822   2.914  14.331  0.0887  0.1735 -0.1352
  106DOPC   C3A 1267   1.150   2.970  14.530  0.1508 -0.0976 -0.0766
  106DOPC   C4A 1268   1.358   3.031  14.949 -0.0192  0.3729  0.0354
  106DOPC   C1B 1269   0.989   3.447  13.739 -0.2734  0.0102  0.1442
  106DOPC   D2B 1270   1.480   3.482  13.852  0.0356  0.0892  0.2376
  106DOPC   C3B 1271   1.881   3.254  13.829 -0.1588  0.1234  0.5003
  106DOPC   C4B 1272   2.220   2.922  13.657  0.1067  0.0056 -0.1559
  107DOPC   NC3 1273  15.568   0.134  15.030  0.1567  0.1189  0.2675
  107DOPC   PO4 1274  15.320   0.238  15.304 -0.0684  0.1584  0.1972
  107DOPC   GL1 1275  14.888   0.092  15.394 -0.1191  0.2867  0.1082
  107DOPC   GL2 1276  14.758   0.253  15.267 -0.0250 -0.3569 -0.2853
  107DOPC   C1A 1277  14.710  -0.038  15.786  0.0018  0.0697 -0.1550
  107DOPC   D2A 1278  14.498  -0.300  16.169  0.2026 -0.2711 -0.0177
  107DOPC   C3A 1279  14.253  -0.123  16.454 -0.1288 -0.3844  0.0326
  107DOPC   C4A 1280  14.013   0.072  16.851  0.1844 -0.3081 -0.0791
  107DOPC   C1B 1281  14.450   0.425  15.570  0.0674 -0.1224  0.3369
  107DOPC   D2B 1282  14.040   0.620  15.835 -0.1399 -0.0258  0.0491
  107DOPC   C3B 1283  13.636   0.471  16.039 -0.0173 -0.1024  0.0442
  107DOPC   C4B 1284  13.264   0.520  16.343  0.1249 -0.4130 -0.2250
  108DOPC   NC3 1285  12.428   5.071  12.129 -0.1175  0.1252  0.0327
  108DOPC   PO4 1286  12.080   5.046  12.327 -0.0898 -0.0381 -0.0838
  108DOPC   GL1 1287  11.902   4.791  12.622 -0.2106  0.5830 -0.1432
  108DOPC   GL2 1288  12.108   4.735  12.797 -0.2737 -0.1510 -0.3215
  108DOPC   C1A 1289  11.552   4.957  12.783 -0.0815  0.0065  0.1178
  108DOPC   D2A 1290  11.133   5.053  13.074 -0.2315 -0.2519 -0.1101
  108DOPC   C3A 1291  11.002   4.878  13.477  0.0269 -0.0101  0.0843
  108DOPC   C4A 1292  10.982   4.744  13.958  0.0259 -0.1926  0.0858
  108DOPC   C1B 1293  12.056   4.751  13.287 -0.0254 -0.1680 -0.1319
  108DOPC   D2B 1294  12.109   4.616  13.725 -0.2788  0.1288 -0.4271
  108DOPC   C3B 1295  11.883   4.367  13.960  0.1797  0.0543  0.0996
  108DOPC   C4B 1296  11.951   4.148  14.409 -0.3240 -0.1211  0.4103
  109DOPC   NC3 1297   1.186   7.478  12.309  0.0750  0.3198  0.1133
  109DOPC   PO4 1298   1.453   7.217  12.312 -0.3366  0.1775 -0.4247
  109DOPC   GL1 1299   1.607   7.130  12.714  0.3864  0.4813  0.3588
  109DOPC   GL2 1300   1.576   7.395  12.751 -0.3108  0.1324 -0.1733
  109DOPC   C1A 1301   1.647   6.928  13.038 -0.0962  0.2151 -0.0007
  109DOPC   D2A 1302   1.377   6.943  13.462 -0.3650  0.0478  0.0161
  109DOPC   C3A 1303   1.402   6.576  13.812  0.3359  0.1014 -0.0011
  109DOPC   C4A 1304   1.570   6.273  14.228  0.1654 -0.1011  0.1994
  109DOPC   C1B 1305   1.831   7.558  13.088 -0.2156 -0.0440 -0.2718
  109DOPC   D2B 1306   2.112   7.689  13.472  0.0957 -0.3639  0.1392
  109DOPC   C3B 1307   2.455   7.866  13.730  0.0604 -0.1000  0.1452
  109DOPC   C4B 1308   2.924   8.088  13.665 -0.0167  0.0939 -0.1788
  110DOPC   NC3 1309  10.207   0.127  11.193  0.0951 -0.0480 -0.1006
  110DOPC   PO4 1310  10.199  -0.105  10.898  0.0315 -0.0874 -0.0667
  110DOPC   GL1 1311   9.743  -0.102  11.011  0.1597  0.0020 -0.0746
  110DOPC   GL2 1312   9.876  -0.261  11.227  0.0139  0.2303 -0.0789
  110DOPC   C1A 1313   9.601   0.224  11.210 -0.1495  0.2093  0.2986
  110DOPC   D2A 1314   9.624   0.504  11.610  0.2367 -0.1608 -0.2203
  110DOPC   C3A 1315   9.402   0.866  11.731  0.1749 -0.0043  0.0270
  110DOPC   C4A 1316   9.273   1.290  11.937  0.0653  0.0274  0.1988
  110DOPC   C1B 1317   9.874  -0.031  11.597 -0.1846  0.2516  0.1383
  110DOPC   D2B 1318   9.798   0.165  12.028 -0.0495  0.1104 -0.0400
  110DOPC   C3B 1319   9.785   0.056  12.453  0.0653 -0.1417  0.0516
  110DOPC   C4B 1320   9.898   0.139  12.900 -0.1227 -0.1232 -0.0572
  111DOPC   NC3 1321  18.354   1.752  18.378 -0.0242  0.1826 -0.0347
  111DOPC   PO4 1322  18.737   1.730  18.444 -0.2495  0.0972  0.0087
  111DOPC   GL1 1323  18.857   1.877  18.827  0.3625 -0.2052  0.1311
  111DOPC   GL2 1324  19.118   1.675  18.810 -0.0068  0.0170 -0.0935
  111DOPC   C1A 1325  18.759   1.807  19.262 -0.0712  0.1463 -0.1979
  111DOPC   D2A 1326  18.810   1.655  19.726  0.2078  0.0951  0.1338
  111DOPC   C3A 1327  18.472   1.631  20.137  0.1183 -0.1889  0.0329
  111DOPC   C4A 1328  18.234   1.636  20.538 -0.1714 -0.1654  0.2621
  111DOPC   C1B 1329  19.277   1.537  19.173  0.1451 -0.2441  0.2001
  111DOPC   D2B 1330  19.514   1.461  19.616 -0.1759  0.1436  0.2344
  111DOPC   C3B 1331  19.787   1.246  19.939  0.2747 -0.0801 -0.2371
  111DOPC   C4B 1332  20.137   1.303  20.295  0.0304 -0.0750  0.0463
  112DOPC   NC3 1333   9.993   1.978  10.543  0.1395  0.2260  0.0119
  112DOPC   PO4 1334  10.085   1.608  10.491  0.1289 -0.0943 -0.1378
  112DOPC   GL1 1335   9.991   1.532  10.876 -0.0886  0.3406  0.1185
  112DOPC   GL2 1336  10.134   1.272  10.948 -0.0449 -0.1381 -0.2124
  112DOPC   C1A 1337   9.732   1.591  11.170 -0.1985 -0.2387  0.3840
  112DOPC   D2A 1338   9.467   1.300  11.459  0.1266 -0.0101  0.0437
  112DOPC   C3A 1339   9.817   0.964  11.615 -0.4143 -0.1676  0.2178
  112DOPC   C4A 1340   9.929   0.699  11.989 -0.1451 -0.1097 -0.2275
  112DOPC   C1B 1341   9.835   1.056  11.011  0.3689  0.0373 -0.0823
  112DOPC   D2B 1342   9.465   0.841  11.282  0.3514 -0.1435  0.1335
  112DOPC   C3B 1343   8.981   1.028  11.408  0.1389 -0.2858  0.0226
  112DOPC   C4B 1344   8.529   0.905  11.637 -0.1009 -0.0387 -0.2370
  113DOPC   NC3 1345   2.980   0.957  10.682 -0.2035  0.1089  0.1683
  113DOPC   PO4 1346   3.123   1.222  10.930  0.2296  0.0306 -0.2259
  113DOPC   GL1 1347   3.056   1.244  11.318 -0.2630  0.1604 -0.0530
  113DOPC   GL2 1348   3.115   1.495  11.326  0.1882  0.0064  0.1802
  113DOPC   C1A 1349   3.309   1.021  11.608  0.1955  0.0708 -0.1844
  113DOPC   D2A 1350   3.672   0.963  11.792 -0.0343  0.0663  0.1109
  113DOPC   C3A 1351   3.911   1.316  12.091 -0.3526 -0.1803  0.2163
  113DOPC   C4A 1352   3.827   1.556  12.541  0.2544 -0.0471 -0.0871
  113DOPC   C1B 1353   3.282   1.493  11.736  0.1592 -0.1663  0.1180
  113DOPC   D2B 1354   3.374   1.193  12.098 -0.3697 -0.1638  0.0518
  113DOPC   C3B 1355   3.529   1.147  12.554  0.0292 -0.1360 -0.1255
  113DOPC   C4B 1356   3.345   1.230  12.974 -0.1462  0.0802 -0.0427
  114DOPC   NC3 1357  19.968   7.854  17.993 -0.1489 -0.0777 -0.1070
  114DOPC   PO4 1358  20.161   7.992  18.307 -0.0743 -0.2456  0.3303
  114DOPC   GL1 1359  20.329   7.909  18.658  0.1908 -0.0760  0.3994
  114DOPC   GL2 1360  20.078   8.078  18.805  0.2692 -0.4338  0.2018
  114DOPC   C1A 1361  20.596   7.913  18.911  0.0705  0.0487  0.1944
  114DOPC   D2A 1362  20.892   7.705  19.271 -0.0625  0.0985 -0.2150
  114DOPC   C3A 1363  21.083   7.688  19.705 -0.1646  0.2569  0.3121
  114DOPC   C4A 1364  20.767   7.725  20.030 -0.2423  0.1305 -0.2218
  114DOPC   C1B 1365  19.938   7.998  19.202  0.1558  0.1257 -0.2287
  114DOPC   D2B 1366  19.798   7.966  19.734 -0.0294 -0.2753  0.2401
  114DOPC   C3B 1367  19.867   8.348  19.922  0.1650  0.0365 -0.1681
  114DOPC   C4B 1368  20.121   8.639  20.218  0.1980 -0.1560  0.1814
  115DOPC   NC3 1369   4.090   7.259  10.313 -0.0613 -0.1860 -0.0865
  115DOPC   PO4 1370   4.297   7.084  10.585  0.2075 -0.0624 -0.2780
  115DOPC   GL1 1371   4.166   6.922  10.962 -0.0131  0.2623 -0.0749
  115DOPC   GL2 1372   4.165   7.161  11.119  0.2181  0.0769  0.3612
  115DOPC   C1A 1373   4.425   6.877  11.330 -0.0174 -0.1266 -0.0010
  115DOPC   D2A 1374   4.677   6.904  11.734  0.0500 -0.0511  0.0819
  115DOPC   C3A 1375   5.011   7.158  11.906 -0.0575  0.0080 -0.1793
  115DOPC   C4A 1376   5.201   7.359  12.306 -0.1066  0.0047 -0.0569
  115DOPC   C1B 1377   4.272   7.377  11.476 -0.0749  0.0231 -0.0066
  115DOPC   D2B 1378   4.512   7.386  11.940 -0.0389  0.2144  0.1044
  115DOPC   C3B 1379   4.568   7.369  12.415 -0.0257  0.1295  0.0503
  115DOPC   C4B 1380   4.305   7.559  12.796  0.1217  0.1301 -0.2136
  116DOPC   NC3 1381  15.201   5.770  16.008 -0.2980 -0.0570 -0.0781
  116DOPC   PO4 1382  15.060   6.116  15.869  0.0597 -0.0166 -0.0805
  116DOPC   GL1 1383  14.700   6.186  16.102  0.0968  0.2050  0.0596
  116DOPC   GL2 1384  14.704   5.964  16.283 -0.1394  0.3197  0.0659
  116DOPC   C1A 1385  14.242   6.257  16.164  0.0778 -0.0113  0.0260
  116DOPC   D2A 1386  13.916   6.473  16.408  0.0782  0.1090  0.1053
  116DOPC   C3A 1387  13.597   6.649  16.134 -0.2733  0.2293 -0.0108
  116DOPC   C4A 1388  13.242   6.826  15.833 -0.0362  0.1128 -0.0696
  116DOPC   C1B 1389  14.374   5.950  16.529 -0.0857  0.1176 -0.0491
  116DOPC   D2B 1390  13.925   5.906  16.770 -0.0441 -0.1546 -0.2917
  116DOPC   C3B 1391  13.769   6.292  16.968 -0.1961 -0.0257  0.1085
  116DOPC   C4B 1392  13.826   6.769  16.866 -0.2150 -0.0283  0.0532
  117DOPC   NC3 1393  23.090   5.648  15.134  0.1591 -0.1925  0.1401
  117DOPC   PO4 1394  23.153   5.490  15.500 -0.1271 -0.0203  0.0557
  117DOPC   GL1 1395  23.426   5.457  15.830  0.0925 -0.0476 -0.2869
  117DOPC   GL2 1396  23.558   5.726  15.834  0.1993  0.2154 -0.0888
  117DOPC   C1A 1397  23.773   5.192  15.862  0.3692  0.2850  0.1005
  117DOPC   D2A 1398  24.218   5.385  15.896  0.3562 -0.0776  0.4140
  117DOPC   C3A 1399  24.348   5.639  16.326  0.1411  0.2776 -0.2750
  117DOPC   C4A 1400  24.561   5.875  16.638 -0.0272  0.1732 -0.0808
  117DOPC   C1B 1401  23.867   5.598  16.125 -0.1505  0.3518  0.0781
  117DOPC   D2B 1402  23.972   5.208  16.306 -0.2029  0.2582 -0.1566
  117DOPC   C3B 1403  24.341   5.103  16.476 -0.2224  0.0854 -0.1379
  117DOPC   C4B 1404  24.621   4.736  16.564  0.1351 -0.2884 -0.1578
  118DOPC   NC3 1405  13.587   6.432  14.736 -0.3237  0.2382 -0.3080
  118DOPC   PO4 1406  13.643   6.632  14.409  0.2432 -0.0172  0.2936
  118DOPC   GL1 1407  13.298   6.748  14.454 -0.0060  0.0911 -0.0305
  118DOPC   GL2 1408  13.271   6.882  14.684 -0.4272 -0.3375 -0.0963
  118DOPC   C1A 1409  12.890   6.531  14.545  0.0386  0.0859 -0.0017
  118DOPC   D2A 1410  12.562   6.428  14.929  0.0533  0.1508  0.1902
  118DOPC   C3A 1411  12.396   6.447  15.325  0.2845  0.1166  0.1312
  118DOPC   C4A 1412  12.285   6.241  15.802  0.0862  0.1210  0.1643
  118DOPC   C1B 1413  12.906   6.862  14.940 -0.0960  0.0513 -0.0954
  118DOPC   D2B 1414  12.436   7.026  15.084  0.1900  0.3400  0.3918
  118DOPC   C3B 1415  12.331   7.053  15.585 -0.1746  0.0602  0.0526
  118DOPC   C4B 1416  12.201   7.181  16.092 -0.2070  0.0889 -0.0299
  119DOPC   NC3 1417   8.375   3.244   9.332  0.0384 -0.0840 -0.0783
  119DOPC   PO4 1418   8.669   3.124   9.590  0.1756  0.4298  0.0382
  119DOPC   GL1 1419   8.519   3.018  10.025  0.1698 -0.0521  0.2651
  119DOPC   GL2 1420   8.768   3.032  10.129  0.0901  0.1183 -0.0011
  119DOPC   C1A 1421   8.190   3.178  10.320 -0.0383  0.0695 -0.1417
  119DOPC   D2A 1422   7.834   3.436  10.529  0.2066 -0.2419  0.0515
  119DOPC   C3A 1423   7.774   3.569  10.933 -0.0254  0.1218 -0.2118
  119DOPC   C4A 1424   7.800   3.847  11.270 -0.3285 -0.5726  0.1007
  119DOPC   C1B 1425   8.623   3.055  10.553  0.0953  0.1842  0.1452
  119DOPC   D2B 1426   8.623   2.955  11.055  0.2652  0.0243 -0.0608
  119DOPC   C3B 1427   8.546   3.223  11.504  0.0012 -0.0435 -0.1940
  119DOPC   C4B 1428   8.452   3.317  12.000  0.2329 -0.1677  0.2014
  120DOPC   NC3 1429  23.296   1.763  16.261 -0.0776 -0.0934  0.3381
  120DOPC   PO4 1430  23.182   1.474  16.026 -0.1549  0.1739 -0.2842
  120DOPC   GL1 1431  23.561   1.329  16.096  0.1222 -0.0393 -0.2884
  120DOPC   GL2 1432  23.678   1.454  15.867 -0.3778 -0.2634 -0.4021
  120DOPC   C1A 1433  23.686   1.418  16.478  0.1878  0.1134 -0.0675
  120DOPC   D2A 1434  23.858   1.484  16.965  0.2401 -0.3843  0.1564
  120DOPC   C3A 1435  24.245   1.242  16.911 -0.2339 -0.0671 -0.2479
  120DOPC   C4A 1436  24.720   1.148  17.121  0.1204  0.1334 -0.1095
  120DOPC   C1B 1437  23.881   1.745  16.102 -0.2194 -0.4297  0.1188
  120DOPC   D2B 1438  24.300   1.878  16.193 -0.4398  0.1970 -0.2594
  120DOPC   C3B 1439  24.714   1.789  16.317  0.1333 -0.2686  0.1108
  120DOPC   C4B 1440  25.193   1.718  16.385 -0.2395  0.2656 -0.0683
  121DOPC   NC3 1441  24.597   5.876  13.801  0.0351  0.0687  0.1010
  121DOPC   PO4 1442  24.679   5.849  14.192 -0.1332 -0.1459  0.1162
  121DOPC   GL1 1443  24.936   5.896  14.451 -0.0753  0.2485 -0.2612
  121DOPC   GL2 1444  24.919   5.696  14.649 -0.0087 -0.1082  0.2651
  121DOPC   C1A 1445  25.430   5.957  14.485  0.2305 -0.0984  0.1318
  121DOPC   D2A 1446  25.895   6.031  14.387  0.1738 -0.0204 -0.0261
  121DOPC   C3A 1447  26.351   6.113  14.537 -0.0470 -0.1232  0.2287
  121DOPC   C4A 1448  26.775   6.148  14.823 -0.0800  0.2568  0.2178
  121DOPC   C1B 1449  25.291   5.566  14.841  0.1867 -0.0557  0.0982
  121DOPC   D2B 1450  25.659   5.513  15.204 -0.3400 -0.0141 -0.1701
  121DOPC   C3B 1451  26.113   5.368  15.255  0.0680  0.1366  0.0188
  121DOPC   C4B 1452  26.576   5.255  15.378 -0.1612  0.1265  0.0843
  122DOPC   NC3 1453   8.581   5.380  10.303  0.2145 -0.0665  0.1170
  122DOPC   PO4 1454   8.440   5.035  10.293 -0.0705 -0.2015  0.1232
  122DOPC   GL1 1455   8.237   5.082  10.755 -0.0655 -0.0158 -0.2935
  122DOPC   GL2 1456   8.198   5.372  10.719  0.0915 -0.0094 -0.2967
  122DOPC   C1A 1457   8.495   4.896  11.061 -0.0955  0.1616  0.4833
  122DOPC   D2A 1458   8.656   4.971  11.501  0.1826  0.3098 -0.0994
  122DOPC   C3A 1459   8.627   4.969  11.978 -0.0722 -0.3400 -0.0082
  122DOPC   C4A 1460   8.567   4.870  12.434 -0.2009  0.0455  0.0979
  122DOPC   C1B 1461   7.953   5.339  11.050 -0.1088  0.1006  0.1584
  122DOPC   D2B 1462   7.716   5.419  11.433 -0.0637 -0.3987 -0.0444
  122DOPC   C3B 1463   7.863   5.587  11.827  0.2831  0.2299 -0.2316
  122DOPC   C4B 1464   8.021   5.925  12.093 -0.1530 -0.0741 -0.1300
  123DOPC   NC3 1465  12.446   5.839  11.827  0.1182  0.3668  0.0104
  123DOPC   PO4 1466  12.305   5.569  12.114  0.0907 -0.0163  0.2094
  123DOPC   GL1 1467  12.120   5.609  12.523  0.0017 -0.0285  0.2179
  123DOPC   GL2 1468  12.133   5.925  12.408 -0.1451  0.0212  0.1925
  123DOPC   C1A 1469  11.778   5.549  12.705  0.2067  0.2608  0.0446
  123DOPC   D2A 1470  11.423   5.461  13.083  0.0621 -0.0573 -0.0235
  123DOPC   C3A 1471  11.020   5.469  13.320 -0.0568 -0.1148  0.0784
  123DOPC   C4A 1472  10.624   5.583  13.608  0.2400  0.3298  0.1667
  123DOPC   C1B 1473  11.914   6.056  12.745  0.0078 -0.0801 -0.1928
  123DOPC   D2B 1474  11.636   6.283  13.152  0.0543 -0.2040  0.2398
  123DOPC   C3B 1475  11.410   6.247  13.484 -0.0558  0.2623  0.0015
  123DOPC   C4B 1476  11.029   6.036  13.710  0.0715  0.1751  0.0449
  124DOPC   NC3 1477  20.607   0.071  17.956 -0.1050  0.0461  0.0120
  124DOPC   PO4 1478  20.729   0.403  18.128 -0.0458 -0.1184 -0.0140
  124DOPC   GL1 1479  20.670   0.580  18.500  0.0604  0.3738 -0.1033
  124DOPC   GL2 1480  20.468   0.550  18.555 -0.0404  0.0976  0.1252
  124DOPC   C1A 1481  20.889   0.457  18.851 -0.1212 -0.1550  0.2472
  124DOPC   D2A 1482  21.142   0.295  19.258  0.1041  0.0155 -0.0100
  124DOPC   C3A 1483  21.401   0.398  19.661  0.0658  0.1042  0.5128
  124DOPC   C4A 1484  21.356   0.124  20.043  0.0993 -0.2610 -0.3001
  124DOPC   C1B 1485  20.387   0.484  18.972 -0.2743 -0.0826 -0.0342
  124DOPC   D2B 1486  20.648   0.302  19.387 -0.0579  0.0115  0.2803
  124DOPC   C3B 1487  20.891   0.305  19.826 -0.1067 -0.3334  0.0986
  124DOPC   C4B 1488  21.198   0.603  20.118 -0.0632 -0.1017  0.0058
  125DOPC   NC3 1489  20.443   4.143  17.489  0.3597 -0.2759 -0.0484
  125DOPC   PO4 1490  20.732   4.419  17.577 -0.2890 -0.0165 -0.0159
  125DOPC   GL1 1491  21.014   4.466  17.864 -0.1437 -0.3083  0.3343
  125DOPC   GL2 1492  21.090   4.758  17.813 -0.1469 -0.1268 -0.1185
  125DOPC   C1A 1493  21.041   4.531  18.319 -0.0866  0.0692  0.2641
  125DOPC   D2A 1494  21.035   4.356  18.807  0.0194  0.2875 -0.1778
  125DOPC   C3A 1495  20.707   4.048  18.977  0.1653  0.0001 -0.0705
  125DOPC   C4A 1496  20.414   3.702  19.212  0.1473 -0.3020 -0.1651
  125DOPC   C1B 1497  21.474   4.666  17.892 -0.9051  0.2380 -0.1755
  125DOPC   D2B 1498  21.881   4.515  18.078  0.1959  0.0181 -0.1057
  125DOPC   C3B 1499  22.004   4.461  18.539 -0.1935 -0.0174 -0.2383
  125DOPC   C4B 1500  22.091   4.055  18.870 -0.0831  0.0181  0.2384
  126DOPC   NC3 1501  13.132   5.473  13.222  0.0604  0.0489 -0.0889
  126DOPC   PO4 1502  13.281   5.450  13.582  0.0493 -0.1877 -0.0512
  126DOPC   GL1 1503  13.114   5.475  13.996  0.2901  0.1442  0.2279
  126DOPC   GL2 1504  13.003   5.287  13.889  0.0991  0.1635  0.1888
  126DOPC   C1A 1505  12.804   5.537  14.240  0.1727 -0.0016  0.0774
  126DOPC   D2A 1506  12.397   5.634  14.538  0.1544 -0.2020  0.0330
  126DOPC   C3A 1507  12.089   5.345  14.289  0.0433 -0.1580 -0.1666
  126DOPC   C4A 1508  12.029   4.828  14.257 -0.2011 -0.0180  0.1578
  126DOPC   C1B 1509  12.652   5.351  13.643  0.0504  0.2069 -0.0804
  126DOPC   D2B 1510  12.242   5.433  13.413  0.0573  0.0948  0.0718
  126DOPC   C3B 1511  11.967   5.561  13.763 -0.1667  0.0683  0.2079
  126DOPC   C4B 1512  11.632   5.581  14.163 -0.1278  0.0553  0.0900
  127DOPC   NC3 1513  10.326   0.037  10.421 -0.3334  0.0069 -0.0721
  127DOPC   PO4 1514  10.183   0.408  10.589  0.4103  0.1877 -0.1262
  127DOPC   GL1 1515   9.902   0.483  10.860 -0.2563  0.1147  0.2245
  127DOPC   GL2 1516   9.687   0.352  10.754  0.0599 -0.0481 -0.1110
  127DOPC   C1A 1517   9.973   0.608  11.304 -0.1360 -0.1972  0.0155
  127DOPC   D2A 1518  10.217   0.508  11.652 -0.1539  0.2083 -0.2861
  127DOPC   C3A 1519  10.263   0.119  11.871 -0.2226  0.1577 -0.0631
  127DOPC   C4A 1520  10.044  -0.260  12.148  0.0707 -0.0477  0.1121
  127DOPC   C1B 1521   9.495   0.742  10.763  0.1077 -0.0571  0.0618
  127DOPC   D2B 1522   9.213   1.196  10.948  0.1060  0.0309 -0.1331
  127DOPC   C3B 1523   9.044   1.485  11.256 -0.0602  0.0285 -0.0800
  127DOPC   C4B 1524   9.059   1.754  11.661  0.2113  0.0661 -0.0034
  128DOPC   NC3 1525  19.002   7.288  18.731 -0.0022 -0.1062  0.1557
  128DOPC   PO4 1526  19.361   7.428  18.826 -0.1129  0.1932  0.3795
  128DOPC   GL1 1527  19.405   7.414  19.190 -0.1099 -0.3313  0.0112
  128DOPC   GL2 1528  19.440   7.733  19.297  0.0131  0.0481 -0.3333
  128DOPC   C1A 1529  19.467   7.114  19.485  0.3007  0.2260  0.0781
  128DOPC   D2A 1530  19.523   6.756  19.845 -0.2457  0.4686  0.0778
  128DOPC   C3A 1531  19.603   6.301  19.679 -0.2880  0.1524 -0.0233
  128DOPC   C4A 1532  19.481   5.840  19.618  0.1079  0.0707  0.1148
  128DOPC   C1B 1533  19.372   7.576  19.639 -0.0264 -0.0500 -0.1960
  128DOPC   D2B 1534  19.085   7.195  19.855  0.0232  0.3018  0.2075
  128DOPC   C3B 1535  19.064   6.861  20.146 -0.2109 -0.0669  0.0295
  128DOPC   C4B 1536  19.275   6.402  20.247  0.1804  0.1814  0.0283
  129DOPC   NC3 1537   9.013   2.742   9.860  0.1137 -0.1013 -0.2066
  129DOPC   PO4 1538   9.116   2.449  10.104  0.3122  0.0552 -0.0873
  129DOPC   GL1 1539   8.873   2.411  10.509  0.2350 -0.2197  0.1165
  129DOPC   GL2 1540   8.958   2.771  10.440  0.0108  0.0439 -0.2667
  129DOPC   C1A 1541   8.890   2.192  10.897  0.1601 -0.1330 -0.0993
  129DOPC   D2A 1542   8.762   1.922  11.298  0.3298  0.0255  0.3011
  129DOPC   C3A 1543   8.646   1.993  11.735  0.0222 -0.3768 -0.2701
  129DOPC   C4A 1544   8.315   2.146  12.148  0.0189  0.4655  0.0990
  129DOPC   C1B 1545   9.128   2.968  10.858  0.1745 -0.3290 -0.1974
  129DOPC   D2B 1546   9.050   3.323  11.199 -0.0061  0.1605 -0.0372
  129DOPC   C3B 1547   8.894   3.607  11.558 -0.1647  0.1223  0.0459
  129DOPC   C4B 1548   8.671   3.797  11.988 -0.2080 -0.2858  0.0967
  130DOPC   NC3 1549  23.080   3.624  15.478  0.0509 -0.1397  0.0299
  130DOPC   PO4 1550  23.373   3.858  15.285 -0.0064 -0.1388 -0.0151
  130DOPC   GL1 1551  23.738   3.820  15.367 -0.0966 -0.1409 -0.1378
  130DOPC   GL2 1552  23.808   4.054  15.527  0.1255  0.1899 -0.2827
  130DOPC   C1A 1553  24.065   3.627  15.623  0.0471  0.1946  0.1116
  130DOPC   D2A 1554  24.526   3.645  15.838  0.1082 -0.4027  0.1898
  130DOPC   C3A 1555  24.799   3.747  16.158  0.0530 -0.2170 -0.2703
  130DOPC   C4A 1556  24.898   3.710  16.610  0.1563  0.2009 -0.2109
  130DOPC   C1B 1557  24.174   4.115  15.831 -0.1083  0.1137  0.2501
  130DOPC   D2B 1558  24.597   4.262  15.946  0.0099  0.1532  0.3281
  130DOPC   C3B 1559  24.852   4.564  16.171 -0.5095 -0.0885  0.2394
  130DOPC   C4B 1560  25.108   4.699  16.513  0.1079 -0.2478 -0.0516
  131DOPC   NC3 1561  22.322   3.177  16.689 -0.0358 -0.0280 -0.0343
  131DOPC   PO4 1562  22.468   2.860  16.452  0.0178  0.1056 -0.1752
  131DOPC   GL1 1563  22.607   2.773  16.808 -0.1026 -0.0761 -0.2770
  131DOPC   GL2 1564  22.767   2.439  16.775 -0.3705 -0.0469  0.2537
  131DOPC   C1A 1565  22.776   3.093  17.050 -0.0485  0.1550 -0.0008
  131DOPC   D2A 1566  22.917   3.405  17.388  0.0451  0.2153 -0.0481
  131DOPC   C3A 1567  23.195   3.287  17.731 -0.2256  0.0141  0.3168
  131DOPC   C4A 1568  23.473   3.163  18.172  0.0279 -0.0547  0.1085
  131DOPC   C1B 1569  23.073   2.619  17.046  0.3436  0.2322  0.3800
  131DOPC   D2B 1570  23.457   2.493  17.260 -0.2079 -0.2266 -0.0491
  131DOPC   C3B 1571  23.818   2.850  17.302 -0.3937 -0.3206  0.1910
  131DOPC   C4B 1572  24.090   3.247  17.118 -0.0917 -0.2619  0.0327
  132DOPC   NC3 1573  14.212   6.978  15.462 -0.0801  0.2112 -0.0611
  132DOPC   PO4 1574  14.209   7.110  15.092  0.0667  0.1787 -0.4386
  132DOPC   GL1 1575  13.735   7.243  15.056  0.1067 -0.0211 -0.0502
  132DOPC   GL2 1576  13.822   7.200  15.374 -0.1546  0.1410  0.2166
  132DOPC   C1A 1577  13.293   7.319  14.826  0.0871  0.1223 -0.1536
  132DOPC   D2A 1578  12.785   7.389  14.826 -0.0726  0.0181 -0.5600
  132DOPC   C3A 1579  12.418   7.527  15.094  0.0724  0.1302  0.3088
  132DOPC   C4A 1580  12.132   7.523  15.465 -0.3693 -0.1029 -0.0279
  132DOPC   C1B 1581  13.755   7.422  15.772 -0.4397  0.4780  0.0159
  132DOPC   D2B 1582  14.019   7.365  16.154 -0.0761  0.1825  0.0486
  132DOPC   C3B 1583  13.780   7.520  16.559 -0.2594 -0.2736  0.1360
  132DOPC   C4B 1584  13.508   7.638  16.892  0.5149 -0.0465 -0.1407
  133DOPC   NC3 1585  17.256   7.748  16.991  0.1990  0.0784  0.1202
  133DOPC   PO4 1586  16.908   7.658  17.204  0.0343  0.4290  0.0769
  133DOPC   GL1 1587  16.806   7.696  17.652 -0.0940  0.0201  0.0996
  133DOPC   GL2 1588  16.730   8.026  17.637 -0.2445 -0.3167  0.5765
  133DOPC   C1A 1589  16.424   7.608  17.840 -0.0810  0.1297  0.0071
  133DOPC   D2A 1590  16.078   7.724  18.147 -0.3079  0.0301 -0.5827
  133DOPC   C3A 1591  15.703   7.566  18.375 -0.0641 -0.1333  0.0469
  133DOPC   C4A 1592  15.305   7.658  18.634 -0.2359 -0.1760 -0.1999
  133DOPC   C1B 1593  16.308   8.163  17.813  0.1979  0.3083  0.1269
  133DOPC   D2B 1594  16.116   8.227  18.229  0.3396  0.2544  0.2193
  133DOPC   C3B 1595  15.686   8.327  18.480  0.4865 -0.0882 -0.1351
  133DOPC   C4B 1596  15.291   8.200  18.638  0.0370  0.0185 -0.1067
  134DOPC   NC3 1597  19.370   2.856  18.090 -0.1152 -0.1025  0.1920
  134DOPC   PO4 1598  19.718   2.778  18.203 -0.0653  0.2862 -0.2860
  134DOPC   GL1 1599  19.699   2.607  18.550 -0.2690 -0.3310  0.1033
  134DOPC   GL2 1600  19.989   2.620  18.586 -0.2859  0.0870 -0.0102
  134DOPC   C1A 1601  19.495   2.548  18.936  0.1828  0.3486 -0.2930
  134DOPC   D2A 1602  19.284   2.751  19.403 -0.2676  0.0140  0.2814
  134DOPC   C3A 1603  19.228   2.581  19.879 -0.2035  0.0651  0.2571
  134DOPC   C4A 1604  19.164   2.281  20.170  0.0291 -0.0268  0.0114
  134DOPC   C1B 1605  20.026   2.508  18.971  0.1104  0.2004 -0.0586
  134DOPC   D2B 1606  20.174   2.329  19.434  0.1516  0.0421 -0.0717
  134DOPC   C3B 1607  20.275   2.647  19.773 -0.0655 -0.3280  0.2375
  134DOPC   C4B 1608  20.330   2.694  20.266 -0.0855  0.1020  0.1794
  135DOPC   NC3 1609  10.839   6.797  11.281 -0.0088 -0.3644 -0.2485
  135DOPC   PO4 1610  11.144   7.053  11.337 -0.1177  0.1506  0.1591
  135DOPC   GL1 1611  11.206   6.944  11.745 -0.4385 -0.2290 -0.1935
  135DOPC   GL2 1612  11.135   6.676  11.789 -0.0855 -0.4750 -0.4068
  135DOPC   C1A 1613  11.168   7.316  12.055  0.1085  0.2545 -0.3080
  135DOPC   D2A 1614  11.111   7.777  12.350  0.2962 -0.2226  0.0992
  135DOPC   C3A 1615  10.686   7.892  12.517 -0.0339  0.2524 -0.0609
  135DOPC   C4A 1616  10.213   8.103  12.534  0.0582  0.0369  0.0118
  135DOPC   C1B 1617  10.734   6.658  12.058  0.3522 -0.0825  0.0449
  135DOPC   D2B 1618  10.467   6.835  12.366 -0.0056  0.0653 -0.0579
  135DOPC   C3B 1619  10.131   7.155  12.430 -0.1370  0.1190  0.1705
  135DOPC   C4B 1620  10.088   7.524  12.732 -0.3891 -0.1441  0.0481
  136DOPC   NC3 1621  19.470   6.330  18.700  0.1997 -0.1088 -0.3283
  136DOPC   PO4 1622  19.161   6.535  18.852  0.0219 -0.1758 -0.0263
  136DOPC   GL1 1623  19.468   6.769  19.124 -0.0777  0.1255  0.0275
  136DOPC   GL2 1624  19.349   6.618  19.368 -0.2121  0.1544  0.0830
  136DOPC   C1A 1625  19.867   6.832  19.436 -0.2314 -0.3204 -0.1582
  136DOPC   D2A 1626  20.389   6.720  19.538 -0.2546  0.0404  0.0706
  136DOPC   C3A 1627  20.410   6.706  20.044  0.3681  0.0882 -0.0827
  136DOPC   C4A 1628  20.537   6.856  20.520  0.2697 -0.0738  0.1876
  136DOPC   C1B 1629  19.057   6.799  19.626  0.0628  0.2923 -0.0732
  136DOPC   D2B 1630  18.651   6.855  19.923  0.4268  0.1461  0.2261
  136DOPC   C3B 1631  18.366   6.799  20.269 -0.0399 -0.1141 -0.1102
  136DOPC   C4B 1632  18.174   6.800  20.666  0.1636 -0.0392 -0.3526
  137DOPC   NC3 1633  11.565   2.562  11.595 -0.0113 -0.1461 -0.0747
  137DOPC   PO4 1634  11.454   2.893  11.406 -0.0271  0.1672 -0.1359
  137DOPC   GL1 1635  11.230   2.820  11.781 -0.0631  0.1395 -0.2293
  137DOPC   GL2 1636  11.237   3.124  11.801  0.1211 -0.0976  0.3242
  137DOPC   C1A 1637  11.409   2.693  12.152 -0.0694 -0.0585 -0.0725
  137DOPC   D2A 1638  11.804   2.823  12.419  0.0198 -0.0191  0.1352
  137DOPC   C3A 1639  11.689   2.675  12.926 -0.1246 -0.1097  0.0841
  137DOPC   C4A 1640  11.327   2.634  13.331 -0.1646 -0.0554 -0.0223
  137DOPC   C1B 1641  10.803   3.140  11.729 -0.0738  0.1614  0.0599
  137DOPC   D2B 1642  10.326   3.246  11.815 -0.1153 -0.4163 -0.3340
  137DOPC   C3B 1643  10.116   3.201  12.187  0.0149  0.1550 -0.2091
  137DOPC   C4B 1644   9.930   3.021  12.602 -0.0408 -0.3298 -0.1433
  138DOPC   NC3 1645  10.061   7.184  11.399  0.2460 -0.4608  0.1134
  138DOPC   PO4 1646  10.417   7.024  11.440  0.1900  0.0451  0.1173
  138DOPC   GL1 1647  10.379   6.913  11.844  0.2561  0.3362  0.2095
  138DOPC   GL2 1648  10.369   7.216  11.879 -0.2810  0.2143 -0.0339
  138DOPC   C1A 1649  10.181   6.678  12.027  0.1703 -0.0182 -0.0270
  138DOPC   D2A 1650   9.677   6.680  12.031  0.0440 -0.1641 -0.0242
  138DOPC   C3A 1651   9.445   7.015  12.258 -0.1289  0.2595 -0.0825
  138DOPC   C4A 1652   9.165   7.387  12.408 -0.2061 -0.0629 -0.2138
  138DOPC   C1B 1653   9.916   7.131  11.944 -0.3480  0.3247 -0.1258
  138DOPC   D2B 1654   9.461   7.018  11.707 -0.1839 -0.2740 -0.2056
  138DOPC   C3B 1655   9.146   6.719  11.892 -0.1259 -0.0339  0.1295
  138DOPC   C4B 1656   8.818   6.552  12.217 -0.0929  0.2845  0.0796
  139DOPC   NC3 1657  13.526   1.362  13.733 -0.2496  0.0436 -0.2490
  139DOPC   PO4 1658  13.290   1.579  13.501  0.1224 -0.2107 -0.2194
  139DOPC   GL1 1659  12.954   1.338  13.681 -0.1084  0.0244  0.0802
  139DOPC   GL2 1660  13.130   1.146  13.707 -0.0626  0.2071 -0.2320
  139DOPC   C1A 1661  12.629   1.213  13.964  0.3247  0.1014  0.0684
  139DOPC   D2A 1662  12.630   0.750  14.184  0.0997  0.0271 -0.1137
  139DOPC   C3A 1663  12.160   0.676  14.266  0.0375 -0.0304  0.0469
  139DOPC   C4A 1664  11.726   0.466  14.265  0.2376 -0.0399  0.3803
  139DOPC   C1B 1665  13.046   1.069  14.203  0.3448 -0.3039  0.0407
  139DOPC   D2B 1666  12.795   1.244  14.619 -0.2216  0.1093 -0.0712
  139DOPC   C3B 1667  12.388   1.127  14.434  0.2256  0.0108 -0.0309
  139DOPC   C4B 1668  11.952   1.120  14.651 -0.1570 -0.0338  0.2240
  140DOPC   NC3 1669  15.033   1.026  14.857 -0.2050 -0.0725  0.0432
  140DOPC   PO4 1670  14.910   0.809  15.214 -0.1106 -0.2942 -0.1953
  140DOPC   GL1 1671  14.722   0.869  15.674 -0.1442 -0.1636  0.1306
  140DOPC   GL2 1672  14.631   1.164  15.606  0.0539  0.1160 -0.5099
  140DOPC   C1A 1673  14.612   0.625  16.026 -0.1694  0.3360  0.2236
  140DOPC   D2A 1674  14.280   0.784  16.408 -0.3336  0.0608 -0.0429
  140DOPC   C3A 1675  13.956   0.392  16.413 -0.0817 -0.0062 -0.0952
  140DOPC   C4A 1676  13.578   0.145  16.553  0.3301 -0.1613 -0.0326
  140DOPC   C1B 1677  14.289   1.072  15.831 -0.0602  0.3054 -0.3665
  140DOPC   D2B 1678  13.958   1.002  16.163  0.1971  0.2823  0.0300
  140DOPC   C3B 1679  13.492   1.024  16.359  0.1575  0.0062 -0.2153
  140DOPC   C4B 1680  13.040   0.946  16.505  0.1214 -0.0563 -0.1146
  141DOPC   NC3 1681  21.974   0.887  17.057  0.2698 -0.2192  0.1384
  141DOPC   PO4 1682  22.084   0.533  16.980  0.0788  0.0085 -0.0891
  141DOPC   GL1 1683  22.321   0.381  17.253  0.2247  0.0147 -0.1059
  141DOPC   GL2 1684  22.535   0.231  17.119 -0.4497 -0.0942 -0.3079
  141DOPC   C1A 1685  22.292   0.400  17.667  0.1760 -0.2355  0.2188
  141DOPC   D2A 1686  22.352   0.471  18.188  0.0285  0.0055 -0.4590
  141DOPC   C3A 1687  22.697   0.406  18.465 -0.1623 -0.0520 -0.0499
  141DOPC   C4A 1688  23.103   0.478  18.834  0.2876 -0.0996 -0.2396
  141DOPC   C1B 1689  22.957   0.198  17.267 -0.1711 -0.2162 -0.1115
  141DOPC   D2B 1690  23.352   0.479  17.389 -0.0018  0.0878 -0.0952
  141DOPC   C3B 1691  23.614   0.666  17.014 -0.2462  0.2488  0.3220
  141DOPC   C4B 1692  23.850   1.028  16.741  0.1439 -0.0761  0.4172
  142DOPC   NC3 1693  15.461   2.276  16.556  0.1282  0.1857 -0.0541
  142DOPC   PO4 1694  15.709   1.962  16.574 -0.1617 -0.0548  0.0761
  142DOPC   GL1 1695  15.464   1.632  16.727  0.0956 -0.3752  0.5502
  142DOPC   GL2 1696  15.251   1.792  16.531 -0.2350 -0.1038 -0.2429
  142DOPC   C1A 1697  15.357   1.347  17.102 -0.2055  0.1559  0.0351
  142DOPC   D2A 1698  15.202   1.323  17.585 -0.2233  0.1108 -0.1626
  142DOPC   C3A 1699  14.949   1.121  17.900 -0.0078 -0.0713  0.0020
  142DOPC   C4A 1700  14.791   0.818  18.295  0.0568  0.2412 -0.0131
  142DOPC   C1B 1701  14.994   1.529  16.732  0.1612 -0.2192 -0.1314
  142DOPC   D2B 1702  14.786   1.329  17.130  0.0732  0.0169 -0.3438
  142DOPC   C3B 1703  14.620   1.432  17.518 -0.0427 -0.2093  0.0164
  142DOPC   C4B 1704  14.621   1.643  17.890  0.0952 -0.2885  0.0984
  143DOPC   NC3 1705   2.523   0.046  11.242  0.5865  0.0973 -0.2585
  143DOPC   PO4 1706   2.718  -0.285  11.396 -0.2170 -0.2060  0.1792
  143DOPC   GL1 1707   2.869  -0.296  11.770  0.0800  0.2687  0.2822
  143DOPC   GL2 1708   2.573  -0.551  11.822  0.0104 -0.2049  0.0843
  143DOPC   C1A 1709   3.253  -0.533  11.933  0.2961 -0.2866 -0.4141
  143DOPC   D2A 1710   3.492  -0.767  12.373 -0.1484  0.4970 -0.3418
  143DOPC   C3A 1711   3.082  -0.916  12.533  0.1139 -0.1222  0.0829
  143DOPC   C4A 1712   3.005  -0.988  13.051 -0.1835  0.0015  0.3509
  143DOPC   C1B 1713   2.482  -0.195  12.132 -0.3589  0.1000 -0.1677
  143DOPC   D2B 1714   2.589  -0.077  12.633 -0.2624  0.4163 -0.0894
  143DOPC   C3B 1715   3.112  -0.061  12.782 -0.2415 -0.0970 -0.3174
  143DOPC   C4B 1716   3.535  -0.013  12.998 -0.1093  0.1121  0.0657
  144DOPC   NC3 1717   8.586   0.271   9.938 -0.1614 -0.3853  0.4776
  144DOPC   PO4 1718   8.548  -0.043  10.202  0.2287 -0.0004  0.2558
  144DOPC   GL1 1719   8.479   0.033  10.616  0.2021 -0.2777 -0.1884
  144DOPC   GL2 1720   8.712   0.174  10.690  0.3094 -0.0473 -0.1467
  144DOPC   C1A 1721   8.207  -0.038  10.917 -0.2861 -0.1069  0.2607
  144DOPC   D2A 1722   7.831   0.195  11.232 -0.2041 -0.0815  0.1178
  144DOPC   C3A 1723   7.705   0.273  11.666  0.0148  0.1732 -0.0537
  144DOPC   C4A 1724   7.450   0.085  12.063  0.3082  0.1363  0.2410
  144DOPC   C1B 1725   8.653   0.158  11.095 -0.0300 -0.1489 -0.0657
  144DOPC   D2B 1726   8.800   0.085  11.549  0.4220 -0.0765 -0.3244
  144DOPC   C3B 1727   8.841   0.214  11.983 -0.0814 -0.2970 -0.0889
  144DOPC   C4B 1728   8.930   0.494  12.319 -0.0110 -0.0115  0.1138
  145DOPC   NC3 1729  18.011   5.401  18.371  0.3073  0.1875  0.1565
  145DOPC   PO4 1730  18.306   5.134  18.385 -0.2781  0.1426  0.1581
  145DOPC   GL1 1731  18.396   5.115  18.805  0.1652 -0.2297 -0.0415
  145DOPC   GL2 1732  18.058   5.161  18.889 -0.1912  0.1168 -0.0232
  145DOPC   C1A 1733  18.543   5.379  19.079 -0.1450  0.2578 -0.0256
  145DOPC   D2A 1734  18.682   5.518  19.535 -0.1776 -0.0273 -0.1917
  145DOPC   C3A 1735  18.651   5.570  19.996  0.2138 -0.1587 -0.0697
  145DOPC   C4A 1736  19.054   5.412  20.212 -0.1592  0.2331 -0.0978
  145DOPC   C1B 1737  17.754   4.926  19.106  0.1764 -0.3917 -0.0921
  145DOPC   D2B 1738  17.524   4.716  19.568  0.0502  0.0331  0.1268
  145DOPC   C3B 1739  17.534   4.892  19.998 -0.5001 -0.1650 -0.0493
  145DOPC   C4B 1740  17.694   5.144  20.350  0.2426  0.2494  0.0947
  146DOPC   NC3 1741  23.825   0.687  14.228 -0.0791 -0.1392  0.0955
  146DOPC   PO4 1742  23.846   0.565  14.637 -0.0715 -0.0527 -0.0854
  146DOPC   GL1 1743  24.071   0.790  14.981 -0.0796  0.2315  0.2382
  146DOPC   GL2 1744  24.293   0.758  14.849 -0.1254  0.0237 -0.1339
  146DOPC   C1A 1745  24.096   0.890  15.397  0.3308 -0.3972 -0.1051
  146DOPC   D2A 1746  23.829   1.029  15.809  0.0303 -0.2797 -0.1424
  146DOPC   C3A 1747  24.050   1.287  16.086 -0.0655 -0.1317  0.0067
  146DOPC   C4A 1748  24.181   1.521  16.506 -0.0775  0.4918  0.2864
  146DOPC   C1B 1749  24.730   0.662  14.979 -0.2064  0.0442 -0.1961
  146DOPC   D2B 1750  25.211   0.531  15.048  0.1998  0.0588  0.0740
  146DOPC   C3B 1751  25.604   0.489  15.264 -0.3890 -0.0041 -0.3133
  146DOPC   C4B 1752  26.053   0.404  15.359  0.0130  0.1268 -0.2851
  147DOPC   NC3 1753  23.034   3.431  16.162  0.0778  0.1140  0.1444
  147DOPC   PO4 1754  23.181   3.268  15.877  0.4264  0.1060  0.0028
  147DOPC   GL1 1755  23.554   3.241  16.012  0.2548 -0.0909 -0.0319
  147DOPC   GL2 1756  23.514   3.539  16.207 -0.1737 -0.1117 -0.1211
  147DOPC   C1A 1757  23.905   2.978  16.115 -0.0612 -0.1891 -0.3033
  147DOPC   D2A 1758  24.269   2.692  16.316 -0.0573  0.0922  0.2555
  147DOPC   C3A 1759  24.721   2.730  16.506 -0.0876 -0.1023  0.2115
  147DOPC   C4A 1760  25.183   2.787  16.713 -0.0787  0.0746 -0.1136
  147DOPC   C1B 1761  23.412   3.501  16.619  0.0186 -0.1005  0.2084
  147DOPC   D2B 1762  23.606   3.502  17.090 -0.1529  0.2888  0.1642
  147DOPC   C3B 1763  23.729   3.269  17.534  0.0378  0.1147  0.2511
  147DOPC   C4B 1764  23.933   3.025  17.881 -0.2822  0.1829 -0.2815
  148DOPC   NC3 1765   5.505   0.592  10.182 -0.0533 -0.1377  0.0379
  148DOPC   PO4 1766   5.790   0.837  10.283  0.0596  0.0135  0.1684
  148DOPC   GL1 1767   5.818   0.615  10.619 -0.2721  0.3103  0.1370
  148DOPC   GL2 1768   5.921   0.426  10.440  0.0782 -0.4405  0.3010
  148DOPC   C1A 1769   6.061   0.661  10.972  0.1167  0.0620 -0.2799
  148DOPC   D2A 1770   6.429   0.743  11.260  0.2165 -0.1721  0.0607
  148DOPC   C3A 1771   6.572   1.017  11.632 -0.1065  0.1709  0.3688
  148DOPC   C4A 1772   6.771   1.393  12.008 -0.1772  0.4147 -0.0857
  148DOPC   C1B 1773   5.801   0.047  10.654  0.2804 -0.4179  0.0276
  148DOPC   D2B 1774   5.709  -0.260  11.066 -0.1940 -0.2570  0.2224
  148DOPC   C3B 1775   5.817  -0.338  11.505 -0.3052  0.2649  0.0033
  148DOPC   C4B 1776   5.932  -0.450  11.980  0.2284  0.0634 -0.1890
  149DOPC   NC3 1777  15.119   6.544  15.706  0.0208 -0.0378 -0.0857
  149DOPC   PO4 1778  15.256   6.859  15.852 -0.1144  0.2444 -0.2339
  149DOPC   GL1 1779  14.940   6.813  16.060 -0.1144 -0.0074 -0.0841
  149DOPC   GL2 1780  14.981   6.532  16.188  0.0663 -0.0694 -0.1555
  149DOPC   C1A 1781  14.748   7.012  16.224  0.2437  0.0149  0.2065
  149DOPC   D2A 1782  14.563   7.270  16.592 -0.0007  0.1762 -0.0646
  149DOPC   C3A 1783  14.192   7.322  16.835  0.0642 -0.1404  0.0021
  149DOPC   C4A 1784  13.794   7.243  17.077  0.2815 -0.0821 -0.1286
  149DOPC   C1B 1785  14.679   6.422  16.536  0.3008  0.1392 -0.0758
  149DOPC   D2B 1786  14.205   6.308  16.818 -0.0638  0.0799  0.0777
  149DOPC   C3B 1787  14.185   6.506  17.224  0.2818  0.1172 -0.1389
  149DOPC   C4B 1788  14.017   6.343  17.672  0.0174 -0.0282  0.1870
  150DOPC   NC3 1789  22.507   4.601  16.835  0.0329  0.0163 -0.0813
  150DOPC   PO4 1790  22.298   4.317  16.725  0.0735  0.0153 -0.0403
  150DOPC   GL1 1791  22.336   4.050  17.005  0.1919 -0.2211 -0.2401
  150DOPC   GL2 1792  22.280   4.307  17.226 -0.2583  0.0890 -0.4194
  150DOPC   C1A 1793  22.745   4.030  17.022 -0.2882  0.1769  0.1317
  150DOPC   D2A 1794  23.130   4.294  17.194 -0.2462  0.0877 -0.0985
  150DOPC   C3A 1795  23.530   4.275  17.356  0.2252  0.1312  0.2875
  150DOPC   C4A 1796  23.942   4.319  17.634  0.2444 -0.1135  0.1249
  150DOPC   C1B 1797  22.574   4.429  17.457 -0.0834  0.2643 -0.2409
  150DOPC   D2B 1798  23.023   4.526  17.641  0.2471 -0.2394 -0.1658
  150DOPC   C3B 1799  23.305   4.607  18.029 -0.1151  0.1510 -0.1624
  150DOPC   C4B 1800  23.461   4.426  18.496  0.0079  0.1457  0.0224
  151DOPC   NC3 1801  14.966   2.607  14.867  0.0627  0.3980  0.2472
  151DOPC   PO4 1802  14.995   2.276  15.115 -0.1673  0.2057 -0.1589
  151DOPC   GL1 1803  14.668   2.129  15.446 -0.1876 -0.3486  0.1530
  151DOPC   GL2 1804  14.743   2.390  15.520 -0.0286  0.0781 -0.4464
  151DOPC   C1A 1805  14.591   1.997  15.900  0.0480 -0.1247  0.1278
  151DOPC   D2A 1806  14.231   1.836  16.134  0.0311  0.2667 -0.1017
  151DOPC   C3A 1807  13.948   1.897  16.446  0.0498  0.3124  0.1420
  151DOPC   C4A 1808  13.761   2.270  16.668  0.0094 -0.0497 -0.1295
  151DOPC   C1B 1809  14.355   2.409  15.743 -0.1751 -0.0751 -0.0319
  151DOPC   D2B 1810  13.860   2.413  15.743 -0.0546  0.0235 -0.0481
  151DOPC   C3B 1811  13.523   2.773  15.906  0.0359  0.2072 -0.0053
  151DOPC   C4B 1812  13.306   3.126  16.135  0.3653  0.0500 -0.0045
  152DOPC   NC3 1813   0.382   0.517  12.473 -0.1654  0.0833 -0.3686
  152DOPC   PO4 1814   0.578   0.286  12.752 -0.0013 -0.1191  0.0171
  152DOPC   GL1 1815   0.713   0.326  13.141 -0.2724  0.2763  0.0639
  152DOPC   GL2 1816   0.927   0.125  13.035  0.0841 -0.2502 -0.1484
  152DOPC   C1A 1817   1.100   0.542  13.354  0.0757 -0.1477 -0.0733
  152DOPC   D2A 1818   1.536   0.481  13.561 -0.2506 -0.0699  0.3343
  152DOPC   C3A 1819   1.699   0.366  13.968  0.1740  0.0527  0.0575
  152DOPC   C4A 1820   1.827   0.310  14.397  0.2775  0.3731 -0.0598
  152DOPC   C1B 1821   1.173  -0.023  13.347  0.2477 -0.1152 -0.0268
  152DOPC   D2B 1822   1.581  -0.117  13.622  0.0922  0.2197 -0.0472
  152DOPC   C3B 1823   1.697  -0.166  14.024 -0.1920 -0.1090 -0.0417
  152DOPC   C4B 1824   2.116  -0.174  14.335  0.1971 -0.0145 -0.0790
  153DOPC   NC3 1825   1.018   0.513  12.812  0.4118  0.0646  0.1676
  153DOPC   PO4 1826   1.160   0.819  12.659 -0.3590  0.0330  0.1099
  153DOPC   GL1 1827   1.335   1.066  12.948  0.0732 -0.3344 -0.1557
  153DOPC   GL2 1828   1.589   0.956  12.733 -0.0055  0.5437  0.0532
  153DOPC   C1A 1829   1.393   1.419  13.202  0.3195  0.1127 -0.0710
  153DOPC   D2A 1830   1.508   1.458  13.706  0.2506  0.0581 -0.2916
  153DOPC   C3A 1831   1.822   1.349  13.994  0.0884  0.2555  0.2864
  153DOPC   C4A 1832   2.114   1.209  14.325  0.0481 -0.0100  0.2324
  153DOPC   C1B 1833   1.845   1.213  12.906 -0.1318 -0.0549  0.0309
  153DOPC   D2B 1834   1.979   1.340  13.397  0.1282  0.2860  0.0457
  153DOPC   C3B 1835   2.386   1.319  13.745  0.1626 -0.0926 -0.0158
  153DOPC   C4B 1836   2.755   0.952  13.789  0.0502  0.3778 -0.3195
  154DOPC   NC3 1837  17.738   7.392  18.080 -0.1965 -0.0359 -0.2477
  154DOPC   PO4 1838  17.414   7.558  17.957 -0.0789  0.0525 -0.1470
  154DOPC   GL1 1839  17.365   7.669  18.417 -0.1744  0.1920 -0.1511
  154DOPC   GL2 1840  17.324   7.352  18.376 -0.0574 -0.1440  0.0962
  154DOPC   C1A 1841  17.510   7.817  18.849 -0.1250  0.0849 -0.0939
  154DOPC   D2A 1842  17.643   7.634  19.367 -0.1267 -0.2295 -0.0167
  154DOPC   C3A 1843  17.267   7.299  19.504 -0.2603  0.1243 -0.0949
  154DOPC   C4A 1844  17.024   7.131  19.840  0.1919  0.0326  0.0217
  154DOPC   C1B 1845  17.020   7.393  18.676  0.0209  0.4197  0.2650
  154DOPC   D2B 1846  16.567   7.598  18.859  0.3288 -0.0857  0.0552
  154DOPC   C3B 1847  16.109   7.483  18.959 -0.0874  0.2331 -0.4326
  154DOPC   C4B 1848  15.605   7.372  18.888 -0.0931 -0.1818  0.0253
  155DOPC   NC3 1849  23.166   0.243  16.114  0.1534  0.3547 -0.0462
  155DOPC   PO4 1850  23.178  -0.095  15.918 -0.1968  0.0162 -0.0399
  155DOPC   GL1 1851  23.515  -0.269  16.018  0.0652  0.1925 -0.2148
  155DOPC   GL2 1852  23.627  -0.012  16.031 -0.0832  0.0709  0.1946
  155DOPC   C1A 1853  23.687  -0.552  16.297  0.0968  0.0593  0.0652
  155DOPC   D2A 1854  23.986  -0.570  16.691  0.1050 -0.0250  0.2698
  155DOPC   C3A 1855  24.221  -0.933  16.922 -0.0517 -0.2329  0.2555
  155DOPC   C4A 1856  24.504  -1.268  16.914 -0.2924 -0.0955 -0.2106
  155DOPC   C1B 1857  23.866  -0.059  16.493 -0.3570  0.0796 -0.1778
  155DOPC   D2B 1858  24.202  -0.089  16.916 -0.1544 -0.2661  0.1842
  155DOPC   C3B 1859  24.624   0.046  17.171 -0.0448  0.2126 -0.1480
  155DOPC   C4B 1860  24.965  -0.015  17.468 -0.1122 -0.0218  0.1593
  156DOPC   NC3 1861  24.547   2.874  13.991  0.0139 -0.2071 -0.1305
  156DOPC   PO4 1862  24.292   3.084  14.117  0.0231  0.1340  0.1813
  156DOPC   GL1 1863  24.322   3.178  14.561 -0.2915 -0.2855  0.2199
  156DOPC   GL2 1864  24.595   3.031  14.512 -0.2437 -0.1878 -0.3009
  156DOPC   C1A 1865  24.585   3.483  14.845  0.1005 -0.1187 -0.4218
  156DOPC   D2A 1866  24.984   3.666  15.056 -0.1202 -0.2057 -0.2446
  156DOPC   C3A 1867  25.431   3.537  15.168 -0.1273 -0.1394  0.1653
  156DOPC   C4A 1868  25.814   3.323  15.418  0.0915  0.1188  0.2836
  156DOPC   C1B 1869  24.798   2.736  14.682  0.0791  0.1838 -0.1642
  156DOPC   D2B 1870  25.274   2.763  14.904 -0.0843  0.0160 -0.0703
  156DOPC   C3B 1871  25.473   2.595  15.286  0.0419  0.4551  0.2479
  156DOPC   C4B 1872  25.541   2.362  15.699 -0.1600  0.1510 -0.0929
  157DOPC   NC3 1873  16.017   4.692  16.094  0.2415  0.0593  0.2927
  157DOPC   PO4 1874  15.737   4.478  16.295 -0.1637  0.2084 -0.2731
  157DOPC   GL1 1875  15.439   4.608  16.569  0.1872  0.1738 -0.3570
  157DOPC   GL2 1876  15.291   4.667  16.422 -0.1474  0.0783  0.0245
  157DOPC   C1A 1877  15.218   4.704  16.940 -0.2004 -0.0537  0.0597
  157DOPC   D2A 1878  15.117   4.675  17.415  0.3005  0.0756 -0.2632
  157DOPC   C3A 1879  14.653   4.721  17.681  0.1470 -0.1847  0.1488
  157DOPC   C4A 1880  14.303   4.800  18.007 -0.0989 -0.1557 -0.1766
  157DOPC   C1B 1881  15.087   5.056  16.523 -0.0718 -0.4124  0.1798
  157DOPC   D2B 1882  14.909   5.133  17.002  0.1408  0.1242 -0.1328
  157DOPC   C3B 1883  14.525   5.288  17.220 -0.1996  0.1318  0.1249
  157DOPC   C4B 1884  14.109   5.484  17.433 -0.1429  0.0028 -0.0306
  158DOPC   NC3 1885  24.688   7.728  14.309  0.0784 -0.4982 -0.2672
  158DOPC   PO4 1886  24.763   7.602  13.957 -0.2049 -0.0024 -0.3006
  158DOPC   GL1 1887  25.194   7.599  13.894 -0.0374  0.2343  0.0572
  158DOPC   GL2 1888  25.242   7.379  13.847 -0.1647  0.3805 -0.0184
  158DOPC   C1A 1889  25.527   7.836  14.018 -0.1900  0.1342  0.2029
  158DOPC   D2A 1890  25.967   8.059  14.186  0.1399 -0.2402 -0.2221
  158DOPC   C3A 1891  26.293   8.274  13.888  0.1383 -0.2686 -0.1086
  158DOPC   C4A 1892  26.594   8.681  13.898  0.0409  0.2226  0.0784
  158DOPC   C1B 1893  25.406   7.081  14.116  0.1083 -0.0529  0.1535
  158DOPC   D2B 1894  25.811   6.760  14.192 -0.1450 -0.2503  0.0424
  158DOPC   C3B 1895  26.012   6.604  14.578  0.0690  0.1434 -0.2324
  158DOPC   C4B 1896  26.360   6.573  14.908 -0.0521  0.2781 -0.0171
  159DOPC   NC3 1897  20.864   4.948  17.415  0.1780  0.3600 -0.0762
  159DOPC   PO4 1898  20.744   5.289  17.569  0.2094 -0.2079 -0.0365
  159DOPC   GL1 1899  20.912   5.240  17.976 -0.0665 -0.0315 -0.0577
  159DOPC   GL2 1900  20.949   5.553  18.008  0.0923  0.0687 -0.0741
  159DOPC   C1A 1901  20.965   5.005  18.315 -0.3262  0.0542  0.3542
  159DOPC   D2A 1902  20.722   4.867  18.754  0.3523 -0.0927 -0.2382
  159DOPC   C3A 1903  20.579   4.490  18.959 -0.0631 -0.0700  0.0646
  159DOPC   C4A 1904  20.780   4.422  19.392 -0.0697  0.0895 -0.0114
  159DOPC   C1B 1905  21.279   5.519  18.307  0.0513 -0.0211 -0.1838
  159DOPC   D2B 1906  21.383   5.633  18.811  0.0372 -0.1893 -0.0362
  159DOPC   C3B 1907  21.330   5.583  19.266 -0.0635  0.0863  0.4066
  159DOPC   C4B 1908  21.247   5.518  19.718  0.0957  0.1885 -0.1174
  160DOPC   NC3 1909  16.462   4.562  17.606  0.2782  0.3734  0.3487
  160DOPC   PO4 1910  16.517   4.885  17.405 -0.1199 -0.0205  0.0673
  160DOPC   GL1 1911  16.346   5.049  17.719 -0.2815 -0.0833 -0.0296
  160DOPC   GL2 1912  16.532   5.205  17.894  0.2426  0.1982 -0.3465
  160DOPC   C1A 1913  15.991   4.819  17.871 -0.1718  0.0523 -0.0848
  160DOPC   D2A 1914  15.642   4.588  18.168 -0.0405 -0.1296  0.2013
  160DOPC   C3A 1915  15.477   4.274  18.425 -0.2791  0.0702 -0.6527
  160DOPC   C4A 1916  15.312   4.044  18.781  0.2243 -0.3069 -0.3352
  160DOPC   C1B 1917  16.428   5.254  18.408 -0.0747 -0.3693  0.2480
  160DOPC   D2B 1918  16.176   5.273  18.778 -0.1100  0.0287 -0.0936
  160DOPC   C3B 1919  15.742   5.218  18.798 -0.1048  0.2622  0.0246
  160DOPC   C4B 1920  15.302   5.116  18.977 -0.0305 -0.0543  0.2268
  161DOPC   NC3 1921  15.431   0.768  15.455 -0.0852 -0.0518  0.0494
  161DOPC   PO4 1922  15.392   0.759  15.895 -0.0763  0.1099 -0.0581
  161DOPC   GL1 1923  15.074   0.744  16.074 -0.0324 -0.1057  0.1211
  161DOPC   GL2 1924  14.968   0.953  16.012  0.0955 -0.0020  0.6688
  161DOPC   C1A 1925  14.805   0.700  16.489  0.3587  0.0233  0.2880
  161DOPC   D2A 1926  14.687   0.669  16.983  0.2489  0.0378  0.0269
  161DOPC   C3A 1927  14.386   0.826  17.327 -0.1100  0.2580  0.1394
  161DOPC   C4A 1928  13.954   1.009  17.610 -0.1383 -0.0570 -0.1080
  161DOPC   C1B 1929  14.663   1.136  16.201  0.0858  0.0314 -0.1312
  161DOPC   D2B 1930  14.205   1.319  16.409  0.3097  0.1112  0.0348
  161DOPC   C3B 1931  13.898   1.053  16.646  0.2500 -0.0893 -0.1184
  161DOPC   C4B 1932  13.644   0.664  16.728  0.2739 -0.3677  0.1725
  162DOPC   NC3 1933  16.015   0.260  16.639 -0.1649  0.1057 -0.2374
  162DOPC   PO4 1934  16.263   0.101  16.916 -0.0567 -0.1824  0.2502
  162DOPC   GL1 1935  16.012  -0.028  17.215 -0.2368  0.3756 -0.5687
  162DOPC   GL2 1936  15.794  -0.019  17.074 -0.2123  0.0072 -0.0300
  162DOPC   C1A 1937  15.927   0.029  17.647  0.0644  0.0042  0.1151
  162DOPC   D2A 1938  15.629   0.077  18.023  0.1347 -0.2505 -0.0573
  162DOPC   C3A 1939  15.185   0.087  18.217 -0.0034  0.0518 -0.1245
  162DOPC   C4A 1940  14.808   0.196  18.540  0.1287 -0.1575  0.0800
  162DOPC   C1B 1941  15.512  -0.323  17.047  0.3546 -0.0471 -0.2979
  162DOPC   D2B 1942  15.435  -0.799  17.080 -0.0774 -0.3240  0.1335
  162DOPC   C3B 1943  15.025  -0.958  17.191  0.1340  0.0877  0.2806
  162DOPC   C4B 1944  14.661  -1.282  17.216 -0.1133 -0.0948  0.1185
  163DOPC   NC3 1945  18.015   2.670  18.127  0.2340  0.1857 -0.1705
  163DOPC   PO4 1946  18.411   2.710  18.040  0.0824 -0.2104  0.0584
  163DOPC   GL1 1947  18.576   2.960  18.406  0.0427  0.1529  0.1441
  163DOPC   GL2 1948  18.370   2.726  18.534 -0.0282 -0.2201 -0.0207
  163DOPC   C1A 1949  18.563   3.130  18.806  0.2347 -0.1755 -0.3551
  163DOPC   D2A 1950  18.541   3.462  19.146  0.2595 -0.3691  0.0758
  163DOPC   C3A 1951  18.592   3.648  19.627 -0.0817 -0.0268 -0.0824
  163DOPC   C4A 1952  18.581   3.659  20.086 -0.0262 -0.0878 -0.0342
  163DOPC   C1B 1953  18.433   2.593  18.943 -0.0284  0.1883 -0.0022
  163DOPC   D2B 1954  18.431   2.369  19.390 -0.0471  0.0701 -0.0271
  163DOPC   C3B 1955  18.264   1.941  19.385 -0.2345 -0.0613  0.2862
  163DOPC   C4B 1956  17.750   1.809  19.282 -0.0231  0.2838 -0.2060
  164DOPC   NC3 1957  13.573   5.459  13.947 -0.0299  0.0287  0.1121
  164DOPC   PO4 1958  13.443   5.712  14.229 -0.3414 -0.0176 -0.1543
  164DOPC   GL1 1959  13.121   5.602  14.535 -0.1121  0.0641  0.0719
  164DOPC   GL2 1960  13.288   5.655  14.730  0.1471 -0.1310  0.0961
  164DOPC   C1A 1961  12.773   5.396  14.814  0.1568 -0.0797  0.0497
  164DOPC   D2A 1962  12.474   5.020  14.751 -0.1313  0.1909  0.1098
  164DOPC   C3A 1963  11.956   5.007  14.720 -0.2338  0.2931  0.1948
  164DOPC   C4A 1964  11.470   4.949  14.608 -0.1783 -0.0226  0.1743
  164DOPC   C1B 1965  13.092   5.830  15.019 -0.0915 -0.0028 -0.0635
  164DOPC   D2B 1966  12.776   6.052  15.311 -0.1431 -0.0811  0.2270
  164DOPC   C3B 1967  12.543   5.867  15.666 -0.2660 -0.0211 -0.1617
  164DOPC   C4B 1968  12.337   5.686  16.067  0.2627 -0.1939 -0.1670
  165DOPC   NC3 1969   0.724   2.328  13.010 -0.0609 -0.2826 -0.2473
  165DOPC   PO4 1970   0.614   1.935  12.901 -0.1125 -0.0407 -0.1295
  165DOPC   GL1 1971   0.890   1.825  13.206  0.0721 -0.1410  0.1655
  165DOPC   GL2 1972   1.067   2.014  13.091 -0.1647 -0.1079 -0.0874
  165DOPC   C1A 1973   1.061   1.653  13.576  0.1956 -0.2858  0.2756
  165DOPC   D2A 1974   1.141   1.393  14.015 -0.2407  0.1976  0.2101
  165DOPC   C3A 1975   0.927   0.974  14.025  0.0793 -0.2473 -0.2963
  165DOPC   C4A 1976   0.680   0.668  13.822 -0.2509 -0.0394 -0.0462
  165DOPC   C1B 1977   1.488   1.961  13.004  0.1008  0.3756 -0.0469
  165DOPC   D2B 1978   1.758   1.780  13.375 -0.0764 -0.0281  0.1487
  165DOPC   C3B 1979   1.913   1.791  13.830 -0.0439  0.0804  0.4512
  165DOPC   C4B 1980   2.188   2.181  13.961 -0.0205  0.0255 -0.3454
  166DOPC   NC3 1981   4.561   3.119  10.867 -0.1839 -0.0557 -0.0707
  166DOPC   PO4 1982   4.198   3.235  10.819 -0.2990  0.1239  0.2888
  166DOPC   GL1 1983   4.331   3.518  11.034  0.4921  0.1888  0.0218
  166DOPC   GL2 1984   4.376   3.378  11.244 -0.6816  0.4093 -0.1899
  166DOPC   C1A 1985   4.443   3.896  11.317  0.2475 -0.1089 -0.0186
  166DOPC   D2A 1986   4.531   3.912  11.833  0.0484  0.1717  0.3444
  166DOPC   C3A 1987   4.711   3.629  12.122  0.0897 -0.2200 -0.1662
  166DOPC   C4A 1988   4.893   3.211  12.055  0.0086  0.0847  0.0053
  166DOPC   C1B 1989   4.624   3.453  11.603 -0.0865  0.0123 -0.2267
  166DOPC   D2B 1990   5.134   3.384  11.704  0.1203 -0.0340  0.0295
  166DOPC   C3B 1991   5.587   3.349  11.633  0.1894  0.3260 -0.1623
  166DOPC   C4B 1992   5.726   3.202  12.125  0.0720 -0.1745 -0.0414
  167DOPC   NC3 1993   6.355   4.748  10.536 -0.0769 -0.2017  0.1746
  167DOPC   PO4 1994   6.638   4.488  10.503 -0.0832 -0.1106 -0.1616
  167DOPC   GL1 1995   6.877   4.457  10.809 -0.2187 -0.0586 -0.0308
  167DOPC   GL2 1996   6.835   4.759  10.849 -0.0783  0.0353  0.1244
  167DOPC   C1A 1997   6.780   4.224  11.166  0.1081 -0.0044  0.3427
  167DOPC   D2A 1998   6.770   3.896  11.500  0.2166  0.0129 -0.2810
  167DOPC   C3A 1999   7.053   3.734  11.813  0.0994 -0.4034  0.0577
  167DOPC   C4A 2000   7.437   3.525  12.061  0.1306  0.1963 -0.2358
  167DOPC   C1B 2001   7.008   5.070  11.080  0.5469 -0.1025  0.1611
  167DOPC   D2B 2002   7.243   5.444  11.365  0.2556  0.0955 -0.1698
  167DOPC   C3B 2003   7.302   5.470  11.843  0.1740  0.2051 -0.0568
  167DOPC   C4B 2004   7.596   5.700  12.200  0.1717 -0.1357 -0.1611
  168DOPC   NC3 2005   2.080   4.150  11.710 -0.0239  0.0499  0.0300
  168DOPC   PO4 2006   2.176   4.536  11.777 -0.0087 -0.1870  0.2527
  168DOPC   GL1 2007   2.612   4.706  11.980 -0.0813 -0.0814  0.1890
  168DOPC   GL2 2008   2.430   4.705  12.193  0.2141 -0.0625  0.1113
  168DOPC   C1A 2009   2.907   4.488  12.226  0.0373 -0.1772  0.1316
  168DOPC   D2A 2010   3.248   4.526  12.635  0.1171 -0.1034  0.1970
  168DOPC   C3A 2011   3.216   4.479  13.090 -0.1270  0.3195 -0.1142
  168DOPC   C4A 2012   3.518   4.763  13.410 -0.2432 -0.1956  0.0585
  168DOPC   C1B 2013   2.774   4.889  12.519  0.1590  0.1218  0.1348
  168DOPC   D2B 2014   3.081   4.880  12.917  0.0233 -0.0406  0.1495
  168DOPC   C3B 2015   3.289   5.189  13.235  0.0297 -0.1440 -0.0397
  168DOPC   C4B 2016   3.726   5.220  13.488 -0.1740  0.1241 -0.0758
  169DOPC   NC3 2017  11.042   6.024  10.891 -0.1496 -0.1066 -0.1907
  169DOPC   PO4 2018  10.704   5.830  10.907  0.1213 -0.0199  0.0224
  169DOPC   GL1 2019  10.413   5.966  11.214  0.2083  0.1776  0.0051
  169DOPC   GL2 2020  10.221   5.741  11.075  0.1674 -0.0889 -0.1871
  169DOPC   C1A 2021  10.256   5.734  11.603 -0.1820 -0.0995 -0.4029
  169DOPC   D2A 2022  10.133   5.745  12.091  0.0813 -0.1354 -0.1963
  169DOPC   C3A 2023   9.865   5.627  12.488 -0.2153  0.0228 -0.3469
  169DOPC   C4A 2024   9.890   5.640  13.001  0.1191  0.1872 -0.1220
  169DOPC   C1B 2025  10.252   5.308  11.121  0.4570  0.0545 -0.0760
  169DOPC   D2B 2026  10.533   5.058  11.499  0.1104 -0.2972  0.0723
  169DOPC   C3B 2027  10.576   4.856  11.834  0.1495 -0.2736 -0.4812
  169DOPC   C4B 2028  10.459   4.777  12.262 -0.0167  0.3772 -0.0288
  170DOPC   NC3 2029  14.598   3.397  14.795  0.1581 -0.0703 -0.1320
  170DOPC   PO4 2030  14.566   2.986  14.940  0.0356 -0.1988  0.3477
  170DOPC   GL1 2031  14.393   3.025  15.336  0.1135 -0.0567 -0.3655
  170DOPC   GL2 2032  14.432   2.733  15.344  0.1198  0.1219  0.0051
  170DOPC   C1A 2033  13.993   2.906  15.509  0.0214  0.2340 -0.2797
  170DOPC   D2A 2034  13.621   3.194  15.594 -0.4448 -0.1214 -0.1212
  170DOPC   C3A 2035  13.188   3.248  15.676  0.2049 -0.1536 -0.1868
  170DOPC   C4A 2036  12.849   3.456  16.064  0.3416  0.3353 -0.1882
  170DOPC   C1B 2037  14.064   2.449  15.286  0.1129 -0.0123 -0.2499
  170DOPC   D2B 2038  13.577   2.159  15.208  0.0607 -0.0756 -0.0206
  170DOPC   C3B 2039  13.369   2.120  15.604  0.1488  0.0999  0.1212
  170DOPC   C4B 2040  13.131   1.829  15.885  0.1499  0.0876 -0.2640
  171DOPC   NC3 2041  13.649   6.630  13.905 -0.1137  0.3474 -0.0316
  171DOPC   PO4 2042  13.533   6.989  13.778  0.0037 -0.2903  0.0149
  171DOPC   GL1 2043  13.137   6.994  13.975 -0.1003  0.2788  0.1449
  171DOPC   GL2 2044  13.214   6.673  13.913  0.0410 -0.3319 -0.3321
  171DOPC   C1A 2045  12.955   7.002  14.315 -0.0051  0.1374 -0.3619
  171DOPC   D2A 2046  12.544   6.999  14.586 -0.1644 -0.1421  0.3209
  171DOPC   C3A 2047  12.093   6.932  14.736 -0.1807 -0.1615  0.3221
  171DOPC   C4A 2048  11.576   6.787  14.749  0.1848 -0.2075  0.1509
  171DOPC   C1B 2049  12.812   6.581  14.067  0.0956 -0.3479  0.2542
  171DOPC   D2B 2050  12.418   6.673  14.258  0.3041  0.0013  0.0735
  171DOPC   C3B 2051  12.051   6.962  14.248  0.0333  0.0636 -0.0033
  171DOPC   C4B 2052  11.545   6.883  14.307 -0.2405 -0.0069  0.2337
  172DOPC   NC3 2053  14.823   3.309  15.340  0.1359  0.0017  0.0363
  172DOPC   PO4 2054  14.485   3.486  15.266  0.1566  0.5108 -0.0811
  172DOPC   GL1 2055  14.276   3.349  15.605  0.2384 -0.0503 -0.0669
  172DOPC   GL2 2056  13.991   3.506  15.468 -0.1097 -0.1444  0.2713
  172DOPC   C1A 2057  14.386   3.411  15.983  0.0264  0.2695 -0.0531
  172DOPC   D2A 2058  14.652   3.555  16.342 -0.2020  0.2175  0.1933
  172DOPC   C3A 2059  14.604   3.713  16.816  0.0831 -0.3453 -0.0985
  172DOPC   C4A 2060  14.350   3.844  17.267  0.2106 -0.2110 -0.1306
  172DOPC   C1B 2061  13.981   3.791  15.865  0.1608 -0.1396 -0.2248
  172DOPC   D2B 2062  13.621   4.153  15.965 -0.1138  0.1465 -0.1655
  172DOPC   C3B 2063  13.372   4.085  16.376 -0.1087  0.1189 -0.1389
  172DOPC   C4B 2064  13.095   4.105  16.788 -0.2855 -0.1226 -0.4674
  173DOPC   NC3 2065   2.118   5.326  11.585  0.1389 -0.3477  0.1003
  173DOPC   PO4 2066   2.068   5.569  11.891  0.1477 -0.0915  0.0248
  173DOPC   GL1 2067   2.280   5.540  12.175  0.1279 -0.0200 -0.2419
  173DOPC   GL2 2068   2.135   5.485  12.443  0.2254 -0.1135 -0.0269
  173DOPC   C1A 2069   2.462   5.867  12.321  0.2683  0.2580 -0.0013
  173DOPC   D2A 2070   2.798   6.164  12.610 -0.2434 -0.2798 -0.0355
  173DOPC   C3A 2071   3.131   6.060  12.942  0.0410  0.1638  0.1713
  173DOPC   C4A 2072   3.399   6.401  13.177  0.4263  0.0151 -0.1267
  173DOPC   C1B 2073   2.291   5.321  12.856  0.0148 -0.1023  0.0373
  173DOPC   D2B 2074   2.290   5.198  13.292  0.3189 -0.1568  0.1289
  173DOPC   C3B 2075   2.243   5.415  13.748 -0.2069 -0.0143  0.0238
  173DOPC   C4B 2076   2.228   5.397  14.278 -0.1651  0.0269 -0.0161
  174DOPC   NC3 2077  22.265   4.104  15.953 -0.1754  0.0419  0.1685
  174DOPC   PO4 2078  22.330   3.907  16.275 -0.2117 -0.2499  0.4916
  174DOPC   GL1 2079  22.704   3.945  16.403 -0.2934  0.5298  0.0512
  174DOPC   GL2 2080  22.744   4.215  16.509 -0.0035 -0.3180 -0.0220
  174DOPC   C1A 2081  23.097   3.895  16.611  0.2700  0.0556  0.1317
  174DOPC   D2A 2082  23.510   3.978  16.883 -0.0517 -0.2439 -0.0007
  174DOPC   C3A 2083  23.894   3.949  17.180 -0.4382 -0.1411  0.1590
  174DOPC   C4A 2084  24.335   3.658  17.261 -0.0423 -0.2799 -0.0345
  174DOPC   C1B 2085  23.136   4.399  16.668 -0.1957 -0.0110  0.3012
  174DOPC   D2B 2086  23.496   4.479  16.902 -0.0943 -0.0720 -0.0273
  174DOPC   C3B 2087  23.909   4.356  16.935 -0.3127  0.1005 -0.0212
  174DOPC   C4B 2088  24.331   4.453  16.844 -0.3356  0.1126 -0.1233
  175DOPC   NC3 2089   3.960   3.254  11.299 -0.2896  0.0411  0.4051
  175DOPC   PO4 2090   3.671   3.286  11.052  0.2498  0.0913  0.2736
  175DOPC   GL1 2091   3.729   3.658  11.262 -0.1751 -0.2709  0.4552
  175DOPC   GL2 2092   3.977   3.738  11.184  0.0917  0.1431 -0.0962
  175DOPC   C1A 2093   3.672   3.558  11.704  0.0457 -0.0553 -0.1209
  175DOPC   D2A 2094   3.744   3.558  12.231  0.2010  0.0307 -0.0625
  175DOPC   C3A 2095   3.947   3.438  12.707  0.1219  0.0676  0.0826
  175DOPC   C4A 2096   4.112   2.990  12.910 -0.1063 -0.1829 -0.1951
  175DOPC   C1B 2097   4.103   3.635  11.550  0.1626 -0.0456  0.0605
  175DOPC   D2B 2098   4.187   3.506  11.998  0.1248  0.0766 -0.1557
  175DOPC   C3B 2099   4.346   3.568  12.431  0.1071  0.2337 -0.1928
  175DOPC   C4B 2100   4.483   3.478  12.860  0.1081 -0.0239 -0.1328
  176DOPC   NC3 2101   4.787   7.800  10.203  0.1295 -0.2768 -0.0371
  176DOPC   PO4 2102   5.115   8.034  10.283  0.0637  0.0775 -0.2334
  176DOPC   GL1 2103   5.144   8.211  10.685  0.0642 -0.3237 -0.6417
  176DOPC   GL2 2104   5.440   8.154  10.625 -0.3193 -0.3522  0.0334
  176DOPC   C1A 2105   5.217   8.234  11.119  0.0569  0.0376  0.2185
  176DOPC   D2A 2106   5.215   8.380  11.606 -0.5858 -0.1377  0.0104
  176DOPC   C3A 2107   5.194   8.665  11.940 -0.1543 -0.1011 -0.2282
  176DOPC   C4A 2108   5.002   9.085  12.051  0.2101  0.0271 -0.2406
  176DOPC   C1B 2109   5.693   8.199  11.037 -0.0600  0.1432 -0.0703
  176DOPC   D2B 2110   5.951   8.263  11.440 -0.1374 -0.3108 -0.1583
  176DOPC   C3B 2111   6.361   8.321  11.615  0.1445 -0.2418  0.0976
  176DOPC   C4B 2112   6.877   8.302  11.696 -0.0968  0.0151  0.0723
  177DOPC   NC3 2113  17.047   7.326  17.987  0.1986 -0.0962  0.3627
  177DOPC   PO4 2114  16.903   7.006  17.831 -0.0775 -0.0252  0.3133
  177DOPC   GL1 2115  16.783   6.917  18.137 -0.1184 -0.0221 -0.2426
  177DOPC   GL2 2116  16.979   7.079  18.383  0.2049 -0.2025 -0.0137
  177DOPC   C1A 2117  16.489   6.760  18.296 -0.1000  0.1513 -0.0791
  177DOPC   D2A 2118  16.271   6.578  18.637  0.0163  0.1035 -0.0356
  177DOPC   C3A 2119  16.125   6.547  19.062  0.1070 -0.1207  0.2438
  177DOPC   C4A 2120  15.870   6.412  19.461  0.2526 -0.4142  0.1683
  177DOPC   C1B 2121  16.622   7.095  18.667 -0.4277 -0.0618 -0.1919
  177DOPC   D2B 2122  16.387   6.965  19.095 -0.0839 -0.1817  0.0383
  177DOPC   C3B 2123  16.203   6.793  19.542 -0.0801 -0.2856 -0.3401
  177DOPC   C4B 2124  16.101   6.554  19.934  0.2107  0.5280  0.0418
  178DOPC   NC3 2125   1.478   4.535  12.981  0.1338 -0.0549 -0.2886
  178DOPC   PO4 2126   1.555   4.669  12.632 -0.1077 -0.1849  0.2689
  178DOPC   GL1 2127   1.887   4.651  12.718  0.0053  0.1826 -0.0159
  178DOPC   GL2 2128   2.061   4.419  12.830  0.0315 -0.1147 -0.0007
  178DOPC   C1A 2129   1.959   4.801  13.129 -0.2166 -0.1553  0.0306
  178DOPC   D2A 2130   2.300   4.769  13.484 -0.1351  0.1072  0.1797
  178DOPC   C3A 2131   2.553   4.977  13.788  0.0356 -0.1517 -0.0504
  178DOPC   C4A 2132   2.704   5.335  14.155  0.0721  0.1299 -0.0945
  178DOPC   C1B 2133   2.202   4.319  13.211  0.1416  0.1359  0.1017
  178DOPC   D2B 2134   2.063   4.285  13.721 -0.1053  0.2109 -0.0762
  178DOPC   C3B 2135   2.191   4.424  14.168  0.1029  0.0249  0.2714
  178DOPC   C4B 2136   2.222   4.443  14.707 -0.0170  0.0812 -0.2201
  179DOPC   NC3 2137  15.800   2.342  16.900 -0.1797 -0.0143 -0.3351
  179DOPC   PO4 2138  15.657   2.714  16.735 -0.0808  0.1958  0.0634
  179DOPC   GL1 2139  15.304   2.715  16.718  0.1031 -0.0949 -0.2024
  179DOPC   GL2 2140  15.187   2.499  16.932 -0.0222 -0.2093 -0.0527
  179DOPC   C1A 2141  14.901   2.918  16.706  0.0520  0.2780 -0.0096
  179DOPC   D2A 2142  14.476   3.116  16.845  0.2406 -0.0739 -0.1735
  179DOPC   C3A 2143  14.174   3.450  16.920  0.0291  0.1803 -0.0171
  179DOPC   C4A 2144  13.832   3.535  17.273 -0.0071  0.1349 -0.1533
  179DOPC   C1B 2145  14.698   2.446  16.897 -0.1943 -0.2746  0.1725
  179DOPC   D2B 2146  14.400   2.688  16.581  0.1109  0.1156 -0.1192
  179DOPC   C3B 2147  14.116   2.433  16.204  0.2132 -0.1187 -0.1598
  179DOPC   C4B 2148  13.638   2.310  16.187  0.3404  0.1650  0.1667
  180DOPC   NC3 2149   3.079   3.750  11.410 -0.0516  0.1452 -0.2045
  180DOPC   PO4 2150   3.383   3.951  11.312  0.1510 -0.0718  0.0716
  180DOPC   GL1 2151   3.626   4.233  11.463 -0.1871  0.2703 -0.1167
  180DOPC   GL2 2152   3.787   4.061  11.571 -0.0081  0.2043 -0.0045
  180DOPC   C1A 2153   3.794   4.454  11.759  0.1042 -0.0743  0.1165
  180DOPC   D2A 2154   3.885   4.809  12.093 -0.1288  0.0606  0.1494
  180DOPC   C3A 2155   3.704   4.787  12.500 -0.0391 -0.1095 -0.0613
  180DOPC   C4A 2156   3.639   4.845  12.964 -0.0951  0.0594  0.0239
  180DOPC   C1B 2157   3.994   4.002  11.937  0.1346 -0.3910  0.1526
  180DOPC   D2B 2158   4.337   4.096  12.254  0.1291  0.4535 -0.1413
  180DOPC   C3B 2159   4.601   3.920  12.630  0.1157  0.0784 -0.0304
  180DOPC   C4B 2160   4.561   3.953  13.124 -0.0601  0.0607 -0.1047
  181DOPC   NC3 2161   0.519   5.485  13.377  0.0780  0.1950  0.2987
  181DOPC   PO4 2162   0.626   5.147  13.587 -0.0223 -0.2814  0.0337
  181DOPC   GL1 2163   0.693   5.264  14.008  0.1955 -0.2905  0.1449
  181DOPC   GL2 2164   0.433   5.019  14.031 -0.1002  0.0038 -0.3716
  181DOPC   C1A 2165   0.997   5.068  14.272  0.0616  0.0647  0.0339
  181DOPC   D2A 2166   1.250   4.647  14.455  0.1742 -0.0688 -0.1195
  181DOPC   C3A 2167   1.139   4.596  13.973  0.1109 -0.0397 -0.1048
  181DOPC   C4A 2168   0.987   4.346  13.583  0.1098 -0.1321  0.0316
  181DOPC   C1B 2169   0.361   4.884  14.404 -0.0614 -0.0543 -0.0776
  181DOPC   D2B 2170   0.127   4.915  14.866 -0.1323 -0.1615 -0.3550
  181DOPC   C3B 2171   0.493   4.986  15.171 -0.0488 -0.0384  0.1437
  181DOPC   C4B 2172   0.821   5.075  15.605  0.1378  0.2491 -0.0366
  182DOPC   NC3 2173   4.047   2.318  10.493 -0.0425  0.1716  0.1170
  182DOPC   PO4 2174   4.352   2.159  10.663 -0.2898 -0.0569  0.1886
  182DOPC   GL1 2175   4.660   2.350  10.939  0.0805 -0.2323  0.1859
  182DOPC   GL2 2176   4.504   2.575  10.904  0.1562  0.3821  0.0912
  182DOPC   C1A 2177   4.500   2.151  11.375 -0.1087  0.0203 -0.0442
  182DOPC   D2A 2178   4.512   1.910  11.858  0.0942 -0.1380  0.2688
  182DOPC   C3A 2179   4.824   1.755  12.215 -0.1019  0.3165 -0.1596
  182DOPC   C4A 2180   5.117   1.448  12.548  0.0045  0.0076  0.1391
  182DOPC   C1B 2181   4.408   2.811  11.264 -0.0666 -0.0196  0.4921
  182DOPC   D2B 2182   4.219   3.054  11.660 -0.0096  0.0487  0.0495
  182DOPC   C3B 2183   4.429   3.118  12.101  0.0235  0.3116 -0.1395
  182DOPC   C4B 2184   4.444   3.116  12.541  0.1127 -0.2031  0.1804
  183DOPC   NC3 2185  12.967   6.943  13.589 -0.1239 -0.2659  0.1705
  183DOPC   PO4 2186  12.915   6.774  13.244 -0.0978 -0.2065 -0.1577
  183DOPC   GL1 2187  12.607   6.481  13.428 -0.0042 -0.3254  0.0528
  183DOPC   GL2 2188  12.484   6.533  13.194 -0.0988  0.0847  0.2152
  183DOPC   C1A 2189  12.342   6.386  13.797 -0.1351  0.3525 -0.2555
  183DOPC   D2A 2190  12.102   6.064  14.134 -0.2027 -0.1286 -0.1236
  183DOPC   C3A 2191  11.925   5.856  14.535 -0.2390 -0.4137  0.2811
  183DOPC   C4A 2192  11.789   6.011  14.982  0.0169  0.0974 -0.0058
  183DOPC   C1B 2193  12.180   6.858  13.187  0.4067 -0.0485  0.4847
  183DOPC   D2B 2194  11.737   7.167  13.315  0.2071 -0.0244 -0.3344
  183DOPC   C3B 2195  11.341   7.224  13.537  0.0284  0.3795 -0.1764
  183DOPC   C4B 2196  11.167   7.122  13.976  0.0724 -0.1361  0.1406
  184DOPC   NC3 2197  23.548   5.144  15.416 -0.4220  0.0678 -0.1101
  184DOPC   PO4 2198  23.612   4.855  15.226 -0.1098  0.0777  0.2537
  184DOPC   GL1 2199  23.915   4.657  15.182  0.0426 -0.0306  0.0973
  184DOPC   GL2 2200  23.942   4.516  15.406 -0.0961 -0.1634  0.2203
  184DOPC   C1A 2201  24.337   4.723  15.122 -0.0699  0.5234 -0.3019
  184DOPC   D2A 2202  24.732   5.029  15.247 -0.1271  0.0072  0.0218
  184DOPC   C3A 2203  25.174   4.855  15.434 -0.3990  0.0025 -0.0902
  184DOPC   C4A 2204  25.588   4.739  15.634 -0.3064 -0.1054  0.1670
  184DOPC   C1B 2205  24.393   4.478  15.565 -0.4353 -0.1755  0.3394
  184DOPC   D2B 2206  24.715   4.816  15.667 -0.0167  0.0901  0.0404
  184DOPC   C3B 2207  24.709   5.052  16.095  0.2701  0.0739  0.1587
  184DOPC   C4B 2208  24.802   5.330  16.470 -0.2342 -0.1402  0.1927
  185DOPC   NC3 2209  11.252   4.162  11.187  0.0863  0.1878  0.0962
  185DOPC   PO4 2210  11.142   3.829  11.392 -0.2455  0.1510 -0.1247
  185DOPC   GL1 2211  11.016   3.860  11.826 -0.0387 -0.0405 -0.2104
  185DOPC   GL2 2212  11.095   3.620  11.769 -0.0609 -0.0635 -0.1743
  185DOPC   C1A 2213  10.642   3.859  12.060  0.0118  0.0364  0.0863
  185DOPC   D2A 2214  10.372   3.635  12.384 -0.1960  0.0776 -0.5583
  185DOPC   C3A 2215   9.976   3.692  12.168  0.0486  0.0772 -0.0696
  185DOPC   C4A 2216   9.805   3.431  11.807  0.2130 -0.1945  0.1109
  185DOPC   C1B 2217  10.982   3.361  12.133 -0.1082  0.0700 -0.0787
  185DOPC   D2B 2218  10.627   3.242  12.459  0.1950 -0.2922  0.1662
  185DOPC   C3B 2219  10.313   3.267  12.782 -0.0966 -0.2048 -0.0918
  185DOPC   C4B 2220  10.084   3.007  13.030 -0.1742 -0.0019 -0.0832
  186DOPC   NC3 2221  16.952   6.758  17.393 -0.2147 -0.0847 -0.0195
  186DOPC   PO4 2222  17.048   6.522  17.710  0.1298  0.1118 -0.0308
  186DOPC   GL1 2223  16.923   6.494  18.188 -0.2092  0.3766  0.0557
  186DOPC   GL2 2224  16.624   6.376  18.028 -0.3229  0.1980 -0.2000
  186DOPC   C1A 2225  16.821   6.619  18.599 -0.3558 -0.1503 -0.3642
  186DOPC   D2A 2226  16.773   6.668  19.128 -0.1184 -0.0026  0.0685
  186DOPC   C3A 2227  16.851   6.686  19.595 -0.0543  0.0118 -0.3258
  186DOPC   C4A 2228  16.661   6.733  20.005  0.0815 -0.0337 -0.1857
  186DOPC   C1B 2229  16.292   6.178  18.267 -0.2337 -0.4812  0.2110
  186DOPC   D2B 2230  15.904   6.299  18.610 -0.1075 -0.2081 -0.2405
  186DOPC   C3B 2231  15.744   6.128  19.013  0.0353 -0.0141 -0.0238
  186DOPC   C4B 2232  15.666   5.683  19.351  0.0472 -0.2849  0.4301
  187DOPC   NC3 2233  17.822   6.644  18.291  0.1893  0.0053 -0.1848
  187DOPC   PO4 2234  17.613   6.941  18.476  0.0723  0.0002  0.2983
  187DOPC   GL1 2235  17.567   6.958  18.829 -0.3718  0.2284  0.0288
  187DOPC   GL2 2236  17.672   6.835  19.068  0.4113 -0.0006  0.3501
  187DOPC   C1A 2237  17.404   7.359  18.982 -0.2290  0.1973  0.0223
  187DOPC   D2A 2238  17.082   7.695  19.099  0.0364 -0.3223 -0.0175
  187DOPC   C3A 2239  16.689   7.650  19.337  0.1110  0.2140  0.5055
  187DOPC   C4A 2240  16.234   7.463  19.408  0.0021 -0.1470  0.3331
  187DOPC   C1B 2241  17.353   6.795  19.419  0.1067  0.2615 -0.1019
  187DOPC   D2B 2242  17.370   6.748  19.911  0.0966 -0.0026 -0.1281
  187DOPC   C3B 2243  17.124   6.807  20.257  0.0418 -0.2435 -0.5689
  187DOPC   C4B 2244  17.312   6.949  20.701  0.1020  0.0340  0.4090
  188DOPC   NC3 2245   5.039   5.197  10.645 -0.0699 -0.0284  0.3271
  188DOPC   PO4 2246   5.375   5.393  10.553 -0.0232 -0.1820 -0.1659
  188DOPC   GL1 2247   5.641   5.449  10.879  0.0073  0.1072  0.0339
  188DOPC   GL2 2248   5.484   5.747  10.910 -0.4483  0.1767  0.3495
  188DOPC   C1A 2249   5.805   5.193  11.224 -0.0881  0.0844 -0.1621
  188DOPC   D2A 2250   6.148   4.915  11.496 -0.0972 -0.3123 -0.1639
  188DOPC   C3A 2251   6.045   4.590  11.831 -0.2161  0.0285 -0.3803
  188DOPC   C4A 2252   6.349   4.229  12.042  0.1513  0.1431  0.2702
  188DOPC   C1B 2253   5.420   5.632  11.317  0.2483 -0.0916  0.0170
  188DOPC   D2B 2254   5.363   5.196  11.512  0.2337  0.0142  0.0820
  188DOPC   C3B 2255   5.360   5.129  12.011 -0.0739  0.0666 -0.1997
  188DOPC   C4B 2256   5.267   5.080  12.489 -0.1513 -0.0834 -0.0693
  189DOPC   NC3 2257  20.136   2.469  18.022  0.1517 -0.0310  0.2546
  189DOPC   PO4 2258  19.941   2.258  18.295 -0.0914  0.2243  0.3429
  189DOPC   GL1 2259  20.267   2.235  18.640  0.0479 -0.3671  0.1432
  189DOPC   GL2 2260  20.392   2.500  18.440  0.4083  0.0047  0.2038
  189DOPC   C1A 2261  20.450   2.286  19.021 -0.1638  0.0107 -0.0071
  189DOPC   D2A 2262  20.751   2.278  19.480 -0.0228 -0.6104 -0.0046
  189DOPC   C3A 2263  20.822   2.469  19.858  0.0578  0.2756  0.1420
  189DOPC   C4A 2264  20.738   2.966  20.033  0.1434 -0.0599 -0.0268
  189DOPC   C1B 2265  20.803   2.504  18.703  0.2247  0.1735  0.0701
  189DOPC   D2B 2266  21.144   2.486  19.047  0.0478 -0.0563 -0.1754
  189DOPC   C3B 2267  21.203   2.565  19.467 -0.2662 -0.1638  0.0129
  189DOPC   C4B 2268  21.255   2.835  19.866  0.1485 -0.0188 -0.1540
  190DOPC   NC3 2269  12.627   1.862  12.067 -0.1088 -0.1260  0.3194
  190DOPC   PO4 2270  12.406   2.128  12.284  0.1147  0.4000  0.0693
  190DOPC   GL1 2271  12.042   2.150  12.565  0.2325  0.2793 -0.0070
  190DOPC   GL2 2272  12.014   1.842  12.575 -0.1158 -0.1735  0.1351
  190DOPC   C1A 2273  11.684   2.367  12.512  0.0063 -0.3348 -0.1834
  190DOPC   D2A 2274  11.226   2.491  12.578 -0.1544 -0.0993  0.3356
  190DOPC   C3A 2275  10.789   2.498  12.438  0.0359  0.2035 -0.4591
  190DOPC   C4A 2276  10.387   2.338  12.174  0.0865 -0.1523  0.1604
  190DOPC   C1B 2277  11.629   2.040  12.881  0.1178  0.2874  0.2586
  190DOPC   D2B 2278  11.246   2.084  13.208  0.0083 -0.1034  0.0520
  190DOPC   C3B 2279  11.129   2.230  13.638 -0.0474  0.2739 -0.1195
  190DOPC   C4B 2280  11.011   2.066  14.140  0.1091 -0.1050 -0.0661
  191DOPC   NC3 2281  18.664   6.942  18.237  0.0971 -0.3258 -0.0372
  191DOPC   PO4 2282  18.914   6.835  18.536  0.2560  0.1043 -0.1498
  191DOPC   GL1 2283  18.882   6.880  18.939  0.2235 -0.0351  0.1477
  191DOPC   GL2 2284  19.055   6.987  19.046 -0.2449  0.1571  0.0351
  191DOPC   C1A 2285  18.665   6.666  19.328  0.0362  0.0844 -0.0279
  191DOPC   D2A 2286  18.449   6.466  19.714 -0.1243 -0.0699  0.0007
  191DOPC   C3A 2287  18.305   6.226  20.160 -0.0668 -0.2460 -0.1791
  191DOPC   C4A 2288  18.432   6.174  20.622 -0.0804 -0.0899  0.0572
  191DOPC   C1B 2289  18.894   7.317  19.352  0.1549  0.2668 -0.0825
  191DOPC   D2B 2290  18.467   7.443  19.622  0.3167  0.0055 -0.1518
  191DOPC   C3B 2291  18.033   7.421  19.746  0.1310 -0.2877  0.1896
  191DOPC   C4B 2292  17.671   7.705  19.969  0.2133  0.0577 -0.2929
  192DOPC   NC3 2293   0.148   2.192  13.711 -0.0649  0.0743 -0.0480
  192DOPC   PO4 2294   0.110   1.862  13.577  0.1552  0.2418  0.0618
  192DOPC   GL1 2295   0.346   1.649  13.825 -0.1731 -0.2534  0.0609
  192DOPC   GL2 2296   0.635   1.709  13.703 -0.1973 -0.0080 -0.4428
  192DOPC   C1A 2297   0.353   1.651  14.217  0.0770 -0.4366 -0.2963
  192DOPC   D2A 2298   0.346   1.607  14.717  0.0163 -0.2220 -0.0925
  192DOPC   C3A 2299   0.121   1.557  15.066  0.1331  0.1559  0.3118
  192DOPC   C4A 2300  -0.040   1.369  15.472 -0.0192  0.1038  0.0900
  192DOPC   C1B 2301   0.850   1.805  14.116  0.2945  0.2338  0.0201
  192DOPC   D2B 2302   1.152   1.978  14.427 -0.0810 -0.0979 -0.1551
  192DOPC   C3B 2303   1.203   2.071  14.881 -0.2739  0.2171 -0.0996
  192DOPC   C4B 2304   1.207   2.250  15.378  0.1088  0.1176  0.1080
  193DOPC   NC3 2305  22.663   6.495  15.428  0.1467  0.1298  0.3206
  193DOPC   PO4 2306  22.831   6.349  15.743 -0.1742 -0.1827 -0.0818
  193DOPC   GL1 2307  23.218   6.183  15.938 -0.2180 -0.1838 -0.0445
  193DOPC   GL2 2308  23.155   5.895  15.857 -0.0761  0.0903  0.2762
  193DOPC   C1A 2309  23.380   6.346  16.326 -0.2059 -0.3095  0.0711
  193DOPC   D2A 2310  23.703   6.377  16.683 -0.0746  0.2806 -0.2659
  193DOPC   C3A 2311  24.099   6.600  16.554 -0.0218 -0.0933  0.2351
  193DOPC   C4A 2312  24.610   6.484  16.447 -0.1178  0.1440 -0.1798
  193DOPC   C1B 2313  23.189   5.563  16.176 -0.2502  0.2303 -0.1694
  193DOPC   D2B 2314  23.570   5.377  16.489 -0.2128  0.1900  0.1072
  193DOPC   C3B 2315  23.833   5.213  16.805 -0.0369  0.2652  0.1916
  193DOPC   C4B 2316  23.948   5.287  17.341 -0.0002 -0.4270  0.2037
  194DOPC   NC3 2317   4.845   7.010  10.398 -0.0400 -0.0815  0.2232
  194DOPC   PO4 2318   4.766   7.267  10.674  0.0429 -0.0075  0.0888
  194DOPC   GL1 2319   4.763   7.181  11.118  0.4212  0.0471 -0.0903
  194DOPC   GL2 2320   5.012   7.262  11.067 -0.1178 -0.0316 -0.0383
  194DOPC   C1A 2321   4.830   7.355  11.473 -0.0658  0.1843  0.1253
  194DOPC   D2A 2322   4.983   7.679  11.883  0.1472 -0.0464  0.0451
  194DOPC   C3A 2323   5.226   7.914  12.192  0.0022  0.1778 -0.4654
  194DOPC   C4A 2324   5.236   8.368  12.371  0.1740 -0.0050  0.1028
  194DOPC   C1B 2325   5.133   7.697  11.161  0.0836  0.1433 -0.5279
  194DOPC   D2B 2326   5.327   7.920  11.622 -0.0516 -0.1960 -0.0279
  194DOPC   C3B 2327   5.759   7.935  11.763 -0.2843 -0.0060  0.0487
  194DOPC   C4B 2328   6.122   8.082  12.110 -0.0942 -0.1416  0.1082
  195DOPC   NC3 2329  21.722   4.367  16.744  0.1129 -0.0172 -0.1730
  195DOPC   PO4 2330  21.779   4.212  17.116 -0.1006 -0.2251 -0.0404
  195DOPC   GL1 2331  22.034   3.994  17.407  0.1698  0.1045  0.0012
  195DOPC   GL2 2332  21.967   4.206  17.624  0.1836  0.1330  0.0011
  195DOPC   C1A 2333  22.434   3.907  17.516  0.1889 -0.4741  0.0343
  195DOPC   D2A 2334  22.901   4.031  17.615 -0.3420 -0.3465  0.1317
  195DOPC   C3A 2335  23.381   4.167  17.799 -0.0898  0.0853  0.0240
  195DOPC   C4A 2336  23.759   4.261  18.117  0.0949 -0.0114  0.0672
  195DOPC   C1B 2337  22.359   4.241  17.848  0.1618 -0.1707  0.0541
  195DOPC   D2B 2338  22.778   4.313  18.046 -0.1779  0.2243 -0.2277
  195DOPC   C3B 2339  23.168   4.133  18.259  0.1982  0.0591 -0.0361
  195DOPC   C4B 2340  23.426   3.861  18.488 -0.2491 -0.1522 -0.1937
  196DOPC   NC3 2341   8.133   5.738   9.922 -0.1873  0.0022  0.4744
  196DOPC   PO4 2342   8.388   5.860  10.220  0.1080 -0.1192  0.1512
  196DOPC   GL1 2343   8.414   5.795  10.665 -0.2039 -0.4380 -0.1730
  196DOPC   GL2 2344   8.575   6.048  10.700  0.1944  0.0443 -0.0960
  196DOPC   C1A 2345   8.424   5.562  11.022 -0.0312  0.1780 -0.3000
  196DOPC   D2A 2346   8.264   5.271  11.394  0.2907 -0.1490 -0.3259
  196DOPC   C3A 2347   8.304   5.351  11.868  0.3195  0.2093  0.1487
  196DOPC   C4A 2348   8.425   5.370  12.365 -0.1906 -0.0225  0.0788
  196DOPC   C1B 2349   8.512   6.188  11.124  0.1989 -0.1062 -0.0328
  196DOPC   D2B 2350   8.338   6.295  11.567 -0.0267  0.0095 -0.1471
  196DOPC   C3B 2351   8.095   6.631  11.655 -0.0295 -0.0369 -0.2167
  196DOPC   C4B 2352   7.793   6.851  12.038 -0.1860  0.3146  0.2576
  197DOPC   NC3 2353  21.407   3.110  17.161 -0.1879 -0.2368  0.0151
  197DOPC   PO4 2354  21.297   2.813  17.324 -0.0563  0.0685 -0.1209
  197DOPC   GL1 2355  21.514   2.603  17.707  0.1856  0.0880  0.1677
  197DOPC   GL2 2356  21.314   2.761  17.929  0.0641 -0.3247 -0.0507
  197DOPC   C1A 2357  21.915   2.457  17.891  0.0975 -0.1724 -0.1787
  197DOPC   D2A 2358  22.284   2.353  18.147 -0.0611 -0.1682  0.0195
  197DOPC   C3A 2359  22.546   2.140  18.480 -0.0907 -0.0348  0.0007
  197DOPC   C4A 2360  22.460   1.763  18.874 -0.2176 -0.1596 -0.1902
  197DOPC   C1B 2361  21.713   2.910  18.059 -0.0750  0.2417  0.1428
  197DOPC   D2B 2362  22.137   2.813  18.216  0.1934 -0.0857  0.0505
  197DOPC   C3B 2363  22.329   2.613  18.564 -0.0600 -0.0143 -0.4260
  197DOPC   C4B 2364  22.294   2.577  19.081  0.1388 -0.0344 -0.0158
  198DOPC   NC3 2365   6.335   0.627  10.401  0.3137 -0.1307 -0.0147
  198DOPC   PO4 2366   6.351   0.280  10.184 -0.0715 -0.0921 -0.4217
  198DOPC   GL1 2367   6.792   0.228  10.387  0.1378  0.2074  0.0613
  198DOPC   GL2 2368   6.581   0.028  10.515 -0.0310 -0.1409 -0.1221
  198DOPC   C1A 2369   6.964   0.091  10.808 -0.0023 -0.0029  0.2131
  198DOPC   D2A 2370   7.105  -0.156  11.220  0.2831  0.2858  0.0201
  198DOPC   C3A 2371   7.502  -0.204  11.512 -0.0368  0.0511 -0.3928
  198DOPC   C4A 2372   7.953  -0.168  11.709 -0.0200  0.1369  0.3070
  198DOPC   C1B 2373   6.662  -0.402  10.569  0.1974  0.0704  0.1998
  198DOPC   D2B 2374   6.543  -0.810  10.880  0.1680 -0.1065  0.0363
  198DOPC   C3B 2375   6.788  -0.650  11.196 -0.2714  0.1571  0.0424
  198DOPC   C4B 2376   7.080  -0.560  11.574  0.3228 -0.0963  0.1058
  199DOPC   NC3 2377  24.148   6.775  15.534  0.1524  0.0043 -0.0127
  199DOPC   PO4 2378  24.209   7.028  15.227  0.1348  0.2087  0.2318
  199DOPC   GL1 2379  24.563   7.106  14.965 -0.1302  0.0788  0.2788
  199DOPC   GL2 2380  24.447   7.371  15.141 -0.1956 -0.1387 -0.0675
  199DOPC   C1A 2381  25.029   6.961  15.049 -0.1067 -0.0670  0.2861
  199DOPC   D2A 2382  25.474   6.920  15.263 -0.0069  0.1154  0.1490
  199DOPC   C3A 2383  25.580   7.097  15.718 -0.4446 -0.2653  0.2584
  199DOPC   C4A 2384  25.812   7.277  16.116  0.1713  0.0475  0.2982
  199DOPC   C1B 2385  24.755   7.573  15.445  0.2584 -0.1029 -0.1128
  199DOPC   D2B 2386  24.962   7.785  15.808 -0.0657 -0.1625 -0.1140
  199DOPC   C3B 2387  25.207   8.128  15.955 -0.1892 -0.0681 -0.0625
  199DOPC   C4B 2388  25.443   8.413  16.254 -0.2885  0.2373 -0.0433
  200DOPC   NC3 2389  20.544   4.423  18.047  0.1829  0.1694  0.5531
  200DOPC   PO4 2390  20.681   4.064  17.961 -0.2024 -0.0546  0.1479
  200DOPC   GL1 2391  21.019   3.919  18.159 -0.3284 -0.2923  0.2153
  200DOPC   GL2 2392  21.244   4.120  18.010 -0.4121 -0.3895 -0.0967
  200DOPC   C1A 2393  20.976   3.845  18.610  0.1574 -0.1460  0.2747
  200DOPC   D2A 2394  21.146   3.751  19.081 -0.1195 -0.0221 -0.1384
  200DOPC   C3A 2395  21.230   4.170  19.279  0.0112  0.0185  0.0541
  200DOPC   C4A 2396  21.423   4.616  19.351 -0.0583 -0.0330  0.1608
  200DOPC   C1B 2397  21.487   4.330  18.360 -0.2174 -0.1176  0.2443
  200DOPC   D2B 2398  21.564   4.500  18.849 -0.2959 -0.0160 -0.0793
  200DOPC   C3B 2399  21.838   4.343  19.193  0.0160  0.2141 -0.4709
  200DOPC   C4B 2400  22.212   4.493  19.398  0.1151  0.2126 -0.0816
  201W        W 2401  11.267   0.074  31.478 -0.2393 -0.0629 -0.1743
  202W        W 2402   3.963   5.497  29.935 -0.1819  0.1358 -0.3328
  203W        W 2403  18.903   0.588  17.545 -0.2990  0.3143  0.1101
  204W        W 2404   2.410   7.047  30.851 -0.1062 -0.1349 -0.2002
  205W        W 2405   9.255   5.888   5.634 -0.0466 -0.1524  0.0677
  206W        W 2406   5.198   5.396  17.751 -0.1244 -0.0496 -0.4735
  207W        W 2407   5.264   5.265  28.215  0.1468  0.2172 -0.1018
  208W        W 2408  23.191   4.222  27.687 -0.2234 -0.3273 -0.1439
  209W        W 2409   3.654   7.739  19.432  0.1978 -0.3062 -0.0690
  210W        W 2410  15.654   3.671  21.795 -0.2264 -0.0379  0.0707
  211W        W 2411   2.855   7.356   0.504  0.0485 -0.0468 -0.1038
  212W        W 2412   0.179   4.513  27.153  0.0237 -0.2457 -0.1318
  213W        W 2413  19.483   7.571  23.042  0.0712  0.1104 -0.0298
  214W        W 2414   4.503   5.693   4.727  0.0844 -0.1403 -0.0463
  215W        W 2415  24.782   2.846  22.530  0.2350  0.2500  0.0197
  216W        W 2416  15.951   7.093  27.318  0.2530  0.0272 -0.1349
  217W        W 2417   6.628   2.608   5.397  0.2090 -0.1675  0.2094
  218W        W 2418  21.808   3.853   9.690  0.0076 -0.2359 -0.1078
  219W        W 2419   7.060   7.634   6.036 -0.0857 -0.1956  0.2708
  220W        W 2420  22.736   4.525   6.593 -0.0914 -0.0336 -0.0174
  221W        W 2421  20.198   5.509   1.595 -0.0940  0.0192 -0.0226
  222W        W 2422  10.314   6.989   4.690  0.2727  0.0090 -0.1066
  223W        W 2423  21.968   6.917  31.250  0.2132  0.1280  0.1923
  224W        W 2424  16.560   6.014  23.921  0.4346  0.0044  0.1072
  225W        W 2425  24.013   2.468  29.490 -0.2076  0.0638  0.1404
  226W        W 2426   7.114   3.584  17.149  0.0680  0.1422 -0.1540
  227W        W 2427  10.131   4.069   0.781  0.0409 -0.0811  0.3099
  228W        W 2428   7.525   4.511  29.729 -0.0562 -0.1009  0.0859
  229W        W 2429   7.612   4.103  30.256  0.3133 -0.1023  0.1082
  230W        W 2430  16.460   6.071  12.985  0.2171  0.3471 -0.0569
  231W        W 2431  22.328   5.557  31.117 -0.1662  0.4263  0.0217
  232W        W 2432   3.354   5.314  31.167 -0.1569 -0.0098  0.1629
  233W        W 2433   4.876   5.170   8.834  0.1195  0.1078  0.4330
  234W        W 2434  12.979   5.610  24.486  0.3450  0.0925 -0.0464
  235W        W 2435   9.069   2.266  17.283 -0.1164 -0.0026  0.1566
  236W        W 2436   0.099   0.229  20.282 -0.2204  0.0092 -0.2747
  237W        W 2437   2.201   5.707  23.675 -0.2484  0.0569 -0.1668
  238W        W 2438  22.417   6.227   9.162  0.3032 -0.1449  0.0287
  239W        W 2439   3.248   0.621  28.619 -0.2735  0.4129  0.2055
  240W        W 2440  14.767   0.887   0.317 -0.1285 -0.1664  0.3526
  241W        W 2441   1.729   2.682  26.307  0.0619 -0.2128  0.0710
  242W        W 2442   2.808   3.133   6.894 -0.0455 -0.4145 -0.0848
  243W        W 2443   4.599   6.400  21.916 -0.0856  0.0671 -0.1196
  244W        W 2444  12.279   3.183  26.424 -0.1294 -0.2606  0.2724
  245W        W 2445  11.803   4.806   0.004  0.0063 -0.0477 -0.0492
  246W        W 2446  18.661   4.424  13.213 -0.0685  0.1319  0.0659
  247W        W 2447  10.983   1.431  22.532  0.1684 -0.0455  0.1617
  248W        W 2448  16.211   6.916  29.597 -0.0667  0.1413 -0.1051
  249W        W 2449  16.406   5.610  24.186  0.1422  0.1892 -0.4500
  250W        W 2450  15.390   7.151  10.367 -0.0569  0.0076 -0.4163
  251W        W 2451  24.014   3.127  24.819 -0.0465  0.0690 -0.2955
  252W        W 2452  16.018   7.282  12.208 -0.0027 -0.1095 -0.1727
  253W        W 2453  19.140   6.231  13.485  0.1200 -0.2095 -0.1120
  254W        W 2454   3.282   6.423  22.831 -0.1961 -0.1157  0.2630
  255W        W 2455   8.575   4.034   9.964 -0.2068 -0.1867 -0.1364
  256W        W 2456  20.890   0.145  10.667 -0.1037 -0.0026 -0.3981
  257W        W 2457   2.854   5.697  31.565 -0.4053  0.0344 -0.0847
  258W        W 2458  20.816   1.941   5.635  0.2997 -0.1136  0.2166
  259W        W 2459  24.234   2.707  22.727  0.0866 -0.2673 -0.0296
  260W        W 2460   8.227   0.733   1.173  0.0853  0.1226 -0.2134
  261W        W 2461   5.809   4.629   0.037 -0.6008  0.2224  0.1604
  262W        W 2462  14.092   6.178  31.228  0.3748  0.1839 -0.2478
  263W        W 2463  15.841   3.394  24.815 -0.2070 -0.0501  0.0176
  264W        W 2464   3.558   6.773  18.625 -0.1578 -0.2120 -0.0091
  265W        W 2465  24.431   5.666  11.879 -0.0780 -0.1080 -0.0025
  266W        W 2466   5.298   4.785  17.740 -0.2562 -0.1468  0.1352
  267W        W 2467   9.599   3.124  25.322 -0.0036  0.2066  0.0663
  268W        W 2468  11.239   3.197  24.481 -0.3098  0.3339  0.0579
  269W        W 2469  13.178   2.270  21.143 -0.0265  0.2271 -0.1825
  270W        W 2470  14.513   5.876  28.048 -0.1384  0.0504 -0.1095
  271W        W 2471   1.291   2.764  22.088  0.1655  0.1504  0.0103
  272W        W 2472  24.665   6.241  10.677  0.3264  0.2453  0.1249
  273W        W 2473  21.475   0.965   1.720  0.0676 -0.0519  0.0958
  274W        W 2474   2.880   0.409  26.662 -0.1259 -0.5345 -0.2552
  275W        W 2475   2.277   3.308  23.778  0.0140 -0.2618 -0.0358
  276W        W 2476   1.622   3.020  32.241 -0.1161  0.0307  0.0690
  277W        W 2477  22.640   4.977   4.429  0.0600  0.1152 -0.1677
  278W        W 2478  22.286   4.049  14.072  0.2082  0.3195 -0.1645
  279W        W 2479  22.730   6.828   3.938 -0.1232 -0.1715 -0.0058
  280W        W 2480   7.165   2.517   3.187 -0.0298 -0.1010 -0.0607
  281W        W 2481  22.825   5.819   3.788  0.0814 -0.0165  0.1309
  282W        W 2482  25.004   5.352  13.144 -0.2931 -0.2771 -0.0998
  283W        W 2483  13.029   0.486   6.134  0.3654 -0.1045  0.0835
  284W        W 2484  13.620   3.646   4.161  0.0257  0.1962  0.0531
  285W        W 2485   9.916   5.011   5.613 -0.0870  0.0012 -0.1603
  286W        W 2486   6.543   0.977   1.514  0.3052  0.0205  0.2656
  287W        W 2487  24.465   3.419   5.909  0.2397 -0.1674 -0.1379
  288W        W 2488  19.800   0.097  32.545 -0.2530  0.1383 -0.0027
  289W        W 2489   3.202   3.248  31.369 -0.0744 -0.1176 -0.0490
  290W        W 2490  11.719   2.570   6.588 -0.0235 -0.1143  0.0756
  291W        W 2491   7.281   1.532  31.607  0.0475  0.0300 -0.0325
  292W        W 2492  15.297   2.810  23.636  0.0285 -0.3255  0.2178
  293W        W 2493   0.488   5.372  28.663  0.0707 -0.0204  0.0403
  294W        W 2494  12.955   0.035  25.026 -0.0968 -0.1251  0.0340
  295W        W 2495  17.463   5.661  23.281  0.1020 -0.2499 -0.1110
  296W        W 2496  13.793   6.469  20.087  0.2404 -0.0869 -0.4809
  297W        W 2497   3.933   2.532   9.271  0.0869  0.1871 -0.0608
  298W        W 2498  17.650   4.771  17.534  0.0339  0.1521 -0.0140
  299W        W 2499  17.471   2.595   1.005  0.2156  0.0503  0.0633
  300W        W 2500  22.689   4.548   0.750  0.0433 -0.0869 -0.0349
  301W        W 2501   8.113   1.688   8.727  0.0417  0.1781  0.1379
  302W        W 2502   2.820   4.421  26.325  0.1806  0.0961 -0.0369
  303W        W 2503  21.071   3.248  23.501  0.1814  0.1109  0.0752
  304W        W 2504  16.686   6.779  26.935 -0.2285  0.0806  0.1594
  305W        W 2505   3.339   5.343  19.034  0.2680  0.0254  0.0193
  306W        W 2506   1.138   1.169   4.594 -0.1799 -0.4011 -0.2996
  307W        W 2507  12.956   0.983  27.951  0.1324  0.2134  0.2966
  308W        W 2508  18.264   4.655  18.154 -0.0423 -0.1029 -0.4663
  309W        W 2509   4.005   6.208   2.610  0.1490  0.0369  0.0864
  310W        W 2510  20.213   1.681  11.797 -0.1120  0.0054  0.0126
  311W        W 2511   7.270   0.123  27.421 -0.1022 -0.3021 -0.1716
  312W        W 2512   1.756   5.327   0.727 -0.1346 -0.1863 -0.1241
  313W        W 2513  15.996   6.649  23.797 -0.2956  0.2189 -0.2060
  314W        W 2514   8.418   5.685  22.962  0.1263  0.1636 -0.1783
  315W        W 2515   7.163   4.457  16.529 -0.2563 -0.0835  0.4485
  316W        W 2516  24.986   5.963  12.912  0.1343  0.0619  0.1128
  317W        W 2517  15.697   2.377  26.220 -0.0769  0.0429 -0.0121
  318W        W 2518  22.351   2.707   7.858 -0.2331  0.3123 -0.2157
  319W        W 2519   8.381   3.467  25.234  0.0436  0.0688 -0.1411
  320W        W 2520   9.903   0.039  32.342 -0.1026 -0.1055 -0.0868
  321W        W 2521  21.520   2.723   6.462  0.1405  0.0334  0.0289
  322W        W 2522   6.235   2.084  14.416  0.1708 -0.0524  0.2415
  323W        W 2523  12.773   5.813   6.947 -0.0846  0.0413 -0.0825
  324W        W 2524   7.020   0.282   5.956 -0.2641  0.0481 -0.0999
  325W        W 2525  19.507   3.821   3.506  0.1515  0.0800  0.1296
  326W        W 2526  12.511   7.548  25.180  0.0706  0.0148  0.2180
  327W        W 2527   8.465   4.709  27.486 -0.0909  0.3233  0.1038
  328W        W 2528  19.696   1.226   1.694  0.1369 -0.0283  0.0311
  329W        W 2529  13.697   7.172   5.052 -0.2630  0.0348  0.0447
  330W        W 2530  13.620   6.340   8.784 -0.0349  0.0103 -0.0888
  331W        W 2531   4.592   5.149  22.878 -0.1885 -0.3958 -0.0657
  332W        W 2532   6.074   0.218  31.012 -0.2405  0.4377 -0.1446
  333W        W 2533  22.425   1.998   5.113 -0.2275 -0.0676  0.0242
  334W        W 2534  13.709   5.652  12.198 -0.2578 -0.3979 -0.0139
  335W        W 2535   7.937   4.390  16.197  0.0313 -0.0397  0.2513
  336W        W 2536  12.174   2.880  22.755 -0.0188 -0.0557 -0.2389
  337W        W 2537  23.094   0.243  14.637  0.1415 -0.0302  0.3269
  338W        W 2538   7.030   1.836  16.996 -0.0761 -0.2525  0.1628
  339W        W 2539  13.259   0.887  24.423 -0.0501  0.1119  0.0084
  340W        W 2540   5.623   2.393  25.062 -0.2956  0.0690 -0.2372
  341W        W 2541  14.401   2.214   1.618 -0.0767  0.4090  0.1676
  342W        W 2542  20.211   2.144  11.631 -0.0642 -0.0551 -0.3402
  343W        W 2543   3.414   1.923  24.704  0.1546  0.0172 -0.1931
  344W        W 2544  11.249   3.856   7.497  0.0695  0.2171 -0.2616
  345W        W 2545   2.150   2.727   2.369 -0.2607 -0.2775 -0.0837
  346W        W 2546   3.086   6.260  18.757 -0.1815  0.1285 -0.1102
  347W        W 2547   6.294   6.136  30.601 -0.1485  0.1859 -0.0612
  348W        W 2548   7.305   2.939  24.933  0.4030  0.3160 -0.1277
  349W        W 2549  16.411   6.520   8.166 -0.0284 -0.1021 -0.3027
  350W        W 2550  19.412   6.309  28.341 -0.5229  0.1181  0.0851
  351W        W 2551   0.502   5.794  20.644  0.3261 -0.2883 -0.1936
  352W        W 2552  16.587   4.611  21.835  0.0359  0.1199  0.1180
  353W        W 2553  18.031   3.282   5.601  0.3058 -0.0277  0.2324
  354W        W 2554   1.761   7.296   5.314  0.4231  0.0968 -0.0802
  355W        W 2555   7.150   4.465  27.067 -0.1235 -0.4729  0.1168
  356W        W 2556  17.721   5.586   4.726  0.0675  0.1803 -0.2535
  357W        W 2557   1.869   7.344   1.059  0.0459  0.3633 -0.1318
  358W        W 2558  21.908   0.463  23.758 -0.1145 -0.0519  0.2193
  359W        W 2559  11.220   1.783  19.593 -0.1440 -0.0129 -0.2356
  360W        W 2560   4.796   6.039  22.771  0.3152  0.0044 -0.2066
  361W        W 2561  20.551   1.238   8.112 -0.1657 -0.0334 -0.0303
  362W        W 2562   8.481   3.147  24.559  0.0149  0.0647  0.4883
  363W        W 2563  11.697   0.971  18.723 -0.1953 -0.0543 -0.5028
  364W        W 2564   2.072   3.834  22.018  0.0110  0.3263 -0.2633
  365W        W 2565  15.261   5.312  31.558  0.1302 -0.0573  0.0876
  366W        W 2566   5.445   7.432  29.475  0.2038  0.1456 -0.3722
  367W        W 2567  14.050   6.065   4.147 -0.0592  0.0667 -0.2282
  368W        W 2568   0.916   7.480  29.431 -0.2555 -0.0172  0.1941
  369W        W 2569  14.100   7.527   6.761 -0.1395  0.1880  0.1920
  370W        W 2570  22.271   0.213  28.005 -0.0414  0.0744  0.2440
  371W        W 2571  23.604   6.114  10.421 -0.0491  0.0684 -0.4494
  372W        W 2572  20.779   6.454  27.116  0.0531  0.2593  0.0296
  373W        W 2573  17.458   7.260   9.198  0.2104  0.0306  0.0000
  374W        W 2574  20.517   7.752   3.136  0.1071 -0.2063 -0.2173
  375W        W 2575   7.020   4.726   8.897  0.1838  0.1262  0.2658
  376W        W 2576  17.537   6.250  25.064 -0.1679 -0.3483  0.2489
  377W        W 2577  12.451   4.038  20.879 -0.3832  0.0992  0.2846
  378W        W 2578  22.804   2.093   2.980 -0.3201  0.0955 -0.0627
  379W        W 2579   1.940   5.431   9.193  0.0223 -0.1271 -0.1453
  380W        W 2580  23.898   2.359  29.945 -0.4138  0.1275 -0.4016
  381W        W 2581   2.095   5.577   8.338 -0.0741 -0.3920 -0.0151
  382W        W 2582  17.074   4.359  30.143  0.0303  0.2759  0.0986
  383W        W 2583  13.146   3.585   4.398 -0.0059  0.0276 -0.1884
  384W        W 2584  12.827   6.371   7.992  0.2825  0.1830 -0.0351
  385W        W 2585   5.395   5.129  17.358  0.1993 -0.0541  0.2238
  386W        W 2586  23.200   5.832  25.889  0.4527  0.3515 -0.2117
  387W        W 2587  14.475   2.406  32.512  0.2501  0.0244  0.1961
  388W        W 2588   9.129   3.528  22.913  0.0481  0.3106 -0.2155
  389W        W 2589  10.931   3.917  27.811 -0.0352 -0.0668 -0.2111
  390W        W 2590  18.064   7.602   7.397  0.2264  0.0140  0.0882
  391W        W 2591   6.437   3.632   1.105 -0.1067 -0.2568  0.0826
  392W        W 2592  24.550   0.600  24.086  0.0010 -0.1197  0.0087
  393W        W 2593  21.850   7.403   4.769  0.0342 -0.2121  0.1644
  394W        W 2594  14.219   3.485  30.577 -0.0443  0.1234 -0.0372
  395W        W 2595   3.243   0.875  26.685  0.3736  0.0875  0.1225
  396W        W 2596   9.480   7.700  32.571 -0.0752 -0.3759  0.3071
  397W        W 2597  20.668   5.434  28.303  0.5160 -0.3447  0.3578
  398W        W 2598  14.898   5.205   6.367 -0.0844  0.1581 -0.2255
  399W        W 2599   9.332   0.660   7.458 -0.1478 -0.0017 -0.0818
  400W        W 2600  17.829   2.724  22.951  0.2084  0.2245  0.1255
  401W        W 2601  10.737   3.277  25.656  0.1748 -0.0820 -0.1508
  402W        W 2602   0.017   1.130   6.349  0.0249 -0.0858  0.0558
  403W        W 2603   6.968   6.700  24.176  0.1468 -0.0628  0.0697
  404W        W 2604   0.500   3.661  19.420 -0.2830  0.0014  0.0406
  405W        W 2605  15.911   4.968  10.319  0.1441 -0.0105  0.1343
  406W        W 2606  25.148   3.728  28.084 -0.1351 -0.1380  0.0359
  407W        W 2607  10.869   6.697   3.100  0.1770  0.2088 -0.0371
  408W        W 2608  11.061   6.527   6.611  0.1769 -0.0278  0.1912
  409W        W 2609  11.841   6.233  10.400 -0.0958  0.0289 -0.3203
  410W        W 2610   8.815   1.476  17.295  0.0052  0.2299 -0.1340
  411W        W 2611  10.544   7.352  18.371 -0.0141  0.0440  0.2286
  412W        W 2612  13.481   2.656  32.463 -0.0526  0.3281 -0.2050
  413W        W 2613  22.956   5.476  21.724  0.0155 -0.0363 -0.0098
  414W        W 2614   9.736   3.140  26.754  0.1126  0.1642 -0.3198
  415W        W 2615  19.278   1.195   8.911  0.1957  0.0647  0.0721
  416W        W 2616  10.307   2.588  25.363  0.2160 -0.3333 -0.1641
  417W        W 2617  20.411   2.532  23.790 -0.1746  0.0010  0.1184
  418W        W 2618  13.951   2.555  21.666  0.0028 -0.1162 -0.1635
  419W        W 2619  19.604   0.257   9.153 -0.0693 -0.1415  0.1068
  420W        W 2620  20.742   4.514  25.349 -0.2420  0.0705  0.1463
  421W        W 2621  25.040   7.228  11.111  0.1349 -0.0134 -0.1139
  422W        W 2622   7.785   0.514   7.127 -0.1319  0.2700 -0.1440
  423W        W 2623  21.229   6.681  28.034  0.0456  0.0254  0.3222
  424W        W 2624  21.861   4.502   8.114 -0.0083  0.0082  0.1370
  425W        W 2625  10.733   1.545  26.198 -0.2415 -0.0834 -0.2845
  426W        W 2626   1.554   5.260   1.372 -0.1845 -0.0453 -0.0751
  427W        W 2627  20.022   5.261  15.850 -0.3629 -0.0179  0.0594
  428W        W 2628  24.300   1.768  22.387 -0.2129  0.1957  0.1553
  429W        W 2629  20.397   2.835   7.634 -0.1791  0.2566 -0.2881
  430W        W 2630   9.353   2.425  25.539  0.3408  0.0010  0.1709
  431W        W 2631   6.423   2.059  27.985 -0.0353 -0.1114 -0.0996
  432W        W 2632  22.406   2.328  29.990 -0.1636 -0.2391 -0.0719
  433W        W 2633  17.125   2.064  16.522 -0.2750  0.0748  0.2337
  434W        W 2634  19.292   3.837  23.952  0.1505  0.2059  0.1537
  435W        W 2635  12.911   5.561  10.079  0.3177  0.0642 -0.1298
  436W        W 2636  24.272   0.697   2.590  0.1593  0.0522 -0.0492
  437W        W 2637   7.681   0.709  30.635  0.1442 -0.0240 -0.0508
  438W        W 2638  16.101   0.834  12.521  0.1645  0.0518  0.2922
  439W        W 2639  10.190   3.246   9.911 -0.0302 -0.0243  0.0346
  440W        W 2640   3.972   2.943  22.061 -0.1654 -0.2531 -0.0132
  441W        W 2641   6.112   2.172  17.517  0.2449 -0.2694 -0.4715
  442W        W 2642   2.110   2.638  16.806  0.2009 -0.0788  0.2262
  443W        W 2643   2.419   6.617  25.354  0.1603  0.2521 -0.0600
  444W        W 2644  24.879   6.891  25.138  0.0307  0.2852 -0.3259
  445W        W 2645   5.331   4.407   7.135  0.0921  0.0412 -0.0860
  446W        W 2646   8.491   7.619  25.413  0.1574 -0.1134  0.2962
  447W        W 2647   2.065   4.046   4.567 -0.1710  0.1288 -0.3153
  448W        W 2648   8.977   1.648  19.843 -0.1660 -0.1946 -0.1539
  449W        W 2649   3.814   6.011  17.063  0.2922  0.2317 -0.0623
  450W        W 2650  13.620   0.690  13.086  0.1953  0.1564 -0.0323
  451W        W 2651  17.226   1.714  15.220 -0.2083 -0.1985 -0.0297
  452W        W 2652   0.806   1.140  26.452 -0.1874 -0.1685 -0.0986
  453W        W 2653   3.607   0.920  27.722 -0.1437 -0.1055  0.0114
  454W        W 2654  19.405   1.827   2.911  0.0168 -0.0966  0.1882
  455W        W 2655   3.524   5.704  23.948 -0.1123 -0.1120  0.0147
  456W        W 2656   7.181   4.586  31.279  0.0156 -0.1351 -0.1816
  457W        W 2657  19.286   1.010   0.747  0.1647 -0.1030  0.0023
  458W        W 2658  12.898   4.847  30.261  0.0668  0.1799  0.1650
  459W        W 2659   5.937   6.091   7.695 -0.0543  0.1295  0.1207
  460W        W 2660   3.408   6.089   6.733  0.2519  0.1478 -0.1090
  461W        W 2661  21.662   6.557  30.115  0.1253  0.0551 -0.1018
  462W        W 2662   1.149   5.669   5.015 -0.0685  0.0072  0.1826
  463W        W 2663   9.777   0.313   9.357  0.0869 -0.1045  0.3049
  464W        W 2664   7.207   4.565  21.415  0.1769  0.2001 -0.0774
  465W        W 2665  13.593   5.719  25.647 -0.3009 -0.3239 -0.0328
  466W        W 2666  19.936   5.023   5.647 -0.0620  0.3108 -0.0908
  467W        W 2667  24.277   7.522   8.913 -0.0407 -0.0804  0.3852
  468W        W 2668   9.105   3.408  27.113 -0.2354 -0.1208  0.3910
  469W        W 2669   6.897   3.959  20.099  0.0992  0.5384  0.0969
  470W        W 2670   7.176   2.325  10.031  0.0192 -0.2804 -0.2036
  471W        W 2671  10.297   4.385  16.439 -0.1948 -0.1658 -0.2043
  472W        W 2672  13.115   4.498  22.920  0.0978 -0.2187  0.0209
  473W        W 2673  12.820   3.990   7.570 -0.2450 -0.1711 -0.4393
  474W        W 2674  15.822   5.335  27.339 -0.1759  0.0168  0.3021
  475W        W 2675  17.150   4.580  26.693  0.1868 -0.1757 -0.0943
  476W        W 2676  11.001   7.209  29.483  0.0923 -0.0720  0.2471
  477W        W 2677  23.948   3.222  29.474 -0.1204 -0.2224 -0.1926
  478W        W 2678  11.995   0.385  29.616  0.1010  0.0735 -0.0876
  479W        W 2679   5.091   5.868  28.956 -0.2369  0.0950  0.0799
  480W        W 2680   2.140   1.831  23.888 -0.1520  0.0713  0.0433
  481W        W 2681  12.849   3.793  32.405  0.2658 -0.1360  0.1434
  482W        W 2682  17.485   6.657   0.463 -0.0161 -0.0238 -0.0938
  483W        W 2683  12.923   6.874  29.333  0.1430  0.1918 -0.1203
  484W        W 2684  18.950   3.456   5.786  0.2312 -0.2922 -0.0555
  485W        W 2685   5.456   6.257   3.676 -0.1041 -0.0107 -0.0985
  486W        W 2686  14.130   1.559  10.960 -0.1314  0.0507  0.0594
  487W        W 2687  22.979   0.716  13.960  0.0125  0.1259  0.1583
  488W        W 2688  20.134   7.669   5.967 -0.1849 -0.0967 -0.0002
  489W        W 2689   9.651   3.404   8.777 -0.0789  0.2242 -0.1595
  490W        W 2690  24.694   3.947  30.255  0.1581 -0.1053  0.1363
  491W        W 2691   2.970   5.190  28.242  0.1195  0.0571 -0.0339
  492W        W 2692  21.931   6.523   3.831  0.1656  0.0038 -0.0241
  493W        W 2693  12.897   1.817  13.776  0.0406  0.0868 -0.2324
  494W        W 2694   0.079   4.973  12.198  0.2570 -0.5030  0.0487
  495W        W 2695  24.798   4.893  11.496  0.0551 -0.0604  0.2100
  496W        W 2696  20.004   3.821  23.116 -0.0231  0.2243 -0.0163
  497W        W 2697   1.065   6.082  21.928  0.0395  0.0297 -0.0390
  498W        W 2698   4.005   0.760   2.262 -0.2985  0.1946  0.0424
  499W        W 2699  14.184   2.218   9.004 -0.0150  0.2232  0.0422
  500W        W 2700   6.498   5.283  24.170 -0.1723  0.0793  0.1350
  501W        W 2701  18.670   6.140  13.703 -0.1425  0.1260  0.2101
  502W        W 2702  19.437   3.479  31.702  0.0506  0.1630 -0.0955
  503W        W 2703  16.687   4.272  28.372 -0.0006  0.0038 -0.0697
  504W        W 2704  21.859   0.698  30.758  0.1684  0.3259 -0.1819
  505W        W 2705   1.269   3.892   8.813 -0.2253 -0.0091 -0.0040
  506W        W 2706   9.121   7.577  18.565  0.0355 -0.2560 -0.0372
  507W        W 2707   6.047   4.241   7.897 -0.1585 -0.0078 -0.0746
  508W        W 2708   1.995   6.886   1.528  0.1961 -0.0872 -0.1827
  509W        W 2709   9.940   4.640  24.203  0.1380 -0.0507 -0.1981
  510W        W 2710  12.985   4.219  29.059 -0.2123  0.1942 -0.0424
  511W        W 2711  12.203   4.463   2.025 -0.0950 -0.2294  0.1276
  512W        W 2712  18.734   6.607  23.444  0.0218  0.3098  0.2305
  513W        W 2713  22.351   2.981   5.090  0.0241  0.1473 -0.1978
  514W        W 2714  24.433   2.294  21.955  0.2654  0.1160  0.2029
  515W        W 2715  19.542   4.101  17.364 -0.0197 -0.1326  0.2430
  516W        W 2716  18.543   0.966  26.816 -0.1043 -0.1500 -0.1519
  517W        W 2717  19.738   6.698   0.303  0.2078 -0.0078 -0.2059
  518W        W 2718   2.589   6.424   9.157  0.0128 -0.0649  0.0502
  519W        W 2719  23.991   0.160   2.819  0.1305 -0.1643  0.0247
  520W        W 2720   0.530   2.906  30.184  0.2108  0.2548 -0.0109
  521W        W 2721   6.114   4.615   7.091  0.0392  0.2102 -0.2241
  522W        W 2722  23.056   5.030  15.225  0.0355 -0.1324  0.1149
  523W        W 2723  18.146   0.500   3.037  0.0685 -0.1113 -0.2146
  524W        W 2724   6.883   6.895  16.636  0.2392  0.0120 -0.4856
  525W        W 2725  19.718   3.134   9.620 -0.0944 -0.1886  0.1361
  526W        W 2726   2.880   1.420  30.249  0.0731  0.0230  0.2456
  527W        W 2727  17.027   2.323   9.044 -0.2211 -0.3503  0.1536
  528W        W 2728  18.292   4.800  29.800  0.1338 -0.0816 -0.0466
  529W        W 2729   9.798   3.489  24.105  0.0209 -0.2677 -0.1200
  530W        W 2730   4.402   2.810  26.533 -0.3625 -0.0902  0.1617
  531W        W 2731   9.979   3.823   6.257 -0.0558  0.0751  0.1027
  532W        W 2732  24.173   1.586  24.983  0.1700  0.1361 -0.2627
  533W        W 2733  20.025   1.208  25.554 -0.0858 -0.1556 -0.1663
  534W        W 2734  19.961   6.010  30.512  0.0733  0.0206 -0.1693
  535W        W 2735   3.658   3.548  20.797  0.0537 -0.2480 -0.3703
  536W        W 2736  20.348   0.044  29.605  0.0141 -0.1582  0.1512
  537W        W 2737  23.229   0.006  26.874 -0.0401 -0.0148 -0.1034
  538W        W 2738  21.191   2.044  31.356  0.2118 -0.0767  0.0586
  539W        W 2739  18.445   3.269  30.391  0.1382 -0.0952 -0.0070
  540W        W 2740   5.833   6.421  17.362  0.0699 -0.0649  0.1226
  541W        W 2741   5.464   0.497  23.117  0.2903 -0.2328  0.3422
  542W        W 2742  18.796   3.831   0.775  0.3277  0.0429  0.2210
  543W        W 2743   2.173   6.948   3.482 -0.2468 -0.1669 -0.3225
  544W        W 2744   6.587   0.217  21.753 -0.0817 -0.0278  0.2916
  545W        W 2745  19.009   4.627   6.719  0.3091  0.0170 -0.0056
  546W        W 2746  24.090   0.383  30.550  0.0841  0.1273  0.1216
  547W        W 2747   5.205   7.491  25.803  0.1242 -0.0844  0.1583
  548W        W 2748   9.117   5.791  29.746  0.3614  0.0513  0.0933
  549W        W 2749   7.528   3.143  30.347  0.1183  0.0892  0.0559
  550W        W 2750   3.714   4.708   2.352  0.0547  0.0288 -0.0371
  551W        W 2751  16.751   4.998  26.287  0.0025  0.2859 -0.2098
  552W        W 2752  14.183   1.111   0.988  0.0371 -0.0505 -0.2152
  553W        W 2753  13.839   5.003  25.104  0.0021  0.0150 -0.0469
  554W        W 2754  20.950   1.982   8.626  0.1530 -0.1101 -0.4463
  555W        W 2755  14.131   4.042  10.230  0.5854  0.1017  0.0372
  556W        W 2756  22.233   2.989  11.126 -0.1996 -0.1771 -0.0288
  557W        W 2757  19.359   0.028   8.804  0.2254  0.1986  0.2327
  558W        W 2758  15.572   3.002  14.215 -0.1650 -0.0104 -0.1423
  559W        W 2759  10.796   2.127  19.393  0.2413  0.0199  0.0448
  560W        W 2760  17.705   6.207  10.818  0.1732  0.2150 -0.0272
  561W        W 2761   1.766   2.453   5.631  0.1743  0.0713  0.0463
  562W        W 2762  19.592   3.298   8.809 -0.2878 -0.0221 -0.2198
  563W        W 2763   9.416   7.102  29.608 -0.1693  0.0663  0.2366
  564W        W 2764  10.795   1.034   2.049 -0.0926 -0.0190 -0.0894
  565W        W 2765  16.938   0.709  11.168 -0.3078 -0.0499  0.0684
  566W        W 2766  14.274   1.035   0.398  0.0193 -0.1093  0.0463
  567W        W 2767  12.419   0.319   0.941  0.0654  0.1969  0.1761
  568W        W 2768   0.419   5.554  18.756 -0.1003 -0.1522  0.3953
  569W        W 2769  13.858   1.301   9.432  0.1853 -0.0312 -0.0104
  570W        W 2770   3.747   0.215  28.995  0.0544  0.0772  0.0267
  571W        W 2771   8.621   0.909   8.630  0.1453 -0.0795  0.0885
  572W        W 2772  16.974   1.715  11.472  0.0266 -0.1744  0.0297
  573W        W 2773   3.732   1.220  25.950 -0.0252  0.2861  0.0180
  574W        W 2774  21.274   0.416   3.952  0.1179 -0.0426  0.0142
  575W        W 2775   4.215   4.851   2.374 -0.1119 -0.2365  0.0149
  576W        W 2776   9.888   2.922  22.904 -0.2290  0.3653 -0.0062
  577W        W 2777   9.616   3.295   6.179  0.0157 -0.2254 -0.2051
  578W        W 2778   9.361   3.445  19.979 -0.2265  0.0054 -0.0831
  579W        W 2779   6.266   0.669   4.804  0.0020  0.0275 -0.3809
  580W        W 2780   4.310   4.935   6.384  0.0119  0.0098  0.2383
  581W        W 2781   4.314   2.718  22.374  0.0303 -0.1506 -0.1503
  582W        W 2782  18.462   2.693  25.746 -0.3412  0.0103  0.2097
  583W        W 2783   1.607   0.743  11.103  0.0851  0.0421  0.0571
  584W        W 2784   2.276   2.952  18.271  0.1194  0.0413  0.1964
  585W        W 2785  21.436   3.365  14.280  0.1437 -0.3913 -0.4115
  586W        W 2786   1.221   4.484  32.173 -0.1426 -0.3003 -0.0528
  587W        W 2787  13.211   1.524  24.469 -0.0152 -0.0667  0.0938
  588W        W 2788   9.422   5.134   3.970  0.0391  0.0120  0.2117
  589W        W 2789  21.559   4.095  16.272  0.1782 -0.0070  0.1618
  590W        W 2790  22.855   3.582  30.364  0.0885 -0.1946  0.3076
  591W        W 2791   1.831   4.179   7.975 -0.1439 -0.1150  0.1292
  592W        W 2792   6.625   6.359  24.348 -0.1858 -0.0867  0.0565
  593W        W 2793  20.721   6.839  21.907 -0.1151 -0.1897  0.2986
  594W        W 2794   6.065   3.493  21.852 -0.1412 -0.3079 -0.2298
  595W        W 2795  12.002   2.576   2.644 -0.0951 -0.0007 -0.0557
  596W        W 2796   7.634   0.018  26.996 -0.1175 -0.0487  0.0291
  597W        W 2797  14.878   5.929   5.211  0.1197 -0.0260 -0.1290
  598W        W 2798  15.995   7.579  14.909  0.2561  0.1574 -0.0964
  599W        W 2799  11.677   4.941  27.681 -0.0840 -0.0971  0.0381
  600W        W 2800   0.341   1.354   2.189 -0.4113  0.2738  0.1952
  601W        W 2801  12.253   7.022  10.388  0.2540  0.0089  0.0645
  602W        W 2802   5.221   0.377  21.841 -0.0501  0.1850  0.0713
  603W        W 2803   2.040   4.825  27.283 -0.0241 -0.1038 -0.0193
  604W        W 2804  11.352   2.249  18.504  0.1088 -0.1551  0.0346
  605W        W 2805   2.539   2.969  17.293  0.1222 -0.0154 -0.2769
  606W        W 2806  22.957   1.203   0.800  0.0709 -0.0538  0.0365
  607W        W 2807  17.543   7.402   3.385  0.1073  0.1239 -0.2363
  608W        W 2808  23.098   0.470  24.003  0.3261 -0.3815  0.1936
  609W        W 2809  21.226   5.310   9.350 -0.1399  0.0175  0.0612
  610W        W 2810   9.460   0.942   9.559 -0.0486  0.1343 -0.0462
  611W        W 2811  23.076   6.225  30.996  0.1344  0.3318 -0.0717
  612W        W 2812   1.711   6.539  30.376  0.1415 -0.1983  0.0684
  613W        W 2813  20.648   2.452   1.853 -0.0384  0.2162 -0.0363
  614W        W 2814   4.160   2.616  24.867  0.2828 -0.2619  0.1312
  615W        W 2815  16.959   7.005  30.050  0.1178  0.2224  0.2155
  616W        W 2816  11.703   1.364  31.134 -0.2332  0.1475  0.0773
  617W        W 2817  24.188   6.091  21.590 -0.0446  0.1022  0.0390
  618W        W 2818  20.279   3.112  27.177 -0.1606  0.0021  0.1653
  619W        W 2819   4.547   5.743   8.658  0.0814 -0.1110  0.0843
  620W        W 2820  16.480   3.028  17.260  0.1479 -0.0437 -0.1728
  621W        W 2821   3.332   6.107  22.411 -0.0760  0.0591  0.2380
  622W        W 2822  19.826   1.107   1.047 -0.2620 -0.1218 -0.1138
  623W        W 2823  15.966   2.072   9.164  0.1780 -0.0783  0.0650
  624W        W 2824   0.458   7.021  26.902  0.3265 -0.2216 -0.1324
  625W        W 2825  20.746   3.809   3.812  0.2948  0.0015 -0.0708
  626W        W 2826  15.515   1.083  31.144 -0.0158  0.0253 -0.2409
  627W        W 2827  11.600   2.594  25.137  0.2714  0.0349  0.1876
  628W        W 2828  10.197   5.873  30.333 -0.2653 -0.0775  0.5031
  629W        W 2829  18.364   5.557  23.083  0.4533 -0.0255  0.1520
  630W        W 2830  15.050   3.368  30.661  0.1867 -0.0934 -0.1912
  631W        W 2831   2.148   3.907   8.899 -0.0904  0.1926  0.3458
  632W        W 2832   0.286   4.374   9.748 -0.1263 -0.2141  0.1949
  633W        W 2833  20.729   4.280  26.204 -0.0064  0.1943  0.2680
  634W        W 2834  12.811   7.274   7.471  0.0350  0.0489  0.0620
  635W        W 2835  15.823   4.948   9.652  0.1258  0.4313  0.3064
  636W        W 2836  10.737   7.586  17.311 -0.1252 -0.0422 -0.0020
  637W        W 2837  19.816   2.483  23.604 -0.1856 -0.0088  0.0270
  638W        W 2838  22.703   4.541   9.534  0.2730  0.1328  0.0900
  639W        W 2839  24.224   4.987  28.978 -0.1814  0.0849 -0.1710
  640W        W 2840  16.342   1.548  16.720 -0.2984  0.3345 -0.1217
  641W        W 2841  18.115   1.172  15.437 -0.1036  0.0609 -0.1176
  642W        W 2842   4.921   0.295  28.577  0.3330  0.0706  0.0193
  643W        W 2843  18.836   2.502   0.350 -0.1421 -0.4788  0.1371
  644W        W 2844  19.280   7.798   9.339 -0.1870 -0.0973 -0.0482
  645W        W 2845  23.308   6.962  11.133  0.1621  0.1063 -0.1952
  646W        W 2846  16.950   2.968  28.308  0.1338 -0.1039  0.3116
  647W        W 2847  18.917   5.251   8.830 -0.1451 -0.1134  0.1537
  648W        W 2848  20.088   0.693  11.675 -0.1847  0.0096  0.2354
  649W        W 2849  11.743   3.774   5.026  0.0015  0.2297  0.0316
  650W        W 2850   7.573   0.856  32.017 -0.1740 -0.1618 -0.4059
  651W        W 2851   2.649   3.798   8.222 -0.0927 -0.2504  0.0134
  652W        W 2852   2.139   7.456  25.791  0.1598  0.0878 -0.0046
  653W        W 2853   0.335   3.218  10.311  0.0833  0.2993 -0.1425
  654W        W 2854   5.037   0.098  22.486  0.2763 -0.2087 -0.1469
  655W        W 2855   1.222   7.482  22.754  0.2112 -0.0142  0.0414
  656W        W 2856   2.284   3.497  27.491  0.0301 -0.3013  0.0625
  657W        W 2857   5.625   1.268   5.696 -0.1484 -0.0755 -0.0236
  658W        W 2858  21.874   2.897   2.193 -0.1037  0.1427  0.1607
  659W        W 2859  19.728   4.572  28.731  0.0291  0.1430 -0.2909
  660W        W 2860  20.045   0.768  10.169 -0.0987  0.2233 -0.0234
  661W        W 2861  23.021   1.514  26.659 -0.2155  0.0378  0.0370
  662W        W 2862  11.754   4.153   3.374  0.1880 -0.0827  0.2500
  663W        W 2863  13.705   2.938   0.958 -0.2037  0.0338  0.1282
  664W        W 2864  22.631   6.269  11.374  0.0612 -0.1349 -0.0974
  665W        W 2865  18.800   0.903  11.362  0.3185 -0.0683  0.0894
  666W        W 2866  20.348   2.733  10.038  0.3191  0.1424  0.1753
  667W        W 2867  19.908   2.121  10.413  0.0615 -0.2553 -0.3563
  668W        W 2868  16.599   0.143  27.090  0.0678  0.2857 -0.0612
  669W        W 2869  11.137   0.441  19.381 -0.2122  0.2990 -0.2037
  670W        W 2870   1.886   3.141  26.893 -0.0249  0.3922  0.2794
  671W        W 2871  19.244   3.077  12.083 -0.2389  0.0233  0.3080
  672W        W 2872   2.007   6.669   7.064 -0.0006 -0.0198 -0.1771
  673W        W 2873  13.422   7.686  30.850  0.1786 -0.1077  0.1258
  674W        W 2874   8.188   2.324  23.635 -0.0988 -0.4058 -0.0401
  675W        W 2875   6.090   2.289   4.700 -0.0759 -0.1492 -0.0892
  676W        W 2876  16.119   5.572  24.897 -0.0110  0.1065  0.0630
  677W        W 2877  20.489   0.377   2.950 -0.1503  0.0504 -0.2893
  678W        W 2878  20.585   3.030  13.044  0.3721 -0.0651 -0.1671
  679W        W 2879   4.175   7.580   9.527 -0.0924  0.2012 -0.1970
  680W        W 2880  22.918   1.735  32.022  0.0662  0.3270  0.1472
  681W        W 2881  21.272   2.323  10.330  0.0599 -0.1704  0.1449
  682W        W 2882   4.875   6.048  27.189 -0.2526 -0.0831  0.0177
  683W        W 2883   5.073   3.423   4.955 -0.1898 -0.0366  0.1775
  684W        W 2884   9.776   6.731  29.408 -0.3514  0.0934 -0.1635
  685W        W 2885   5.856   7.201  28.192  0.0152 -0.3410 -0.1759
  686W        W 2886  10.191   5.047  10.554  0.0567  0.1056  0.0156
  687W        W 2887  18.810   7.218   2.192 -0.1387 -0.0567  0.0670
  688W        W 2888  18.269   1.528   8.408  0.0962  0.3695  0.0974
  689W        W 2889  12.734   1.512   8.923 -0.0887  0.2170 -0.3715
  690W        W 2890  17.930   1.605  30.877  0.1073  0.0357  0.0641
  691W        W 2891   0.697   0.215  31.977  0.1527 -0.1638  0.0097
  692W        W 2892  21.262   2.711  16.869 -0.0620  0.0469  0.2214
  693W        W 2893   5.025   1.510  16.113  0.2919 -0.1280 -0.0093
  694W        W 2894  21.135   2.515  11.621  0.1686 -0.1624  0.1836
  695W        W 2895  21.057   3.540   2.361  0.1888 -0.1527 -0.2292
  696W        W 2896  20.141   5.232  31.360 -0.2117  0.0023  0.5431
  697W        W 2897  23.363   3.394  23.111  0.0836 -0.1135 -0.0728
  698W        W 2898  11.370   3.427   4.891 -0.0812  0.1207  0.1239
  699W        W 2899  24.382   7.337  20.057 -0.1047 -0.0506  0.1069
  700W        W 2900  16.491   0.121  32.040 -0.0370 -0.1107 -0.1643
  701W        W 2901   6.491   1.421   8.305 -0.2561 -0.0151  0.2171
  702W        W 2902  14.686   1.398   0.317 -0.2194  0.2106  0.1967
  703W        W 2903  20.598   0.787  22.594 -0.0388 -0.0395  0.1851
  704W        W 2904  12.821   2.801  21.053 -0.0535  0.1937 -0.1732
  705W        W 2905  19.489   2.271   9.940 -0.0427  0.0917  0.3538
  706W        W 2906  17.827   0.638   1.223  0.3580  0.4721  0.0921
  707W        W 2907  13.999   7.695   1.229  0.0860  0.0144  0.0509
  708W        W 2908   1.137   3.629   3.638  0.0186 -0.1761 -0.2713
  709W        W 2909  23.179   4.539  26.173 -0.1074 -0.0426 -0.0812
  710W        W 2910   0.718   2.770  22.648 -0.2193 -0.2621 -0.2227
  711W        W 2911  14.767   5.838   6.559 -0.0040  0.1396  0.2643
  712W        W 2912   1.687   7.217  23.004  0.2184 -0.2254 -0.1043
  713W        W 2913  20.160   7.505  10.640 -0.0212 -0.2111 -0.2167
  714W        W 2914   2.926   7.321   9.633  0.0311  0.1133 -0.2462
  715W        W 2915   9.553   1.423   4.931 -0.2130  0.1493  0.1929
  716W        W 2916   3.392   1.912  26.563 -0.2022  0.1897  0.0858
  717W        W 2917   1.759   2.065  22.735  0.0925 -0.1343  0.2178
  718W        W 2918   8.384   0.766  14.892 -0.0240 -0.3690 -0.1960
  719W        W 2919  15.615   5.298  24.851  0.3192  0.0326 -0.1012
  720W        W 2920   9.843   0.083   0.275  0.2222  0.0327 -0.3600
  721W        W 2921   6.774   2.706  28.151  0.3457  0.1317 -0.0760
  722W        W 2922  22.247   3.569   6.693 -0.2450 -0.1361  0.0829
  723W        W 2923  22.704   4.612  31.887 -0.3849  0.0471  0.0607
  724W        W 2924  12.159   0.160  23.104 -0.0443 -0.1011 -0.0475
  725W        W 2925  20.494   7.482  31.770 -0.0640  0.2890 -0.0469
  726W        W 2926  20.162   2.730  13.177  0.1441  0.1528  0.0045
  727W        W 2927  24.938   2.951  25.294 -0.1167  0.3781 -0.4359
  728W        W 2928  12.828   4.774  22.508  0.0392 -0.0037  0.2656
  729W        W 2929   7.714   6.018  15.919 -0.1132 -0.0132  0.3767
  730W        W 2930   5.624   3.390  27.381  0.1712  0.0642  0.0563
  731W        W 2931   1.229   3.921   0.487  0.0281  0.1331 -0.0233
  732W        W 2932  13.404   6.236   8.337 -0.2801  0.1860 -0.0948
  733W        W 2933   3.535   3.870  22.041 -0.0796  0.1313 -0.0763
  734W        W 2934  21.625   5.207  31.808 -0.0536 -0.0252  0.4879
  735W        W 2935  14.171   1.894   5.033 -0.1259 -0.1423  0.0079
  736W        W 2936  20.133   0.740   5.072  0.1572  0.2078  0.2223
  737W        W 2937   9.835   6.204   7.628  0.2888 -0.1840 -0.0548
  738W        W 2938  22.767   5.085  12.121  0.1967 -0.3157  0.2880
  739W        W 2939   1.954   3.806  31.221  0.1732  0.0293 -0.2383
  740W        W 2940   5.250   3.806  29.011 -0.1780 -0.1499 -0.2472
  741W        W 2941   2.957   7.094  28.100  0.0326  0.0092 -0.0245
  742W        W 2942   3.261   1.577  26.038 -0.0141  0.2340  0.1075
  743W        W 2943  13.264   3.294   7.034  0.0068 -0.1324  0.0955
  744W        W 2944  15.967   1.515  23.225  0.1595 -0.1968  0.0551
  745W        W 2945   7.112   0.122  26.064 -0.1640 -0.1061 -0.0419
  746W        W 2946  12.463   1.436  29.204 -0.1260  0.0053 -0.0634
  747W        W 2947  21.268   0.136  14.235 -0.1130  0.1787  0.0249
  748W        W 2948  22.852   3.969  26.662 -0.0984  0.1955 -0.1900
  749W        W 2949  10.167   4.271  28.375  0.0298  0.0441  0.0282
  750W        W 2950   8.625   3.913   8.474 -0.3007  0.0400  0.1890
  751W        W 2951  19.716   0.938  25.242  0.0267 -0.0825 -0.0286
  752W        W 2952  21.475   1.249   6.751  0.0481  0.2750 -0.2702
  753W        W 2953  16.916   3.548  29.503 -0.2113  0.0479  0.2417
  754W        W 2954  20.204   2.940  12.135  0.0478 -0.2488  0.1632
  755W        W 2955  15.038   0.980   8.849  0.1150 -0.0520  0.1327
  756W        W 2956   5.597   3.911  30.344  0.0852  0.2860  0.0128
  757W        W 2957   4.448   5.637  31.832 -0.1248  0.1670  0.5628
  758W        W 2958  14.431   5.672   0.115 -0.0814  0.0160  0.0240
  759W        W 2959  11.005   1.806   9.968  0.1419  0.0677  0.0023
  760W        W 2960  19.389   4.722   2.277  0.0562 -0.1027  0.2241
  761W        W 2961  22.881   2.511   4.535 -0.2862  0.3469  0.1172
  762W        W 2962   3.010   0.953   5.936  0.2112 -0.1023 -0.1484
  763W        W 2963  10.185   3.029  20.420 -0.0331 -0.0625  0.0336
  764W        W 2964   9.435   5.560  28.311  0.0551 -0.2050  0.3006
  765W        W 2965  18.799   0.617  21.702 -0.4895  0.2307 -0.1899
  766W        W 2966   3.599   7.170  27.384  0.1676  0.0737 -0.3876
  767W        W 2967   0.100   6.769   8.220  0.2845  0.0206  0.0586
  768W        W 2968  15.478   2.744   3.604 -0.2117  0.0949  0.0960
  769W        W 2969   6.028   0.156  18.241  0.0185  0.1144 -0.1581
  770W        W 2970   3.751   3.613  28.040 -0.0196  0.0428  0.1447
  771W        W 2971  22.995   7.129   5.224 -0.1348 -0.1173  0.0393
  772W        W 2972  16.166   0.223  30.195 -0.1513 -0.2422  0.0587
  773W        W 2973  21.924   7.416  28.071  0.0741 -0.1175  0.1096
  774W        W 2974  18.011   0.813  28.824 -0.2149  0.2510 -0.3125
  775W        W 2975  15.726   5.160  31.599  0.3054 -0.0552 -0.0786
  776W        W 2976  16.738   3.425   9.810  0.0495  0.1662  0.0374
  777W        W 2977  18.244   5.605  24.974  0.3455 -0.3406  0.2962
  778W        W 2978  22.355   1.027  31.038  0.0022 -0.0110 -0.0427
  779W        W 2979  24.667   0.482  31.752  0.0644  0.0002  0.1968
  780W        W 2980  20.818   4.092   7.615 -0.1790 -0.1379 -0.1690
  781W        W 2981   7.327   6.754  29.116 -0.0372 -0.0211  0.0186
  782W        W 2982  17.467   0.803  31.225 -0.3075 -0.2488 -0.0360
  783W        W 2983   8.195   6.450   8.892  0.1659  0.1830  0.1026
  784W        W 2984  21.410   2.089  24.124  0.0739 -0.0380  0.1803
  785W        W 2985  25.136   2.317  28.628 -0.1058  0.0867 -0.0509
  786W        W 2986  10.979   7.282  27.594 -0.0932 -0.0598 -0.3076
  787W        W 2987   9.225   0.553   4.457  0.0814  0.2149  0.0745
  788W        W 2988  18.075   5.421  15.679  0.3024 -0.0564  0.4518
  789W        W 2989   9.320   4.264  25.348 -0.1363 -0.0954 -0.2104
  790W        W 2990  23.032   5.041   0.106 -0.0453  0.1471 -0.2795
  791W        W 2991   8.003   0.491  19.619  0.1337 -0.1195 -0.0570
  792W        W 2992  18.179   7.834   4.050  0.2093  0.1684  0.0748
  793W        W 2993  17.407   0.681   6.651 -0.1922 -0.4419 -0.0623
  794W        W 2994  15.545   3.601  12.945  0.3107  0.1216  0.2032
  795W        W 2995   1.274   1.226  11.862 -0.5432 -0.2584  0.1787
  796W        W 2996   6.062   4.134   6.826 -0.1450 -0.0893  0.3736
  797W        W 2997  13.742   0.671   8.200  0.3441 -0.1571 -0.1084
  798W        W 2998  12.127   3.704   1.499  0.2656  0.3847 -0.1375
  799W        W 2999  16.232   7.230   9.935 -0.0451 -0.1122 -0.0631
  800W        W 3000  22.528   7.483  14.091  0.2258 -0.0512  0.0131
  801W        W 3001  23.800   4.369  26.554  0.1559  0.0161 -0.0132
  802W        W 3002   4.770   3.802  30.569 -0.1202  0.6578  0.1254
  803W        W 3003   0.925   6.218   8.921  0.1432 -0.0814  0.0768
  804W        W 3004  21.260   5.741   6.783 -0.4240  0.3262 -0.0780
  805W        W 3005  12.059   5.903   2.913  0.1176  0.2717 -0.2305
  806W        W 3006   2.431   1.661  10.175 -0.1659  0.1750  0.0598
  807W        W 3007  14.887   4.778   4.496 -0.0136  0.0393  0.3912
  808W        W 3008  19.265   0.892   6.682 -0.1127 -0.4672  0.2074
  809W        W 3009   4.417   5.775   6.578  0.0443 -0.2001 -0.1431
  810W        W 3010  11.633   6.308  24.130  0.0945  0.0499  0.2460
  811W        W 3011  23.166   4.248   4.094  0.1128  0.0779 -0.0609
  812W        W 3012   1.593   3.515  22.572 -0.0987  0.0016 -0.0723
  813W        W 3013  15.555   5.718   4.551 -0.1323  0.2617 -0.5615
  814W        W 3014  23.435   3.511  24.883 -0.0136 -0.3928 -0.0086
  815W        W 3015   8.212   7.032  25.232  0.2710 -0.2520  0.0164
  816W        W 3016  21.248   2.361  13.107 -0.1641  0.0829  0.2521
  817W        W 3017  13.589   4.488  11.246  0.0492  0.1967  0.1520
  818W        W 3018   9.060   4.753  22.850 -0.2793  0.1772  0.1185
  819W        W 3019   8.130   2.798   6.218  0.0244  0.2933 -0.2062
  820W        W 3020   7.424   3.591  27.486 -0.1545  0.0251  0.1115
  821W        W 3021  15.818   3.289   1.594  0.2313 -0.0969  0.1667
  822W        W 3022  19.710   2.403   2.213  0.0877 -0.0051  0.0953
  823W        W 3023   5.573   3.259  29.866 -0.0630 -0.0263  0.0128
  824W        W 3024  23.112   7.687  25.884  0.3747 -0.0236  0.0142
  825W        W 3025   1.234   0.276   4.730 -0.2168 -0.1622 -0.2778
  826W        W 3026  18.752   6.691  27.185  0.3161  0.0459 -0.5324
  827W        W 3027   3.592   6.784  24.867 -0.1153  0.0774 -0.1555
  828W        W 3028  13.377   2.735   2.682  0.0206 -0.1251  0.2269
  829W        W 3029  20.896   0.297  31.689  0.1390  0.2796  0.0423
  830W        W 3030  18.962   4.448   8.761 -0.1242  0.0466 -0.2579
  831W        W 3031   7.439   3.206  15.156  0.0932 -0.1073 -0.4299
  832W        W 3032   7.850   1.140  19.999  0.0578  0.0468 -0.1139
  833W        W 3033  24.895   1.016  11.703  0.1341  0.1478 -0.0237
  834W        W 3034  11.971   2.889  11.437  0.0356  0.1617  0.1854
  835W        W 3035   2.210   0.461  23.542  0.0631  0.0174  0.5119
  836W        W 3036  14.453   5.739   4.492  0.1291 -0.2879 -0.1516
  837W        W 3037   2.892   1.152   8.591 -0.0657  0.2866  0.2083
  838W        W 3038  13.333   2.851  21.068  0.1097 -0.0616 -0.1900
  839W        W 3039   4.830   5.266   1.103  0.1391 -0.0026 -0.2043
  840W        W 3040   8.114   0.038  22.732  0.0806 -0.0846 -0.0296
  841W        W 3041  19.377   1.012   2.330 -0.1109 -0.4055 -0.1400
  842W        W 3042  10.891   3.168  29.205  0.0240  0.2628 -0.0941
  843W        W 3043   3.143   5.612   3.159 -0.1133 -0.0033 -0.2372
  844W        W 3044  21.245   2.235   8.910  0.1091 -0.3202  0.2095
  845W        W 3045   2.187   4.650  18.904  0.2566 -0.1383 -0.1110
  846W        W 3046   0.059   7.677  27.180  0.0356  0.0111  0.2386
  847W        W 3047   2.772   2.502  25.693 -0.1462 -0.0906  0.0614
  848W        W 3048  23.869   6.698   6.366 -0.0275 -0.2122 -0.0330
  849W        W 3049  12.850   0.014   5.907  0.0663 -0.1034  0.0160
  850W        W 3050   2.430   7.605   8.731  0.1718  0.1293 -0.1801
  851W        W 3051  15.050   2.753  31.410  0.1077 -0.0289  0.1541
  852W        W 3052   7.204   7.616   4.686 -0.0385  0.0077 -0.0430
  853W        W 3053   3.898   7.718   6.158  0.0537  0.1204  0.1845
  854W        W 3054   1.583   0.158   4.151  0.1099  0.2729  0.2511
  855W        W 3055  23.460   6.231  32.279  0.3235  0.4638 -0.3387
  856W        W 3056  16.038   6.202  22.679 -0.0178  0.1620 -0.0733
  857W        W 3057  21.338   5.414  14.752 -0.0662 -0.1537  0.0290
  858W        W 3058  24.859   2.651  22.057 -0.0453 -0.0905 -0.3755
  859W        W 3059  22.668   4.600  32.371 -0.0483  0.0621  0.0353
  860W        W 3060   4.317   3.376   9.863  0.0298  0.0713 -0.0298
  861W        W 3061  19.218   2.571  18.444 -0.0983 -0.3124 -0.0264
  862W        W 3062  20.477   0.146   7.583  0.1652 -0.1242  0.2536
  863W        W 3063   2.031   6.297   3.003  0.1263 -0.0950 -0.1008
  864W        W 3064  18.105   3.844   3.290 -0.1172 -0.3263 -0.1372
  865W        W 3065   3.837   2.850  16.815 -0.0198 -0.0217  0.1927
  866W        W 3066   8.016   0.926   6.993  0.0188  0.0144 -0.0453
  867W        W 3067  23.681   5.326  26.300 -0.1405 -0.0162 -0.0468
  868W        W 3068  10.493   2.984   9.643  0.1849  0.0838  0.3921
  869W        W 3069   8.127   6.976   8.737  0.2623 -0.0021  0.1870
  870W        W 3070   6.449   3.200   5.545  0.1052  0.0689  0.0415
  871W        W 3071  21.602   4.458  14.993  0.2927 -0.0668 -0.1043
  872W        W 3072  22.317   3.778  25.994  0.0487  0.2428 -0.0006
  873W        W 3073  16.435   3.534  27.809 -0.1151 -0.2655  0.0790
  874W        W 3074  18.727   5.493  30.341 -0.1744  0.0035 -0.1136
  875W        W 3075   4.636   2.774  23.325  0.0804 -0.1264  0.0464
  876W        W 3076   3.538   7.746  25.546 -0.4378 -0.0874 -0.0980
  877W        W 3077  12.292   4.876  19.542 -0.1526 -0.0561  0.1268
  878W        W 3078  16.594   1.560  28.057 -0.2031 -0.0424 -0.0892
  879W        W 3079   1.295   5.345  28.583 -0.1982 -0.0701  0.1901
  880W        W 3080  21.024   7.561  26.322  0.0699 -0.1050  0.1227
  881W        W 3081   5.837   4.500   9.215  0.0350 -0.0062  0.0562
  882W        W 3082   8.954   2.965   0.630  0.0170 -0.1790 -0.2938
  883W        W 3083  25.033   3.587  24.046  0.1212  0.1887  0.2066
  884W        W 3084  12.788   6.111   5.330 -0.2202  0.0772 -0.0764
  885W        W 3085   5.025   1.215  15.717 -0.0803  0.1038 -0.0349
  886W        W 3086  13.105   3.086   8.449  0.2447 -0.1318  0.0141
  887W        W 3087   1.702   6.424   9.836 -0.0669 -0.1002  0.0030
  888W        W 3088  19.093   4.725  11.413  0.1206 -0.2214 -0.0221
  889W        W 3089  22.881   6.082   9.391  0.4216  0.0192 -0.1078
  890W        W 3090  22.046   7.257  11.992 -0.0866  0.2306  0.0287
  891W        W 3091  21.771   4.989  11.975  0.1601 -0.1607 -0.3374
  892W        W 3092  13.769   0.279  27.742  0.1689  0.1814  0.1285
  893W        W 3093   6.178   6.741   6.727  0.1992  0.3315  0.0668
  894W        W 3094  12.527   4.235  32.299 -0.0255  0.2209  0.1474
  895W        W 3095  21.077   5.827  28.383  0.1574  0.1242  0.1126
  896W        W 3096  11.219   1.470  21.254  0.1492  0.0086  0.0687
  897W        W 3097   5.407   0.258  30.060 -0.0484  0.0403  0.1662
  898W        W 3098   1.431   1.936  19.970 -0.0192  0.3293 -0.1184
  899W        W 3099   6.407   1.232  31.110 -0.1640  0.1657  0.2880
  900W        W 3100  11.078   4.440   8.373  0.1182  0.2350 -0.0841
  901W        W 3101   7.015   7.093  14.144 -0.1674  0.2678  0.3013
  902W        W 3102   9.770   6.244  29.167 -0.1082  0.1300  0.1119
  903W        W 3103   9.194   1.169  30.261  0.2737  0.1838 -0.2287
  904W        W 3104   6.588   6.191  16.636  0.3729 -0.0215  0.0974
  905W        W 3105  17.523   1.903  14.344 -0.2504 -0.2104 -0.4925
  906W        W 3106  14.200   1.480  21.107  0.0402 -0.0507 -0.1298
  907W        W 3107   6.761   4.984   1.190 -0.0269  0.2059 -0.1353
  908W        W 3108  17.685   6.629   7.592  0.2629  0.0321  0.1024
  909W        W 3109   0.058   2.019  32.361 -0.1868 -0.0648 -0.0637
  910W        W 3110  22.509   3.054  27.016  0.1332 -0.0178 -0.0442
  911W        W 3111   8.193   0.099   1.950 -0.1525 -0.0000  0.1868
  912W        W 3112   1.955   2.432  30.307 -0.0482  0.1257 -0.0476
  913W        W 3113  24.961   3.867   4.290 -0.1834  0.4241 -0.1759
  914W        W 3114   7.259   6.921   0.398  0.0426  0.0049  0.0905
  915W        W 3115  23.161   7.239  15.240  0.2787  0.3917 -0.1123
  916W        W 3116  10.435   0.314  25.888 -0.0965 -0.1385 -0.0357
  917W        W 3117  18.230   5.472  17.364 -0.2119  0.1741 -0.1607
  918W        W 3118  14.548   2.790  12.494 -0.0199  0.1117  0.0536
  919W        W 3119   5.116   4.408  27.872 -0.1096 -0.1099  0.1685
  920W        W 3120   0.492   4.860  26.987  0.0556  0.2278  0.3398
  921W        W 3121  17.645   5.755   6.497 -0.0055 -0.1502 -0.0809
  922W        W 3122  20.727   0.428  26.329  0.2073 -0.1428  0.0075
  923W        W 3123  15.954   1.983   4.820 -0.0566 -0.2067  0.2430
  924W        W 3124   7.961   1.027  29.316  0.1218 -0.1652  0.4138
  925W        W 3125  12.499   1.366   7.978 -0.1172  0.1256  0.2561
  926W        W 3126   4.885   0.978  25.464  0.1827 -0.1367  0.2181
  927W        W 3127   3.363   5.866   1.907  0.0456  0.1517  0.0442
  928W        W 3128   6.783   0.976   5.508  0.1453 -0.0316  0.1420
  929W        W 3129  15.408   5.333  29.556  0.0201 -0.2238 -0.0933
  930W        W 3130   3.958   2.046  18.539  0.1600  0.1515  0.1222
  931W        W 3131   9.860   4.064   2.399  0.1509 -0.1014 -0.3506
  932W        W 3132   1.980   7.610  29.235  0.0742 -0.1582 -0.0617
  933W        W 3133   8.949   5.147   3.827  0.1478  0.0632 -0.1714
  934W        W 3134   3.803   7.654   0.163  0.0880  0.1392 -0.0710
  935W        W 3135  18.434   3.339   4.042 -0.1504  0.0559 -0.1349
  936W        W 3136   9.766   4.591  27.724 -0.0468 -0.0595  0.0679
  937W        W 3137  19.473   3.616   5.918  0.3779  0.1171  0.3587
  938W        W 3138   2.951   1.963  27.522 -0.2493 -0.0297  0.1247
  939W        W 3139  16.514   6.242   7.070 -0.0849 -0.1583  0.2253
  940W        W 3140  22.528   4.100  26.316 -0.0726  0.1554 -0.0221
  941W        W 3141   9.307   2.641  29.225  0.1163  0.2430 -0.1681
  942W        W 3142   4.194   2.777  10.612 -0.1381  0.0131  0.2593
  943W        W 3143   3.949   7.355   4.315  0.2495  0.0635  0.1548
  944W        W 3144   6.614   6.229  31.964  0.1979  0.0745  0.1719
  945W        W 3145  15.489   4.923   0.337 -0.1188  0.1113 -0.0215
  946W        W 3146  18.115   2.439   6.113 -0.3466 -0.0468 -0.1614
  947W        W 3147  17.930   0.566  14.356  0.1840 -0.1443 -0.2014
  948W        W 3148   1.952   2.553  18.082 -0.5476  0.3896  0.0320
  949W        W 3149  21.529   7.008   4.518  0.0092  0.1286  0.0275
  950W        W 3150  22.056   0.775  11.093 -0.2276 -0.3086 -0.0118
  951W        W 3151  18.711   1.246   5.674  0.3205 -0.1162 -0.1804
  952W        W 3152  14.692   5.005  27.704  0.0561 -0.4079  0.3597
  953W        W 3153   6.535   3.859  20.426  0.1949 -0.0119 -0.1860
  954W        W 3154  15.863   1.687   3.053  0.2290  0.5453  0.1774
  955W        W 3155  21.801   7.239  16.013  0.0623 -0.2775 -0.0737
  956W        W 3156  16.325   3.914  28.194 -0.0568  0.0249 -0.1234
  957W        W 3157  11.841   2.476   0.126  0.0009 -0.0248  0.1484
  958W        W 3158  23.498   5.557   4.571  0.0140 -0.0272  0.0940
  959W        W 3159  15.374   4.516  12.051  0.0730 -0.0385 -0.0818
  960W        W 3160  22.278   5.708   9.324 -0.1055  0.0610  0.1192
  961W        W 3161  13.479   4.841   6.400 -0.3148  0.0213  0.0122
  962W        W 3162  20.407   7.817  15.241  0.2621  0.1765  0.1064
  963W        W 3163   6.099   0.793  25.254  0.0416  0.0772  0.1344
  964W        W 3164   9.178   7.504  24.074 -0.1574  0.0661  0.1193
  965W        W 3165  10.641   3.995  30.214  0.0172 -0.2694 -0.2719
  966W        W 3166  23.713   0.267  26.415 -0.4669  0.0075 -0.1095
  967W        W 3167  21.626   4.493   5.845 -0.1364 -0.2395 -0.1198
  968W        W 3168  13.284   3.284   8.035  0.2194 -0.0185  0.1397
  969W        W 3169   2.298   0.477  20.599 -0.1046 -0.2194  0.1908
  970W        W 3170  14.763   1.574  23.094  0.3552 -0.0800  0.0959
  971W        W 3171  12.273   4.762   7.663 -0.0135 -0.0038 -0.2005
  972W        W 3172  19.327   6.794  31.437  0.1956  0.1090  0.1386
  973W        W 3173   2.926   3.431  30.103 -0.0973 -0.1234  0.3282
  974W        W 3174  18.068   2.299   2.115  0.2247 -0.0814 -0.0116
  975W        W 3175  18.484   7.014   2.571  0.5127  0.0877  0.2970
  976W        W 3176  22.407   1.293  24.046 -0.1201  0.0092  0.0751
  977W        W 3177  23.389   1.812  28.435  0.3013  0.0068 -0.1403
  978W        W 3178   0.976   1.722  28.851  0.0300  0.1232  0.1080
  979W        W 3179  15.405   5.483   7.592  0.0182 -0.2368 -0.1361
  980W        W 3180   9.838   0.422  23.132  0.0111 -0.1929 -0.0744
  981W        W 3181   8.764   7.363  10.149 -0.0942 -0.2016 -0.1672
  982W        W 3182  20.174   6.005  31.674  0.0959 -0.1388 -0.0455
  983W        W 3183  16.763   1.156   3.305  0.0395 -0.1638  0.0609
  984W        W 3184  21.956   7.336   9.919 -0.2346  0.1380  0.2101
  985W        W 3185  11.088   3.550  24.091  0.1676  0.1512  0.3613
  986W        W 3186  11.869   1.445  18.716  0.1211 -0.2869 -0.0293
  987W        W 3187   7.889   5.983   5.221 -0.0121 -0.2199 -0.1249
  988W        W 3188   8.599   4.072  20.633  0.1775 -0.1603 -0.1009
  989W        W 3189   5.044   1.825   2.119 -0.1059 -0.0874  0.0274
  990W        W 3190  14.768   1.753  31.981  0.3594 -0.2593 -0.0245
  991W        W 3191  14.118   2.523  28.810  0.0367  0.0016 -0.0835
  992W        W 3192  14.713   3.360  28.757  0.0026  0.1450  0.0910
  993W        W 3193   6.568   0.599   1.871  0.1245  0.1646 -0.2511
  994W        W 3194  10.065   1.176   3.531 -0.2266  0.1223  0.0031
  995W        W 3195  16.571   6.945  29.201 -0.3436  0.2267  0.0101
  996W        W 3196  24.095   4.708  24.394 -0.1227  0.1111  0.0666
  997W        W 3197   6.638   5.771  16.417 -0.0214  0.3078  0.0211
  998W        W 3198  14.816   1.856  10.017 -0.1106  0.0533 -0.0617
  999W        W 3199  17.296   5.009   0.153 -0.0282  0.4041 -0.1745
 1000W        W 3200  13.752   7.132  28.503 -0.0665  0.0701  0.3058
 1001W        W 3201   5.826   1.613   7.377  0.1224  0.1850  0.0188
 1002W        W 3202   5.970   0.119  27.844  0.1169  0.0606 -0.3224
 1003W        W 3203  11.243   1.133  29.521 -0.0202  0.3024 -0.0717
 1004W        W 3204   6.390   7.223  30.538  0.0639 -0.1612 -0.1154
 1005W        W 3205   3.118   7.259   7.301 -0.2767  0.2492  0.0577
 1006W        W 3206   8.596   1.465   9.453 -0.0262 -0.0214 -0.0613
 1007W        W 3207  22.529   0.630  27.700 -0.0217 -0.0527 -0.1245
 1008W        W 3208   8.150   3.236  20.321  0.0260 -0.1334 -0.2441
 1009W        W 3209  25.041   2.459   6.701 -0.3293 -0.0529  0.0673
 1010W        W 3210  10.237   3.742   5.475 -0.4239 -0.1188 -0.0529
 1011W        W 3211  12.439   0.284   6.927 -0.1704  0.0502  0.0157
 1012W        W 3212   2.572   2.266   5.982  0.2587  0.1048  0.0405
 1013W        W 3213  24.572   1.896  29.398  0.1404  0.2188 -0.1507
 1014W        W 3214  20.987   5.286   4.682  0.0261  0.1498  0.2666
 1015W        W 3215   4.252   3.212  28.846  0.1610 -0.3288  0.0309
 1016W        W 3216  13.798   4.786   2.794 -0.0125  0.1213 -0.0242
 1017W        W 3217  12.726   5.187  20.302 -0.5233 -0.0606  0.2184
 1018W        W 3218  21.553   6.360   2.059  0.1443 -0.0542 -0.0802
 1019W        W 3219   5.685   6.848   5.712 -0.3246 -0.2857  0.1370
 1020W        W 3220  21.071   4.482   1.988  0.0919  0.1498 -0.0606
 1021W        W 3221   2.319   1.331   0.793  0.1672 -0.1010 -0.2779
 1022W        W 3222  20.525   1.200  25.549  0.0957  0.1011 -0.2368
 1023W        W 3223  13.463   2.209  29.225  0.0377  0.2939 -0.2067
 1024W        W 3224   7.036   7.153   9.405 -0.0145  0.2547  0.0672
 1025W        W 3225  16.106   0.878   5.966 -0.0790  0.1122 -0.3186
 1026W        W 3226  13.659   7.565  14.672  0.0159 -0.0080 -0.1739
 1027W        W 3227  13.068   4.037   2.675  0.1505 -0.1540  0.1505
 1028W        W 3228   2.159   7.726   2.401 -0.1203  0.0553 -0.1459
 1029W        W 3229   3.485   1.144   5.783 -0.1251 -0.1555  0.3518
 1030W        W 3230   9.494   2.184   4.174 -0.0089 -0.0451 -0.0070
 1031W        W 3231   0.618   5.435  20.221 -0.0010  0.0672  0.1027
 1032W        W 3232  21.808   1.462  16.399  0.0442 -0.1273 -0.1241
 1033W        W 3233   5.229   5.740   7.259 -0.2226  0.2337  0.1101
 1034W        W 3234  15.351   2.046   3.209 -0.2096  0.1314  0.1085
 1035W        W 3235  16.586   6.540   6.261 -0.2471  0.0691  0.1740
 1036W        W 3236  17.922   7.473  29.805  0.3453  0.1203 -0.1014
 1037W        W 3237  21.186   2.877  32.458 -0.1750 -0.0248 -0.1535
 1038W        W 3238   2.667   5.863   3.322  0.0739  0.1207 -0.0724
 1039W        W 3239  14.476   6.473   2.656 -0.3308  0.1905  0.1328
 1040W        W 3240   5.888   5.402   1.798  0.1715 -0.0044 -0.1565
 1041W        W 3241   1.178   2.113  24.574  0.0646 -0.2460  0.0345
 1042W        W 3242  16.263   5.274  29.382  0.0647  0.2624 -0.4246
 1043W        W 3243  24.698   6.290  10.092  0.1699 -0.1487  0.2135
 1044W        W 3244  23.181   1.424  25.102  0.0008  0.1928 -0.1350
 1045W        W 3245  11.802   0.264  24.748  0.1222  0.3446  0.0150
 1046W        W 3246   4.286   6.299  30.334  0.2024  0.1009 -0.1305
 1047W        W 3247  20.773   2.987  22.718 -0.1997  0.0988  0.1720
 1048W        W 3248  21.334   1.152  30.074 -0.1665  0.0189 -0.1071
 1049W        W 3249  12.420   7.645  31.108  0.0635  0.2445 -0.0967
 1050W        W 3250  16.273   3.269   7.748 -0.0394 -0.0542 -0.0484
 1051W        W 3251  17.308   3.991   6.119 -0.3744 -0.0424  0.1388
 1052W        W 3252  25.121   7.275  30.454  0.3689  0.0556  0.0460
 1053W        W 3253   5.747   0.081  31.355  0.1003  0.0468 -0.0813
 1054W        W 3254  24.357   4.594   6.529  0.1137  0.0548  0.1763
 1055W        W 3255  12.834   3.587   9.967 -0.1503 -0.0229 -0.3000
 1056W        W 3256  17.838   2.389  13.662 -0.2008 -0.0168  0.0876
 1057W        W 3257  19.166   3.230   8.058  0.0319 -0.0117 -0.0637
 1058W        W 3258  19.670   0.900  15.184  0.1797  0.2584  0.3046
 1059W        W 3259  16.655   6.769  25.162  0.0077  0.2740  0.3399
 1060W        W 3260   6.063   2.726  25.092 -0.0056  0.3503 -0.1034
 1061W        W 3261  18.420   7.840  26.072  0.1664  0.0415  0.2895
 1062W        W 3262  23.058   6.960  22.980  0.2924  0.0763  0.1191
 1063W        W 3263   2.599   4.042   8.697  0.4769 -0.0499  0.2943
 1064W        W 3264  17.821   7.739  12.332  0.3871  0.2700 -0.3231
 1065W        W 3265  20.145   0.462   8.623 -0.3939  0.0189  0.1647
 1066W        W 3266  21.809   4.346   9.498  0.0223 -0.0381  0.0766
 1067W        W 3267   1.858   7.785  25.459  0.1958 -0.3045  0.2625
 1068W        W 3268   4.670   6.856   9.947 -0.1246 -0.1316 -0.1849
 1069W        W 3269  15.747   5.572  22.834  0.0028 -0.2131 -0.0348
 1070W        W 3270   2.943   6.400   6.422  0.4117  0.1285  0.0857
 1071W        W 3271   3.244   4.011   5.119  0.3884  0.2642 -0.0606
 1072W        W 3272   5.083   5.009  19.121 -0.1003 -0.1783  0.0927
 1073W        W 3273  20.183   7.602  24.415  0.0427 -0.0331 -0.1968
 1074W        W 3274  21.220   6.980  32.021  0.2498  0.2106  0.2587
 1075W        W 3275  10.589   4.166   9.244 -0.0330 -0.0327 -0.0496
 1076W        W 3276  14.684   1.753  31.162  0.1025 -0.0983  0.1498
 1077W        W 3277  23.422   3.154  15.238  0.2891  0.4772  0.1635
 1078W        W 3278   2.221   2.554   1.353 -0.1324  0.3282 -0.0758
 1079W        W 3279   9.079   3.808  27.881  0.0407  0.1424  0.0338
 1080W        W 3280  20.620   5.224  30.335 -0.1253  0.1149  0.2293
 1081W        W 3281   1.504   1.520   0.676 -0.1394 -0.1168 -0.1662
 1082W        W 3282  21.238   6.125   4.552 -0.0561  0.0656  0.1021
 1083W        W 3283   5.056   3.475   7.165 -0.0401 -0.0840  0.2248
 1084W        W 3284  15.612   3.840  31.991  0.0925 -0.0127  0.0666
 1085W        W 3285   8.474   2.506  23.100  0.1444  0.2110 -0.0906
 1086W        W 3286  18.234   6.797  16.902 -0.0427  0.3231  0.1460
 1087W        W 3287  16.355   3.385  13.213 -0.2096 -0.1658 -0.0955
 1088W        W 3288  19.298   3.189  30.946 -0.0399  0.2384  0.1108
 1089W        W 3289  17.936   7.829   6.868  0.2778  0.1385  0.0894
 1090W        W 3290   4.884   6.934   8.105  0.1063  0.1042 -0.1441
 1091W        W 3291  17.342   7.754  12.027  0.3406 -0.0564  0.0857
 1092W        W 3292   6.411   4.288  30.871 -0.5158  0.1090 -0.0681
 1093W        W 3293  21.948   0.282  10.262 -0.0684 -0.0823 -0.0612
 1094W        W 3294   0.844   1.269  31.635 -0.1796  0.0523 -0.1120
 1095W        W 3295   2.821   6.690   7.958 -0.3433  0.1767 -0.0759
 1096W        W 3296  20.825   6.454   4.701  0.0417  0.1042  0.1272
 1097W        W 3297  20.503   0.024  14.727 -0.1025 -0.0891 -0.0158
 1098W        W 3298   3.034   6.470  29.488 -0.1479 -0.4369 -0.0028
 1099W        W 3299  11.914   1.787  28.100 -0.2653  0.0544 -0.1410
 1100W        W 3300  19.702   2.504   8.821  0.0757  0.2064 -0.1627
 1101W        W 3301   5.961   5.319   8.887 -0.0936  0.1432 -0.2290
 1102W        W 3302   7.599   6.110  30.410  0.0777 -0.1441  0.1785
 1103W        W 3303  19.453   2.654   7.813 -0.1487  0.1079  0.2486
 1104W        W 3304  20.577   7.572   7.340  0.0138 -0.0688  0.1086
 1105W        W 3305  19.246   1.155  24.971 -0.0983  0.1143 -0.0241
 1106W        W 3306  20.751   1.373  28.497 -0.0278  0.0364  0.3485
 1107W        W 3307   5.966   4.017  27.909  0.0752 -0.0003  0.0859
 1108W        W 3308   3.915   2.949  26.804  0.2437 -0.0817  0.0188
 1109W        W 3309  11.569   6.820   9.789 -0.0714 -0.0071  0.3016
 1110W        W 3310   3.511   7.296  21.564  0.0609  0.0255  0.0135
 1111W        W 3311  23.979   3.043  11.882  0.1231 -0.1071  0.0289
 1112W        W 3312  14.389   0.685  14.635 -0.1192  0.0165  0.1316
 1113W        W 3313  23.841   7.718  25.585  0.0994 -0.0868  0.3382
 1114W        W 3314   8.766   6.862  21.349 -0.0895  0.2604  0.1059
 1115W        W 3315  11.420   6.404  10.240 -0.0209 -0.0771  0.4030
 1116W        W 3316  22.622   0.390   3.851  0.1617 -0.3259  0.0927
 1117W        W 3317  17.863   0.795   5.304 -0.1882 -0.1800  0.0254
 1118W        W 3318   3.885   3.347  20.133 -0.1141 -0.2135 -0.2923
 1119W        W 3319  17.319   0.731  29.491 -0.0448 -0.0380  0.1866
 1120W        W 3320   5.058   3.410   1.619 -0.0258 -0.2192  0.1655
 1121W        W 3321   5.947   7.028  18.669 -0.1358 -0.1947 -0.0510
 1122W        W 3322  22.062   4.764   5.965  0.1716 -0.2548  0.0695
 1123W        W 3323  13.103   1.924  20.199 -0.1145  0.1263  0.0357
 1124W        W 3324   1.775   5.952  22.993 -0.1176  0.1343 -0.2004
 1125W        W 3325  10.084   0.271  26.260 -0.1664 -0.0478 -0.1644
 1126W        W 3326   3.089   1.047   3.851 -0.2536 -0.2642 -0.3244
 1127W        W 3327   5.759   2.156  20.083 -0.1657  0.1256  0.1623
 1128W        W 3328  13.120   4.945  21.554 -0.3479 -0.1070  0.0950
 1129W        W 3329  14.424   4.137   8.383 -0.2623 -0.1717 -0.0270
 1130W        W 3330   1.864   1.544  20.909 -0.3804 -0.3547 -0.0596
 1131W        W 3331  19.584   4.604   4.245 -0.1636 -0.1070 -0.0461
 1132W        W 3332  21.410   0.464  28.930 -0.1942  0.3481 -0.0895
 1133W        W 3333   5.660   2.125  28.849  0.0271  0.2036 -0.0032
 1134W        W 3334   5.434   4.827   1.301 -0.1251 -0.4477  0.1234
 1135W        W 3335   9.079   0.251  19.760  0.1899 -0.1235 -0.0615
 1136W        W 3336   6.159   1.015  19.769 -0.2446 -0.1043  0.0032
 1137W        W 3337  10.299   4.207   5.792 -0.2845  0.1411  0.2602
 1138W        W 3338  22.020   6.020   5.706  0.0940 -0.0125  0.0121
 1139W        W 3339  17.841   4.780  31.903  0.1492 -0.1305  0.1281
 1140W        W 3340  22.517   3.676   4.602 -0.0157  0.0190 -0.0548
 1141W        W 3341  22.321   3.134  27.478  0.0778  0.1429 -0.1416
 1142W        W 3342   4.965   4.902  28.549  0.0303  0.4079  0.1464
 1143W        W 3343   3.159   0.217   6.725  0.0421 -0.1368 -0.0445
 1144W        W 3344   8.548   3.712  19.829 -0.1668 -0.1215 -0.0752
 1145W        W 3345   2.847   3.521   3.483 -0.0977  0.0671 -0.0107
 1146W        W 3346  15.623   2.653  30.793 -0.1440  0.1540 -0.0145
 1147W        W 3347   1.055   6.741  29.710  0.4586 -0.1855 -0.1476
 1148W        W 3348  13.373   2.596   0.773 -0.1816 -0.0632 -0.3162
 1149W        W 3349  15.297   7.334   6.930  0.0098  0.1312  0.2716
 1150W        W 3350   1.494   4.902  28.924  0.4618  0.2866 -0.1087
 1151W        W 3351   1.441   2.826  21.257  0.1272 -0.2243  0.1590
 1152W        W 3352  24.085   7.500  20.517 -0.0879 -0.0514 -0.0289
 1153W        W 3353  13.344   3.059  30.285  0.0377  0.1332 -0.3962
 1154W        W 3354   4.834   0.455  19.882  0.0975  0.0865  0.1601
 1155W        W 3355   3.495   7.527  21.121 -0.0736 -0.1768 -0.1216
 1156W        W 3356  22.442   2.603  14.108 -0.0914  0.0585 -0.0600
 1157W        W 3357   0.079   4.764  11.218 -0.0015 -0.2628 -0.3453
 1158W        W 3358   9.018   6.767  19.342 -0.0515  0.0278 -0.2623
 1159W        W 3359   7.724   2.096  19.637 -0.1482 -0.1502 -0.0144
 1160W        W 3360  25.053   1.833  14.025 -0.2655 -0.3014 -0.0796
 1161W        W 3361   2.617   4.409   0.040  0.2055  0.2765  0.2905
 1162W        W 3362   5.955   5.538  30.222 -0.1350  0.0141 -0.0501
 1163W        W 3363   4.070   4.703  17.645 -0.1651  0.4353 -0.1442
 1164W        W 3364  13.301   0.897   8.181  0.3030  0.0863  0.4511
 1165W        W 3365  23.933   4.986   4.109  0.0375 -0.0454  0.0582
 1166W        W 3366  18.770   3.090   6.170  0.2252 -0.4323 -0.0885
 1167W        W 3367  11.795   7.658  18.492  0.2665 -0.1898 -0.0509
 1168W        W 3368   6.876   5.500  31.079 -0.0674  0.0711 -0.3171
 1169W        W 3369   2.374   5.163  24.759  0.3084 -0.3017  0.0603
 1170W        W 3370  15.612   0.417  27.788 -0.0972 -0.0286  0.1629
 1171W        W 3371  22.987   6.634  16.463 -0.0398 -0.1619 -0.1968
 1172W        W 3372  11.685   2.352  17.953  0.2210  0.0978 -0.1346
 1173W        W 3373  14.530   6.255  32.201 -0.2452 -0.1085  0.3328
 1174W        W 3374  21.846   6.979  24.599  0.2032  0.0646 -0.0055
 1175W        W 3375  23.136   4.692  11.369 -0.2292  0.2466 -0.0212
 1176W        W 3376   3.131   3.852  18.895  0.2931 -0.2643 -0.2519
 1177W        W 3377  18.547   0.746  17.146  0.1162 -0.0010  0.1818
 1178W        W 3378   5.775   0.146   6.393 -0.1526 -0.0580 -0.2687
 1179W        W 3379  14.900   5.159   3.969 -0.0682 -0.0039 -0.2835
 1180W        W 3380  21.036   1.605  31.177  0.1479 -0.1464  0.1589
 1181W        W 3381   7.723   2.265   9.375 -0.0460 -0.2865  0.1206
 1182W        W 3382  15.046   0.268  25.102  0.3302 -0.0097 -0.0452
 1183W        W 3383   0.349   4.766  23.487 -0.1444  0.0146 -0.1603
 1184W        W 3384   3.480   0.573  23.061 -0.0104  0.2347 -0.0382
 1185W        W 3385  25.141   3.493  20.655  0.0114 -0.0099  0.1584
 1186W        W 3386   0.336   4.262   5.699 -0.0760  0.0275  0.1021
 1187W        W 3387  23.104   2.535   1.099 -0.1732 -0.2221  0.3849
 1188W        W 3388   2.266   1.960  24.385  0.1107 -0.2181  0.0684
 1189W        W 3389   8.538   2.086   4.264  0.1320 -0.0449 -0.1086
 1190W        W 3390  14.894   5.452  28.098 -0.0788 -0.2434 -0.1738
 1191W        W 3391  16.774   4.343  11.159  0.0137 -0.1172 -0.0769
 1192W        W 3392   6.701   5.254  21.164  0.0376  0.0461 -0.3551
 1193W        W 3393   6.537   7.506  24.311 -0.3894  0.0359 -0.1600
 1194W        W 3394   6.239   5.085  15.176  0.0178 -0.3003  0.1116
 1195W        W 3395   9.039   2.818  17.471 -0.1096 -0.3454  0.2283
 1196W        W 3396  10.873   6.696  23.973 -0.0937 -0.1311  0.2138
 1197W        W 3397  19.198   7.191  16.030 -0.1978 -0.1616 -0.1039
 1198W        W 3398   1.328   4.772  19.175  0.1229 -0.0223 -0.0005
 1199W        W 3399   8.929   4.294  28.164 -0.1374 -0.0313  0.2733
 1200W        W 3400  21.492   4.505  15.491  0.1541 -0.1407 -0.2404
 1201W        W 3401   3.455   6.893   7.011  0.1477  0.1190  0.0420
 1202W        W 3402  22.927   4.935  24.174 -0.0669 -0.0237 -0.3242
 1203W        W 3403  12.357   3.600  26.734  0.0446 -0.1979 -0.0438
 1204W        W 3404   7.823   2.499  30.980  0.2089 -0.1001 -0.0441
 1205W        W 3405  15.863   7.324  24.283 -0.2994 -0.0057 -0.0747
 1206W        W 3406  10.416   6.229   1.872  0.1491  0.1895  0.1454
 1207W        W 3407   2.826   6.574  23.437 -0.0193 -0.0598  0.2779
 1208W        W 3408  10.824   1.214  20.437 -0.3236 -0.1965 -0.0636
 1209W        W 3409   3.897   0.900  23.183 -0.1221  0.1784  0.0586
 1210W        W 3410  11.287   2.286   2.207 -0.1687  0.1966  0.1641
 1211W        W 3411  15.601   6.234   4.146 -0.2587  0.1846 -0.3829
 1212W        W 3412  13.894   3.214  26.569 -0.1005  0.1444 -0.2069
 1213W        W 3413  20.103   6.333  25.344  0.3790 -0.0458  0.0280
 1214W        W 3414  24.069   5.652  22.918 -0.0957 -0.0162  0.1501
 1215W        W 3415   2.794   6.155   7.251  0.0600  0.3287 -0.1409
 1216W        W 3416  18.983   6.050   1.181 -0.0174  0.0956 -0.0071
 1217W        W 3417   2.105   2.944  10.723 -0.3015 -0.1336  0.2037
 1218W        W 3418   9.763   1.831  19.197  0.0154 -0.2037 -0.3503
 1219W        W 3419  18.449   0.247  30.189 -0.0120  0.1609  0.2515
 1220W        W 3420  13.412   7.199  22.678  0.0233 -0.1184 -0.1327
 1221W        W 3421  18.961   3.179  13.552  0.2678  0.3991 -0.0395
 1222W        W 3422  21.749   4.608  13.005 -0.1003 -0.0196 -0.3504
 1223W        W 3423   9.315   1.051  18.289  0.1262 -0.1095  0.1671
 1224W        W 3424  24.116   0.331  24.091 -0.0143 -0.1839 -0.0442
 1225W        W 3425   4.006   5.365   3.356 -0.1308 -0.2023  0.0442
 1226W        W 3426  19.541   3.302  11.021 -0.0795 -0.0954  0.3046
 1227W        W 3427  21.545   3.009  15.495 -0.0726 -0.1239  0.2561
 1228W        W 3428   7.253   2.281  17.212  0.1596 -0.0317 -0.0319
 1229W        W 3429  11.822   5.279  30.096 -0.0909  0.4472 -0.2792
 1230W        W 3430   0.784   7.562  22.500  0.0620 -0.1842  0.1316
 1231W        W 3431   1.205   5.113  11.830  0.0894  0.1621  0.0053
 1232W        W 3432  16.683   6.257  12.603 -0.1417 -0.2765  0.1763
 1233W        W 3433   3.166   5.015   8.494 -0.1275 -0.0336 -0.3537
 1234W        W 3434  13.196   5.468   6.909 -0.0408  0.1209  0.1312
 1235W        W 3435   4.950   1.138  18.764  0.0931  0.1484 -0.0076
 1236W        W 3436  11.308   4.771   6.092 -0.0140 -0.1488  0.0771
 1237W        W 3437  23.998   7.070  31.892 -0.1086 -0.2312  0.0088
 1238W        W 3438  22.595   3.606   5.553 -0.3042 -0.1156 -0.0846
 1239W        W 3439  11.658   5.452  22.398 -0.1240  0.3924 -0.1014
 1240W        W 3440   8.440   6.768   5.868  0.3907 -0.2920  0.2948
 1241W        W 3441  14.705   0.368  27.785  0.1172 -0.2857 -0.0704
 1242W        W 3442  20.149   3.410  13.041  0.1141  0.0140  0.0359
 1243W        W 3443  23.551   0.666  11.924 -0.2857  0.0220 -0.1926
 1244W        W 3444  15.791   3.730  23.186 -0.1590 -0.3205  0.2511
 1245W        W 3445  21.634   1.350  21.838 -0.1210  0.0153 -0.2417
 1246W        W 3446   1.163   1.232   8.567 -0.1593 -0.0189  0.2661
 1247W        W 3447  10.010   0.627   3.322 -0.1042 -0.0717 -0.1179
 1248W        W 3448  16.409   1.801  15.238  0.0547  0.0829 -0.0411
 1249W        W 3449   2.495   3.231   9.320 -0.2257 -0.0663 -0.0546
 1250W        W 3450  11.033   0.282  28.845 -0.0394  0.3123 -0.0027
 1251W        W 3451   7.171   6.727  18.159 -0.1980  0.2342  0.1714
 1252W        W 3452  24.962   3.094   9.691 -0.1775  0.0284 -0.0351
 1253W        W 3453  19.104   2.531   4.638 -0.0944  0.0504 -0.2304
 1254W        W 3454  11.521   7.136  21.974 -0.1598 -0.0130  0.5685
 1255W        W 3455  10.555   1.221   5.302 -0.2623 -0.2039  0.2065
 1256W        W 3456  23.367   6.754  23.781 -0.0640 -0.0504 -0.0265
 1257W        W 3457   4.627   0.824  16.306  0.1575  0.5410 -0.0257
 1258W        W 3458  14.674   6.888  29.789  0.0580  0.2317 -0.2756
 1259W        W 3459  14.569   7.707  12.436 -0.0101  0.1421  0.2032
 1260W        W 3460   0.907   7.292  19.670  0.0143 -0.1865 -0.2007
 1261W        W 3461  25.026   3.759   3.001  0.2389  0.1298  0.0844
 1262W        W 3462  25.148   2.842  24.316 -0.0684  0.0714 -0.3096
 1263W        W 3463   1.923   0.175  28.410  0.2360  0.0582  0.0284
 1264W        W 3464  19.999   1.855  32.409  0.0469 -0.0703 -0.1054
 1265W        W 3465  10.766   6.401  30.077  0.1869  0.0414 -0.2313
 1266W        W 3466   4.998   1.003   2.615  0.1020 -0.1618  0.2115
 1267W        W 3467  12.941   1.603   9.479  0.0238  0.2433  0.0433
 1268W        W 3468   6.724   6.206  18.119 -0.0776  0.0920  0.2275
 1269W        W 3469   5.663   5.570   3.386  0.1155  0.2854  0.1586
 1270W        W 3470  10.863   3.622  23.190 -0.0945  0.0742 -0.2523
 1271W        W 3471   3.085   4.673  31.306 -0.2227  0.0850  0.0763
 1272W        W 3472   9.583   0.674   6.132 -0.0005 -0.1932 -0.0306
 1273W        W 3473  24.917   4.995  22.452  0.2761  0.0229  0.1136
 1274W        W 3474   4.381   2.407  26.035  0.4833  0.1711 -0.1508
 1275W        W 3475  13.354   6.647  29.252  0.0463 -0.3664  0.0884
 1276W        W 3476  15.147   1.168  22.207  0.0602  0.2363 -0.0941
 1277W        W 3477  15.047   6.344   8.405 -0.0543 -0.1923 -0.3108
 1278W        W 3478  17.594   4.132  12.534 -0.0633  0.0075  0.0901
 1279W        W 3479   8.922   0.897  25.351 -0.0278  0.3530 -0.0782
 1280W        W 3480   7.355   3.815  16.335 -0.0235 -0.0774 -0.0936
 1281W        W 3481  11.503   4.657   8.267  0.1579  0.3298  0.1079
 1282W        W 3482   5.193   5.108  24.722  0.0341 -0.1020 -0.1753
 1283W        W 3483  10.471   1.809   7.780 -0.3096 -0.0788  0.3692
 1284W        W 3484  17.081   0.579  15.959  0.0612  0.1131 -0.0470
 1285W        W 3485   2.973   3.167  10.135  0.0339  0.0600 -0.1035
 1286W        W 3486   1.012   7.431   8.071 -0.0789  0.0165  0.1219
 1287W        W 3487  24.683   3.329  21.539 -0.1081  0.0449  0.1155
 1288W        W 3488  15.202   2.065  14.208  0.0551  0.0028  0.0360
 1289W        W 3489  24.522   2.382  27.104 -0.0639 -0.0931  0.1924
 1290W        W 3490  10.373   2.234  25.014 -0.2055 -0.3597  0.2414
 1291W        W 3491   5.998   7.447  30.382 -0.0754 -0.1034 -0.2474
 1292W        W 3492  14.303   3.174   5.204  0.2031 -0.0846  0.0448
 1293W        W 3493  23.545   4.043  30.048  0.4503 -0.0505 -0.2239
 1294W        W 3494  17.304   1.174   4.325  0.1730  0.1247 -0.2034
 1295W        W 3495  21.249   7.545   9.398 -0.2215 -0.1596 -0.0097
 1296W        W 3496  25.055   2.185   1.378 -0.0809  0.0270 -0.0937
 1297W        W 3497  16.188   1.319  12.685  0.4315  0.0916  0.3082
 1298W        W 3498  22.087   3.314   3.761 -0.1707 -0.2254 -0.0023
 1299W        W 3499  14.729   4.108  32.155 -0.2121  0.0266  0.2589
 1300W        W 3500   9.656   3.951   7.038  0.3261  0.0798 -0.1822
 1301W        W 3501   3.592   5.904   7.664  0.0292 -0.2108 -0.2249
 1302W        W 3502  14.526   5.255   2.232 -0.2363  0.0025 -0.1275
 1303W        W 3503   1.274   6.339   0.622 -0.0182 -0.3588  0.1215
 1304W        W 3504  18.011   6.318   3.080 -0.0115 -0.0766  0.2114
 1305W        W 3505  12.621   3.992   2.950 -0.1699  0.0221 -0.4076
 1306W        W 3506   9.719   2.516  32.069  0.0370 -0.1995  0.2506
 1307W        W 3507   2.894   3.177   8.279 -0.2429  0.0818 -0.3001
 1308W        W 3508   9.254   6.160  23.130  0.2009  0.3158  0.0452
 1309W        W 3509   6.687   0.502  15.287 -0.0308  0.2373 -0.0317
 1310W        W 3510  23.089   4.176  16.184 -0.1504 -0.0666 -0.1511
 1311W        W 3511   1.317   0.235   6.530 -0.0908 -0.1803 -0.1233
 1312W        W 3512   0.501   0.805  25.742 -0.2312 -0.0932 -0.0273
 1313W        W 3513  13.863   4.956   3.256 -0.2349 -0.0125 -0.2164
 1314W        W 3514  25.090   6.851  19.858 -0.0690  0.3422  0.2658
 1315W        W 3515  13.707   2.710   5.373  0.1428  0.0227  0.5423
 1316W        W 3516   8.975   1.255  23.155 -0.0048  0.0057 -0.1153
 1317W        W 3517  15.608   0.359   2.040  0.1960  0.2948 -0.0991
 1318W        W 3518  11.351   4.151  19.720  0.0516 -0.0658 -0.1387
 1319W        W 3519  10.639   5.144  27.904  0.1884  0.1741 -0.0152
 1320W        W 3520  19.863   0.214   9.559 -0.0404 -0.0105  0.2899
 1321W        W 3521  12.215   6.117   4.117 -0.1974  0.0545 -0.2379
 1322W        W 3522  11.182   3.605   9.966  0.0363  0.0017  0.1544
 1323W        W 3523   8.147   3.735  10.080 -0.1372 -0.0547 -0.1928
 1324W        W 3524   7.952   6.459   7.406  0.1828 -0.1063 -0.2823
 1325W        W 3525  10.739   5.872   8.484 -0.0261 -0.0369 -0.0362
 1326W        W 3526  14.235   6.815  22.603 -0.1439 -0.0049 -0.1157
 1327W        W 3527   0.142   1.092  20.659  0.2732  0.0408  0.1903
 1328W        W 3528   5.677   6.213  22.870  0.1870 -0.1599  0.2019
 1329W        W 3529  20.033   4.710  15.699 -0.2228  0.0822 -0.0064
 1330W        W 3530  22.520   3.916  15.508 -0.3302 -0.0420  0.2542
 1331W        W 3531   1.788   2.041  26.122 -0.2504  0.3660  0.3800
 1332W        W 3532  25.092   0.945   9.108  0.1500  0.1466 -0.2166
 1333W        W 3533  14.762   3.380  26.682  0.2657  0.2385  0.1828
 1334W        W 3534   8.152   6.802   1.957 -0.0660 -0.2120  0.2758
 1335W        W 3535  18.938   3.043   4.574 -0.1876 -0.0248  0.1328
 1336W        W 3536  14.273   4.862   1.234  0.3212 -0.3924 -0.2402
 1337W        W 3537   8.466   0.720  25.482  0.0851  0.0704 -0.0906
 1338W        W 3538  15.773   5.152   3.605 -0.1259  0.0244  0.2732
 1339W        W 3539  19.370   2.117   1.814 -0.2227 -0.2188  0.0966
 1340W        W 3540  13.513   3.930  24.258  0.0343 -0.1848  0.0998
 1341W        W 3541   1.355   4.451  29.336  0.1255 -0.0871 -0.3697
 1342W        W 3542  15.835   3.951   0.199  0.0755 -0.0942  0.3892
 1343W        W 3543  10.936   3.528  10.859 -0.0319  0.2596  0.0835
 1344W        W 3544  18.626   4.013  16.651  0.1465 -0.1022  0.2662
 1345W        W 3545  11.935   4.772  28.338 -0.2238  0.0986  0.1578
 1346W        W 3546  10.111   3.093  23.866  0.0152  0.0120  0.4670
 1347W        W 3547  14.583   1.375  24.600  0.2540 -0.1601  0.1027
 1348W        W 3548  12.689   1.955  19.917  0.0217  0.1769 -0.1302
 1349W        W 3549   4.054   2.087   2.225  0.0277 -0.4068  0.0788
 1350W        W 3550  18.833   6.974  30.032  0.2264  0.3321 -0.1406
 1351W        W 3551  12.386   6.276  11.245 -0.1601  0.1312  0.0561
 1352W        W 3552  12.302   1.149  24.709  0.1844  0.2642  0.0733
 1353W        W 3553  22.506   7.334  29.952  0.1527 -0.1477 -0.0708
 1354W        W 3554  11.306   5.221   5.909 -0.1418 -0.0103 -0.4208
 1355W        W 3555   1.683   3.191  23.133 -0.2862  0.0886  0.2254
 1356W        W 3556   8.952   0.321   7.560  0.2001  0.0225 -0.3181
 1357W        W 3557  19.923   2.279  28.869  0.1229  0.0421  0.2207
 1358W        W 3558   2.196   2.132  32.001 -0.3430  0.2447  0.0578
 1359W        W 3559  20.748   5.568  23.938  0.0237  0.0353  0.1981
 1360W        W 3560  20.811   1.384  29.337 -0.1324 -0.0411 -0.0292
 1361W        W 3561   1.316   0.124  23.614  0.1583  0.0609  0.0755
 1362W        W 3562  21.741   3.436  31.287  0.0448  0.0649 -0.2554
 1363W        W 3563  20.195   3.651   7.306  0.0559  0.0760  0.1931
 1364W        W 3564   5.229   6.453   8.470  0.1859  0.1448 -0.1844
 1365W        W 3565  16.496   2.183   2.944  0.0499  0.1789  0.0036
 1366W        W 3566  10.260   2.728   1.990 -0.0747 -0.0998  0.0368
 1367W        W 3567  16.603   2.018  11.545  0.0982  0.1069  0.0884
 1368W        W 3568   0.861   5.068  12.185  0.2961 -0.2903 -0.0632
 1369W        W 3569  20.787   3.576   6.889  0.1577  0.0118 -0.1242
 1370W        W 3570  16.214   6.375   1.037  0.1034  0.0627  0.3614
 1371W        W 3571  18.083   4.856  24.134 -0.1503 -0.1227  0.1900
 1372W        W 3572  12.906   5.193  26.843  0.1316 -0.0796 -0.1152
 1373W        W 3573   6.433   0.547   0.893  0.0265  0.2335  0.0463
 1374W        W 3574   3.837   1.504  23.859 -0.1003  0.1583  0.2230
 1375W        W 3575  22.383   6.604  31.936 -0.1608 -0.1442 -0.0620
 1376W        W 3576  24.296   7.694  27.968  0.3175  0.3134 -0.4480
 1377W        W 3577   4.782   6.458  16.406  0.1882 -0.0222  0.2892
 1378W        W 3578  22.020   6.602   2.451  0.1489  0.0817  0.2803
 1379W        W 3579  11.350   3.194  17.648  0.0071 -0.1010 -0.0957
 1380W        W 3580   6.579   3.933  28.755  0.0470  0.0154 -0.0255
 1381W        W 3581   2.182   1.795  11.447  0.0203  0.0974 -0.0746
 1382W        W 3582  20.945   5.574   3.474  0.3170  0.2431  0.2072
 1383W        W 3583   9.491   5.727  23.907  0.1060 -0.0452  0.0420
 1384W        W 3584  10.601   5.751   3.576  0.4069  0.1970  0.1854
 1385W        W 3585  17.126   1.400   6.816  0.0193 -0.3880  0.0688
 1386W        W 3586  16.000   6.359   5.751  0.0435  0.0970 -0.2388
 1387W        W 3587   1.491   2.728   6.727 -0.0155 -0.0433  0.3684
 1388W        W 3588   5.103   3.009   0.740 -0.1880 -0.1280  0.2763
 1389W        W 3589  16.355   0.927  30.895 -0.1038  0.2816 -0.0329
 1390W        W 3590   1.919   2.862  31.532  0.0366  0.0182  0.0494
 1391W        W 3591  14.994   2.316  13.787  0.2505 -0.0021  0.2593
 1392W        W 3592   8.047   6.714  23.961 -0.0361  0.2305  0.0729
 1393W        W 3593  17.058   0.866   0.024 -0.1472 -0.0540 -0.0364
 1394W        W 3594   2.932   1.473  27.531  0.1623 -0.0603 -0.1819
 1395W        W 3595   1.341   5.750   6.362 -0.0188 -0.0305 -0.2256
 1396W        W 3596   8.799   3.109  31.527  0.0510  0.1240  0.3722
 1397W        W 3597   8.323   3.631   5.793  0.2359  0.2521 -0.0139
 1398W        W 3598  13.353   3.748  11.545 -0.0957 -0.2245  0.0023
 1399W        W 3599  17.709   0.754  13.938 -0.2207  0.1428 -0.1669
 1400W        W 3600  21.691   6.156   1.635 -0.0915 -0.1732 -0.0939
 1401W        W 3601   6.122   0.329  21.413  0.0138  0.0141  0.2342
 1402W        W 3602  19.944   0.634   4.549 -0.1820  0.0693  0.2569
 1403W        W 3603  23.861   4.414  22.133  0.0861 -0.0757  0.0102
 1404W        W 3604  23.076   0.753   8.370  0.1044  0.2770 -0.2551
 1405W        W 3605  17.929   2.196  28.958 -0.1421 -0.0397 -0.3136
 1406W        W 3606  24.219   5.243  12.770  0.1490  0.0608  0.0749
 1407W        W 3607  12.780   4.040   4.580 -0.1028  0.0967 -0.0381
 1408W        W 3608   3.352   6.405   1.288 -0.1224 -0.1504 -0.1355
 1409W        W 3609  24.818   3.826  20.524 -0.1940  0.2211 -0.1413
 1410W        W 3610   7.401   1.558   2.134  0.0867  0.2318 -0.0524
 1411W        W 3611  18.474   3.646   0.066  0.2191 -0.1107 -0.0211
 1412W        W 3612  13.140   4.534   3.976  0.0414 -0.2845 -0.0289
 1413W        W 3613  22.982   5.591  27.188 -0.1607  0.0770 -0.2363
 1414W        W 3614  21.461   2.422  22.470 -0.1258 -0.0068 -0.3196
 1415W        W 3615   7.272   1.489   5.227 -0.1077 -0.2804  0.2622
 1416W        W 3616  19.185   5.228   2.132  0.2162  0.2148  0.1167
 1417W        W 3617  20.023   0.757  30.075 -0.1472  0.2010 -0.0532
 1418W        W 3618   3.363   5.616  29.523  0.0366 -0.1046 -0.2063
 1419W        W 3619   9.355   7.318   2.151  0.0211 -0.0518  0.1413
 1420W        W 3620   4.299   7.729   2.610  0.0363 -0.0675 -0.0556
 1421W        W 3621   4.854   6.577  20.075 -0.1094  0.2636  0.0236
 1422W        W 3622  19.173   0.527  30.411 -0.1029 -0.4025 -0.3171
 1423W        W 3623   7.139   5.524  22.302  0.2010  0.2369 -0.3798
 1424W        W 3624  14.623   2.335  30.397  0.2261  0.3231 -0.0231
 1425W        W 3625  24.037   0.894  27.886  0.1807  0.0880 -0.1684
 1426W        W 3626   5.029   3.945  24.560 -0.3517 -0.1303  0.0090
 1427W        W 3627  21.774   3.718   7.528 -0.0416 -0.2782 -0.0036
 1428W        W 3628   4.020   7.523  29.903 -0.0303 -0.0107  0.0969
 1429W        W 3629   5.572   4.578  22.262 -0.4057  0.3284  0.0596
 1430W        W 3630  10.832   5.441   9.423  0.1565  0.3830 -0.2187
 1431W        W 3631   5.571   4.211  27.607 -0.0358 -0.0466  0.0770
 1432W        W 3632   2.415   1.867  22.280 -0.0390 -0.0473  0.0878
 1433W        W 3633  20.155   0.782  13.320  0.0152  0.0077  0.0998
 1434W        W 3634  17.850   6.394   2.476  0.0086  0.0574 -0.3107
 1435W        W 3635  20.452   3.444  16.255  0.0620 -0.0724 -0.0956
 1436W        W 3636   4.059   0.463  23.993  0.1962  0.1936 -0.0035
 1437W        W 3637   5.530   0.504  26.576 -0.0467 -0.0280 -0.1413
 1438W        W 3638   3.740   4.926  24.976  0.2497 -0.0254  0.0278
 1439W        W 3639   1.673   3.864  25.646  0.0261  0.1351  0.0348
 1440W        W 3640  10.962   4.991   4.672  0.0338 -0.0207  0.0076
 1441W        W 3641   2.039   3.889  24.177 -0.1261  0.0497 -0.2356
 1442W        W 3642   7.451   7.640   0.769 -0.0497  0.2964  0.0992
 1443W        W 3643  17.287   5.977  24.643  0.1291  0.2579 -0.2866
 1444W        W 3644  23.992   1.062  14.606 -0.2388 -0.1327  0.2000
 1445W        W 3645   3.928   0.522  26.988  0.1561  0.1071 -0.1757
 1446W        W 3646   4.125   4.689  32.093 -0.0426  0.0635  0.2461
 1447W        W 3647   1.982   3.051  11.181  0.1302 -0.0981 -0.1663
 1448W        W 3648  22.783   0.479   7.357 -0.1200 -0.0655 -0.0599
 1449W        W 3649  20.807   7.502   4.146  0.1019  0.1609  0.0475
 1450W        W 3650   6.814   7.552  25.427 -0.0028  0.3001  0.1381
 1451W        W 3651  19.957   6.691  16.840  0.0263 -0.0674  0.0238
 1452W        W 3652  18.252   3.505  17.358  0.1923  0.4881  0.0824
 1453W        W 3653  23.139   6.465  30.536 -0.2848 -0.1380 -0.1629
 1454W        W 3654  21.803   6.119   0.874 -0.0476  0.1631  0.2246
 1455W        W 3655   4.258   7.551  27.482 -0.1025 -0.0405 -0.0552
 1456W        W 3656   1.705   6.110  28.335  0.1967  0.4517 -0.1383
 1457W        W 3657  16.519   3.176  27.399  0.3666  0.1109  0.0182
 1458W        W 3658   2.635   1.642  29.495 -0.1577 -0.1617  0.0700
 1459W        W 3659  22.588   4.506  29.250  0.0453 -0.0698  0.2479
 1460W        W 3660   0.199   3.843  23.715  0.2481  0.2381  0.1229
 1461W        W 3661  18.318   3.958  11.859  0.0009 -0.0580 -0.1742
 1462W        W 3662  14.928   2.274   1.798 -0.3810 -0.0800  0.0049
 1463W        W 3663  13.625   1.011  31.627 -0.1919  0.0823 -0.1258
 1464W        W 3664   7.601   0.919  21.736  0.3828 -0.0981  0.3827
 1465W        W 3665   4.527   0.003  22.285 -0.0618 -0.2270  0.0942
 1466W        W 3666  22.000   6.817  13.050 -0.0128 -0.2210  0.0384
 1467W        W 3667  17.315   4.062  31.648 -0.0587  0.1271  0.1202
 1468W        W 3668  13.698   6.223   4.460 -0.0722 -0.0426  0.0571
 1469W        W 3669   8.160   1.447   9.978 -0.0840 -0.2082 -0.1600
 1470W        W 3670  13.864   2.783  30.844  0.1393 -0.0834 -0.2137
 1471W        W 3671   6.806   2.424  24.131 -0.2492  0.2962  0.3641
 1472W        W 3672   6.569   2.772  20.472 -0.2627  0.1210  0.1038
 1473W        W 3673  14.938   4.030   3.202  0.1200 -0.1865 -0.0637
 1474W        W 3674  19.070   3.817   4.429  0.1958 -0.1515  0.0936
 1475W        W 3675   6.228   2.446  18.695 -0.2223  0.1923 -0.3191
 1476W        W 3676   5.585   6.661  24.319 -0.1304 -0.0248 -0.0928
 1477W        W 3677   2.249   5.553  10.509  0.1620 -0.1571 -0.1128
 1478W        W 3678  23.935   5.033  28.119  0.2624 -0.1570 -0.1415
 1479W        W 3679   0.259   4.562   7.506  0.2599  0.0877  0.0716
 1480W        W 3680   0.047   7.741  24.880 -0.2100 -0.0709  0.1238
 1481W        W 3681  21.978   1.049  31.534 -0.1372 -0.2803 -0.0462
 1482W        W 3682   4.311   2.687   8.919 -0.0716 -0.0279  0.0369
 1483W        W 3683  19.200   3.599   2.038  0.1173 -0.1341 -0.0649
 1484W        W 3684  14.174   6.521  11.839 -0.0486  0.2441 -0.2213
 1485W        W 3685  17.506   2.173   8.828 -0.0115 -0.0033 -0.0067
 1486W        W 3686  12.974   2.917  31.702  0.0952  0.1402  0.0742
 1487W        W 3687   7.963   6.162  16.764 -0.1695  0.1390 -0.2205
 1488W        W 3688  10.358   1.832  25.338 -0.3093 -0.1948  0.2810
 1489W        W 3689  22.373   7.408   9.633  0.0715  0.0816 -0.1225
 1490W        W 3690  24.192   3.692  29.548  0.1905  0.1749  0.1680
 1491W        W 3691  16.258   3.603   9.941 -0.2250  0.0429  0.0507
 1492W        W 3692  19.091   4.668   1.229 -0.1099  0.4681  0.1655
 1493W        W 3693  21.247   6.419   1.675  0.2359 -0.1016  0.1043
 1494W        W 3694   4.669   1.010   9.225 -0.0307  0.0202 -0.3223
 1495W        W 3695  22.038   1.986   4.473 -0.0343  0.0482  0.3352
 1496W        W 3696  22.521   0.074  13.961 -0.3219  0.1398  0.1522
 1497W        W 3697  21.534   2.716  26.230  0.0223  0.1355  0.0725
 1498W        W 3698  23.654   6.109  10.939 -0.1344  0.4502  0.0533
 1499W        W 3699   3.939   0.283   2.912  0.2399 -0.0664  0.1074
 1500W        W 3700  13.231   3.037   3.014 -0.1462 -0.0061 -0.2347
 1501W        W 3701  23.452   0.341   7.385 -0.0669 -0.0029 -0.1184
 1502W        W 3702  11.035   0.116   7.971  0.1691  0.2215 -0.1941
 1503W        W 3703   3.103   4.818  24.174  0.0048 -0.2184  0.2712
 1504W        W 3704  14.345   1.787  27.547  0.1068  0.2422  0.0372
 1505W        W 3705  21.979   0.171  27.506  0.0955  0.1808  0.0281
 1506W        W 3706  15.471   4.035  28.191 -0.2547 -0.1463 -0.0748
 1507W        W 3707  21.706   7.186   6.097  0.1309  0.0712  0.2091
 1508W        W 3708  13.352   3.896  28.941  0.1650  0.0821 -0.0524
 1509W        W 3709  13.746   0.613   6.819 -0.5582 -0.1399  0.0348
 1510W        W 3710  18.414   5.077  17.716  0.1148  0.0016 -0.1370
 1511W        W 3711   5.456   4.408   0.415 -0.0701 -0.0681 -0.0485
 1512W        W 3712  24.384   0.260  21.347 -0.2919 -0.1003 -0.0288
 1513W        W 3713  13.920   6.329   7.241  0.0034  0.1629 -0.1208
 1514W        W 3714  24.713   2.625   8.885  0.1812  0.0209  0.0373
 1515W        W 3715  22.043   4.592   2.121 -0.0179  0.1322  0.1010
 1516W        W 3716   2.271   7.851  18.308  0.0030 -0.0364 -0.1393
 1517W        W 3717  15.471   1.477  11.993 -0.0748 -0.3280 -0.0684
 1518W        W 3718   5.099   0.748  16.611 -0.3404 -0.1335 -0.3261
 1519W        W 3719  18.956   5.288  13.269  0.0543 -0.0723 -0.0922
 1520W        W 3720  17.551   5.559  24.491 -0.1355  0.0542  0.3002
 1521W        W 3721   1.455   7.570   7.363 -0.0948  0.0461  0.1573
 1522W        W 3722  24.155   0.597   3.105 -0.2490  0.0424  0.1727
 1523W        W 3723  21.374   3.791  27.362 -0.0890 -0.1192 -0.1426
 1524W        W 3724  10.050   5.111  19.260 -0.2314 -0.1669 -0.0122
 1525W        W 3725   7.225   3.639   2.874 -0.2287  0.4720  0.1668
 1526W        W 3726   9.765   5.107  22.503 -0.1033  0.1164 -0.1438
 1527W        W 3727   9.208   1.366  21.297 -0.0416 -0.0311  0.1289
 1528W        W 3728  13.940   4.925  21.839  0.0390 -0.2876  0.2656
 1529W        W 3729   7.381   4.533  19.807  0.0187 -0.1793 -0.0857
 1530W        W 3730  22.779   2.189   0.785  0.0450 -0.1104  0.2182
 1531W        W 3731  14.982   2.262  22.484 -0.0960 -0.0861  0.2395
 1532W        W 3732  16.987   3.019  17.167 -0.2911  0.0006  0.2036
 1533W        W 3733  10.711   6.477  17.779  0.0468  0.2916  0.0041
 1534W        W 3734   1.152   3.330   0.438 -0.0588  0.1004 -0.4889
 1535W        W 3735  11.364   5.742  28.521 -0.2013 -0.1413  0.0953
 1536W        W 3736  11.719   5.190  25.021  0.5347  0.0299  0.0196
 1537W        W 3737  19.637   0.794   8.989 -0.3338 -0.0590 -0.1278
 1538W        W 3738  22.129   1.877   8.862  0.0038  0.1349 -0.0315
 1539W        W 3739  20.343   5.635  23.569  0.2634 -0.0771 -0.2238
 1540W        W 3740  14.898   2.494  11.274 -0.0583 -0.3607  0.0045
 1541W        W 3741   0.573   7.136   2.242 -0.2749 -0.3109 -0.4033
 1542W        W 3742   4.747   4.957  20.065  0.0504  0.3130  0.0762
 1543W        W 3743  17.716   0.976  17.478  0.0662 -0.1450  0.0713
 1544W        W 3744   9.296   7.679  14.433 -0.5253 -0.2725  0.2950
 1545W        W 3745  24.624   5.109  27.597 -0.2211 -0.2078  0.0110
 1546W        W 3746  21.563   1.954  32.173 -0.0799 -0.2197 -0.3668
 1547W        W 3747   7.958   0.162  17.566  0.0141 -0.4660  0.2032
 1548W        W 3748  25.018   2.113  30.344 -0.0264  0.2323  0.2232
 1549W        W 3749   6.439   4.117  15.178 -0.0406  0.2304  0.1525
 1550W        W 3750  15.202   6.082  24.247 -0.0155 -0.0363  0.2368
 1551W        W 3751  18.157   4.973   1.002  0.2701 -0.1313 -0.0291
 1552W        W 3752  17.369   0.249  16.253 -0.0582 -0.1163  0.1341
 1553W        W 3753  22.362   5.285   7.931 -0.0099 -0.0209  0.1213
 1554W        W 3754  21.724   0.280   9.673 -0.0388  0.0187  0.0577
 1555W        W 3755  16.915   3.498  27.784  0.3591 -0.0449  0.0814
 1556W        W 3756  23.251   5.602  22.324  0.0642  0.1692  0.1333
 1557W        W 3757   4.689   5.618   6.069 -0.1332 -0.0874  0.2668
 1558W        W 3758  16.386   3.992   6.413  0.3557  0.0430  0.1410
 1559W        W 3759   2.708   4.377   2.752 -0.3203  0.0193 -0.0234
 1560W        W 3760  15.467   4.928  10.554  0.2188  0.1673  0.1268
 1561W        W 3761  24.617   5.960  21.930  0.0829 -0.0468 -0.3634
 1562W        W 3762   2.051   3.489   7.124 -0.2200  0.2241 -0.0821
 1563W        W 3763  17.883   1.177   1.082  0.1312 -0.0962 -0.1087
 1564W        W 3764  24.658   6.883   6.394  0.2070 -0.2023 -0.0450
 1565W        W 3765  13.718   6.039   8.018  0.1110 -0.0658  0.2486
 1566W        W 3766  14.389   3.234   9.504  0.2147  0.1036 -0.1079
 1567W        W 3767   5.241   2.975  10.222  0.1509 -0.1556  0.0319
 1568W        W 3768  11.890   4.824  22.787 -0.1535  0.1108 -0.1331
 1569W        W 3769  17.649   5.233  29.362  0.0600  0.0488  0.0211
 1570W        W 3770  12.221   3.011  23.977 -0.1716 -0.4856 -0.0526
 1571W        W 3771  15.201   3.434   8.195  0.0824  0.3665 -0.1571
 1572W        W 3772   8.329   5.948   5.091  0.0664 -0.0917  0.1781
 1573W        W 3773   8.464   3.756  29.040 -0.2041 -0.3484 -0.0436
 1574W        W 3774  18.704   7.024  29.475 -0.1097 -0.0984 -0.0252
 1575W        W 3775  10.207   6.096  28.824  0.2089 -0.0178  0.2416
 1576W        W 3776  15.056   0.937   5.957 -0.3349 -0.0549 -0.1410
 1577W        W 3777   9.720   1.465   9.692 -0.3009  0.0922  0.1117
 1578W        W 3778   5.051   0.753  19.139  0.0726  0.0280 -0.0904
 1579W        W 3779   9.055   1.707  29.621  0.3407  0.2841 -0.2441
 1580W        W 3780  14.402   5.032   8.428 -0.1382 -0.0896  0.1161
 1581W        W 3781   9.014   4.590  16.409  0.3083 -0.0636 -0.1446
 1582W        W 3782   6.779   5.415  29.715  0.2047 -0.3904  0.1235
 1583W        W 3783  20.619   6.348  14.214  0.2105  0.0538  0.2513
 1584W        W 3784   7.340   6.221   3.554 -0.0784 -0.0462  0.0756
 1585W        W 3785  18.305   6.377   4.594  0.1005 -0.0830  0.3127
 1586W        W 3786  18.703   0.460   5.018  0.1260  0.0046  0.3612
 1587W        W 3787  22.224   2.647   1.905 -0.1208  0.1499 -0.4304
 1588W        W 3788  14.801   7.786  10.820 -0.0901  0.1298  0.1648
 1589W        W 3789  20.343   1.980   0.335  0.1646  0.0552 -0.1670
 1590W        W 3790   7.403   1.860  21.959  0.1225 -0.2936  0.1944
 1591W        W 3791   9.743   4.218  22.277 -0.1452  0.2352  0.2178
 1592W        W 3792   8.471   6.685  30.811 -0.0759 -0.0119  0.1872
 1593W        W 3793  18.153   5.455  24.418  0.1971  0.1920 -0.2561
 1594W        W 3794   0.116   5.979  20.980  0.2745  0.1716 -0.2611
 1595W        W 3795   8.245   7.068  28.396 -0.0322 -0.3917 -0.0686
 1596W        W 3796  23.622   4.933  14.537 -0.0623  0.2258  0.0020
 1597W        W 3797   9.356   4.167  20.300 -0.3043  0.1226 -0.1056
 1598W        W 3798   1.243   4.318   9.725  0.0432  0.1800  0.0344
 1599W        W 3799   1.835   5.714  19.064  0.1862  0.0331  0.1905
 1600W        W 3800   1.430   6.964   8.938  0.2303  0.2076 -0.0045
 1601W        W 3801  22.394   1.269   9.654 -0.0015  0.2421 -0.0743
 1602W        W 3802   4.031   6.429  27.755  0.3196  0.2653  0.0756
 1603W        W 3803   7.796   1.622  14.781 -0.0958 -0.3488  0.3784
 1604W        W 3804   6.893   2.512  29.551  0.1144 -0.6466  0.1052
 1605W        W 3805  12.383   7.106  11.387 -0.1908  0.0946 -0.2203
 1606W        W 3806  21.792   1.761  24.739 -0.1559  0.2583 -0.3514
 1607W        W 3807   0.743   6.043  12.411  0.1928  0.0064 -0.2386
 1608W        W 3808   7.397   0.720   7.930 -0.4148 -0.2615 -0.1044
 1609W        W 3809  11.607   5.308  18.468  0.0559  0.0772  0.1869
 1610W        W 3810  19.726   1.498   0.133 -0.1546  0.0957 -0.0271
 1611W        W 3811  21.394   3.139  17.696 -0.0716  0.1070 -0.1147
 1612W        W 3812   5.633   5.414   6.982  0.3081  0.2482 -0.2907
 1613W        W 3813  19.894   0.576   6.370  0.3999  0.0956 -0.0619
 1614W        W 3814  11.183   6.051  32.350  0.1008  0.2538 -0.2733
 1615W        W 3815   4.791   1.046  16.985  0.1433  0.0237  0.0898
 1616W        W 3816   3.335   0.526  19.643 -0.0534 -0.2753 -0.4201
 1617W        W 3817  18.684   6.796  22.445 -0.1948 -0.2649 -0.1067
 1618W        W 3818  12.814   6.649  22.060 -0.0254  0.0738  0.1247
 1619W        W 3819  10.490   6.454  31.815  0.2386  0.0221  0.1960
 1620W        W 3820  18.697   2.738   4.850 -0.1366  0.1118 -0.2219
 1621W        W 3821  19.321   0.144  11.272  0.0839 -0.0279  0.0362
 1622W        W 3822  13.710   0.108  23.354  0.1708  0.1683  0.1240
 1623W        W 3823  16.241   5.749  10.896 -0.0324  0.3461  0.0904
 1624W        W 3824  25.078   0.980  19.336 -0.2895 -0.0419  0.3743
 1625W        W 3825   8.212   3.371   2.351 -0.0020 -0.2034  0.1456
 1626W        W 3826   1.344   4.037  10.628 -0.2187  0.1646 -0.2807
 1627W        W 3827  11.104   5.382   1.881 -0.0752  0.2476  0.2449
 1628W        W 3828  14.063   0.270   5.926 -0.2891  0.0818 -0.1069
 1629W        W 3829  24.405   3.616   5.444 -0.0195  0.0608  0.1778
 1630W        W 3830  23.201   2.137  14.283 -0.0180  0.0030  0.1618
 1631W        W 3831  19.080   3.680  14.985  0.0030 -0.2497  0.0864
 1632W        W 3832  14.460   4.212  23.137  0.1063 -0.0510 -0.5392
 1633W        W 3833  23.649   2.436  25.274 -0.1447 -0.0490  0.0357
 1634W        W 3834   0.175   0.711   4.436 -0.1915 -0.0077  0.2531
 1635W        W 3835  20.349   6.350   4.922 -0.2300 -0.2235 -0.0896
 1636W        W 3836  13.312   6.333   3.885  0.0073  0.2576  0.0936
 1637W        W 3837   8.795   5.113   2.368  0.2043 -0.0336  0.0050
 1638W        W 3838  15.250   4.481   8.446 -0.2446  0.3126 -0.0135
 1639W        W 3839  13.839   0.338   8.779 -0.0871  0.1229 -0.0760
 1640W        W 3840  19.639   3.529  24.882  0.2692 -0.0351  0.0824
 1641W        W 3841  24.827   1.775   1.178 -0.0972  0.0397  0.0543
 1642W        W 3842  22.937   3.664  10.096  0.0310 -0.3119  0.0298
 1643W        W 3843   2.986   3.177  31.861 -0.2492  0.0657 -0.1374
 1644W        W 3844  24.122   2.760   0.488 -0.0895  0.1195  0.1463
 1645W        W 3845  18.259   7.434  29.409  0.0467  0.0689 -0.0495
 1646W        W 3846   8.640   4.185   7.366  0.1531  0.3996 -0.0883
 1647W        W 3847  12.119   6.823   7.735  0.0992  0.1850  0.1553
 1648W        W 3848  23.651   4.227  21.696 -0.2624 -0.0322 -0.0086
 1649W        W 3849  24.941   0.341  23.884 -0.3202 -0.0455  0.0642
 1650W        W 3850   6.969   3.328  27.942  0.2223  0.1781 -0.1054
 1651W        W 3851  22.398   2.190   7.989  0.1742 -0.1237  0.1411
 1652W        W 3852   9.035   6.414  27.384  0.0378 -0.1645  0.0307
 1653W        W 3853  18.387   4.715   8.153 -0.0563 -0.1814 -0.1954
 1654W        W 3854  22.939   0.801   0.126 -0.0666  0.0534 -0.0369
 1655W        W 3855   2.254   3.611   1.913 -0.2244  0.1113  0.0514
 1656W        W 3856   6.238   6.546  29.241 -0.2263  0.1126 -0.0601
 1657W        W 3857  11.120   2.278  22.636  0.1261  0.0090 -0.2991
 1658W        W 3858  11.740   7.706  19.966 -0.0288 -0.0329 -0.0040
 1659W        W 3859  23.649   2.866  25.014 -0.0710  0.0045 -0.2039
 1660W        W 3860  20.044   2.745  25.926 -0.1931  0.2006 -0.2001
 1661W        W 3861   5.361   6.130  19.019  0.0136 -0.1418  0.0056
 1662W        W 3862  15.919   3.940  23.736 -0.0320  0.0612  0.0505
 1663W        W 3863  22.724   4.365   2.476  0.1306  0.1826 -0.2846
 1664W        W 3864   0.760   4.159  24.162 -0.2078 -0.0758 -0.3302
 1665W        W 3865   1.034   3.329   9.982 -0.3817  0.0489 -0.0340
 1666W        W 3866   1.171   1.671  29.730 -0.0227 -0.0166  0.1755
 1667W        W 3867   8.069   4.922  27.988  0.2345 -0.0665  0.2270
 1668W        W 3868  10.224   1.841   1.039 -0.3254 -0.0556  0.1209
 1669W        W 3869  10.858   5.215  32.008  0.0175 -0.0162  0.3433
 1670W        W 3870  23.708   1.479   0.006 -0.2967  0.1232  0.0230
 1671W        W 3871  13.994   6.709  27.633 -0.0381  0.2163 -0.3461
 1672W        W 3872  15.385   4.564  13.027 -0.1215 -0.1967 -0.2497
 1673W        W 3873   0.230   2.015  23.839 -0.1145 -0.0471 -0.2294
 1674W        W 3874   2.812   2.720  24.382  0.0330  0.5509  0.1054
 1675W        W 3875   8.056   1.361  14.483 -0.1666 -0.0972  0.0940
 1676W        W 3876  13.701   1.762  10.860  0.0828 -0.0398  0.1929
 1677W        W 3877  22.775   4.529  24.511  0.2025 -0.2321  0.0697
 1678W        W 3878   3.184   0.529  29.100  0.0176 -0.2311  0.0694
 1679W        W 3879  20.758   6.336   6.726 -0.0185  0.1671  0.0906
 1680W        W 3880  23.704   7.176  27.227  0.0209  0.1690  0.1443
 1681W        W 3881   8.981   1.736  26.034 -0.2380 -0.0477 -0.1276
 1682W        W 3882  20.739   7.010  23.164 -0.1368 -0.1153 -0.0773
 1683W        W 3883   7.388   4.996  15.634 -0.0089 -0.0560 -0.0356
 1684W        W 3884   9.088   3.509   4.648  0.0366 -0.1235 -0.1635
 1685W        W 3885   3.102   1.807  24.376 -0.5375  0.0516  0.2148
 1686W        W 3886  16.202   4.209   1.506  0.0132 -0.0967  0.1103
 1687W        W 3887   2.342   4.803  21.678  0.0522  0.0275 -0.2771
 1688W        W 3888  11.421   4.639   3.911 -0.0264 -0.1434 -0.2578
 1689W        W 3889   4.390   1.139   0.878 -0.4227  0.0127 -0.2704
 1690W        W 3890  12.393   0.307   1.886  0.3131 -0.2603  0.1205
 1691W        W 3891  11.486   4.343  10.562 -0.0950  0.4259 -0.0793
 1692W        W 3892  11.405   6.666  18.975 -0.2131  0.0378  0.2850
 1693W        W 3893   3.156   7.333  20.800 -0.2454 -0.1393  0.3485
 1694W        W 3894  14.443   3.696  31.401  0.2353  0.1648  0.0357
 1695W        W 3895  10.585   6.431  27.435  0.0681  0.4124 -0.0780
 1696W        W 3896  24.018   4.973  25.521  0.0510 -0.1194  0.1241
 1697W        W 3897   7.093   2.452   6.168 -0.0488 -0.0813 -0.1032
 1698W        W 3898  11.943   3.890   7.545 -0.0400 -0.3392 -0.0046
 1699W        W 3899   6.558   6.440  18.532 -0.3846 -0.1340 -0.1495
 1700W        W 3900   2.068   7.266  20.418  0.0921 -0.0209  0.1909
 1701W        W 3901   4.289   1.862  31.716  0.2441 -0.0393  0.0846
 1702W        W 3902  22.741   0.075  24.619  0.0011 -0.0817 -0.1162
 1703W        W 3903   2.624   4.968  29.831 -0.0809  0.1889  0.0551
 1704W        W 3904   7.371   5.363   2.990 -0.0682  0.0901 -0.0731
 1705W        W 3905   9.537   6.477  28.198 -0.0779  0.0758 -0.0167
 1706W        W 3906  23.407   4.921   5.036 -0.1686 -0.1179 -0.0619
 1707W        W 3907   6.876   7.025  30.552  0.0306 -0.3707  0.0390
 1708W        W 3908  13.331   7.363   0.519  0.0004 -0.1658 -0.2450
 1709W        W 3909   5.243   2.149  29.965 -0.0001 -0.1570  0.1093
 1710W        W 3910   9.304   0.685  19.860 -0.0542 -0.0965 -0.1111
 1711W        W 3911  20.057   6.346  26.736 -0.2881  0.0172  0.1302
 1712W        W 3912   0.124   1.562   3.407 -0.0317  0.1780 -0.0152
 1713W        W 3913   5.097   1.443  17.135  0.0339  0.0997 -0.0717
 1714W        W 3914  16.371   3.579  22.585 -0.1308  0.0244 -0.2648
 1715W        W 3915  23.707   6.698  12.545 -0.1038 -0.0589  0.0184
 1716W        W 3916  18.431   1.286  32.368 -0.0359 -0.2686 -0.0240
 1717W        W 3917  19.503   2.135  29.158  0.0987 -0.1010  0.0833
 1718W        W 3918  10.885   5.660  29.334  0.0660  0.0073  0.0275
 1719W        W 3919   1.142   5.677   8.531  0.5233  0.0399  0.0539
 1720W        W 3920  19.628   2.186   5.159 -0.0640 -0.1819 -0.2306
 1721W        W 3921   7.935   2.951  29.999  0.1511  0.1506 -0.0467
 1722W        W 3922  23.339   2.019   3.967 -0.0084  0.0587  0.2021
 1723W        W 3923   8.104   6.856  19.202 -0.1105 -0.0015 -0.0585
 1724W        W 3924   5.440   0.831  17.888 -0.0093 -0.0927  0.0116
 1725W        W 3925   6.538   5.167   0.351  0.0115 -0.0127 -0.3098
 1726W        W 3926  11.124   4.087  17.939 -0.1492  0.2999  0.1783
 1727W        W 3927  21.863   5.513   0.211  0.0184  0.1048  0.0805
 1728W        W 3928  21.899   5.103  11.123 -0.2791 -0.0315 -0.1503
 1729W        W 3929  17.633   0.056   3.245 -0.0090 -0.0198  0.0906
 1730W        W 3930   4.746   7.437  28.337  0.0846 -0.2883  0.2569
 1731W        W 3931  10.883   2.302  10.235 -0.1315 -0.0714 -0.1986
 1732W        W 3932  22.814   1.518   9.415 -0.0011 -0.2385 -0.1773
 1733W        W 3933  11.231   2.194  22.016 -0.0549  0.0229  0.0778
 1734W        W 3934  15.486   7.224  30.786 -0.0647 -0.3951  0.0103
 1735W        W 3935  23.654   2.423  32.225 -0.1711  0.2551  0.3225
 1736W        W 3936  19.260   2.298  16.349 -0.0178  0.1392 -0.0790
 1737W        W 3937  22.586   1.415  12.155  0.0689 -0.1730  0.0266
 1738W        W 3938  15.617   2.872  15.569 -0.1424  0.1711 -0.0181
 1739W        W 3939  24.451   1.695   9.039  0.0282  0.2202 -0.1900
 1740W        W 3940  19.603   4.709  10.716  0.0320 -0.3139  0.2588
 1741W        W 3941  22.403   4.815  15.306 -0.0338  0.2605  0.1240
 1742W        W 3942  10.021   3.164   2.064  0.0134 -0.0781 -0.0915
 1743W        W 3943   8.828   6.909   6.482  0.2171 -0.2625  0.1659
 1744W        W 3944  14.215   3.501  26.778 -0.1490  0.1897 -0.1891
 1745W        W 3945  17.736   5.547   6.062 -0.0181  0.0356  0.1557
 1746W        W 3946  17.436   1.380  28.327  0.0482 -0.0540 -0.0323
 1747W        W 3947   7.644   7.207  15.973  0.0583 -0.4657 -0.0885
 1748W        W 3948  11.557   0.420  31.283  0.0059 -0.2659  0.1017
 1749W        W 3949  19.544   6.264   7.520  0.1611  0.0195 -0.1898
 1750W        W 3950  17.796   4.126  12.002 -0.2197 -0.0619 -0.0819
 1751W        W 3951   5.905   1.065   2.433  0.1585  0.1171  0.1571
 1752W        W 3952  18.965   1.151  15.725 -0.0897 -0.0291  0.0517
 1753W        W 3953   5.799   2.186  32.530 -0.0985 -0.0856 -0.0777
 1754W        W 3954   3.706   0.411  20.135  0.0995 -0.0469 -0.2503
 1755W        W 3955  10.678   3.500   3.196 -0.4269 -0.1212  0.0348
 1756W        W 3956  23.654   5.868  21.663  0.0977 -0.1316  0.1473
 1757W        W 3957   5.225   0.015  21.411 -0.0140 -0.1376 -0.1224
 1758W        W 3958  14.239   5.384  22.714  0.0922 -0.1747  0.0355
 1759W        W 3959   7.270   2.836  26.341 -0.2450  0.0410  0.1668
 1760W        W 3960  21.072   3.657  31.927  0.4526 -0.0585  0.2005
 1761W        W 3961   2.478   2.025   3.092  0.1156 -0.0279 -0.1121
 1762W        W 3962  12.621   7.845  28.936  0.0859 -0.2008 -0.0457
 1763W        W 3963  24.507   2.689   5.667 -0.2209  0.2335 -0.0956
 1764W        W 3964  16.385   1.567  32.466  0.3482 -0.1301 -0.0736
 1765W        W 3965  24.752   7.588   1.568  0.0485  0.1344 -0.2500
 1766W        W 3966  24.085   7.223  21.475  0.0987  0.3750 -0.0846
 1767W        W 3967  18.765   6.221  26.756 -0.2722 -0.0939 -0.2246
 1768W        W 3968   8.506   6.920  15.370 -0.0398 -0.1012  0.2471
 1769W        W 3969  10.383   6.114   5.370  0.1662  0.2064  0.0243
 1770W        W 3970   8.546   1.074  19.308 -0.3881  0.0966  0.1086
 1771W        W 3971   6.238   7.315   7.041  0.0450  0.1224  0.1364
 1772W        W 3972   2.197   2.695   1.824  0.1669 -0.0875  0.0827
 1773W        W 3973  14.462   4.694   9.413 -0.0113 -0.3058  0.1915
 1774W        W 3974   2.756   5.018  29.352 -0.2972  0.0952  0.1956
 1775W        W 3975   2.819   6.247   2.268  0.0143  0.2470 -0.1241
 1776W        W 3976   5.266   4.832  21.217  0.0240 -0.2703 -0.2095
 1777W        W 3977   6.355   1.090   8.790 -0.0394 -0.3063  0.1125
 1778W        W 3978  25.106   2.886   2.607  0.3007  0.0808  0.0737
 1779W        W 3979   9.045   1.796   9.951  0.0676  0.0484 -0.1218
 1780W        W 3980  11.641   4.783  18.066  0.3343 -0.1613  0.2309
 1781W        W 3981   4.643   3.063   1.054  0.0210  0.1153 -0.0613
 1782W        W 3982  18.596   2.222  12.542  0.0217 -0.0737  0.1172
 1783W        W 3983  11.238   5.386  19.222 -0.2716 -0.0995 -0.0335
 1784W        W 3984  15.714   6.585  15.023 -0.0401 -0.0014  0.0981
 1785W        W 3985   6.354   0.703   9.903  0.0500 -0.1044  0.2774
 1786W        W 3986  15.292   1.364   6.064 -0.1911  0.1425 -0.1948
 1787W        W 3987  22.487   2.066   2.521  0.1351  0.2249 -0.1205
 1788W        W 3988  19.243   1.254  31.405 -0.2166  0.0106 -0.1882
 1789W        W 3989   6.751   1.380   8.897 -0.2740 -0.0867 -0.0606
 1790W        W 3990   8.822   5.909   5.313 -0.1148 -0.2712 -0.2534
 1791W        W 3991  22.592   6.063  22.948 -0.1865  0.0114  0.1240
 1792W        W 3992   6.530   0.144   6.953 -0.0815  0.1746  0.0852
 1793W        W 3993   1.931   0.307   6.126 -0.0506 -0.2307 -0.0886
 1794W        W 3994   4.205   5.862  15.716  0.2423 -0.1465 -0.1175
 1795W        W 3995   6.621   5.781   5.303 -0.5480  0.1568  0.0852
 1796W        W 3996  15.915   6.884   5.708 -0.1170 -0.0942  0.0864
 1797W        W 3997  20.981   3.138  28.664 -0.1899  0.1194  0.1391
 1798W        W 3998  16.004   3.844  26.439  0.0321 -0.1737  0.0371
 1799W        W 3999  11.794   4.608  21.391  0.0405  0.0839  0.1918
 1800W        W 4000   4.798   1.704  23.930 -0.0349 -0.0794 -0.1804
 1801W        W 4001  16.621   4.576  23.125 -0.1014 -0.1061  0.3143
 1802W        W 4002  14.404   5.153  24.251  0.2139 -0.2227  0.1614
 1803W        W 4003  17.875   4.947  28.519  0.1401 -0.0427 -0.0237
 1804W        W 4004  18.673   1.739   3.801 -0.2879 -0.2807 -0.0208
 1805W        W 4005  17.139   3.614  17.720  0.1939 -0.0460  0.0538
 1806W        W 4006   6.528   5.976   7.636  0.3139 -0.2594  0.1384
 1807W        W 4007  18.359   6.354   6.322  0.0294  0.2476  0.1747
 1808W        W 4008  19.048   5.822  23.793 -0.2056 -0.3940 -0.0330
 1809W        W 4009  12.391   5.019  26.966  0.0090 -0.0484  0.0394
 1810W        W 4010   9.309   2.634  30.708 -0.0965  0.0146  0.1240
 1811W        W 4011   5.650   3.069  21.204 -0.1936  0.3518 -0.1493
 1812W        W 4012  22.249   7.853  30.719 -0.1203  0.1511 -0.0655
 1813W        W 4013  12.317   7.327  32.531  0.1077  0.0402  0.0725
 1814W        W 4014   7.893   5.336   9.536 -0.0170  0.0464  0.1465
 1815W        W 4015  18.273   2.527  16.970  0.1105 -0.1394 -0.0293
 1816W        W 4016   6.655   1.033   3.127 -0.1816  0.0038  0.1802
 1817W        W 4017  15.049   6.136  24.778  0.0061  0.1944  0.1627
 1818W        W 4018   3.224   7.184  30.495 -0.2808 -0.0340 -0.0625
 1819W        W 4019  22.260   6.634  13.684 -0.1331  0.0243  0.0093
 1820W        W 4020  22.307   6.275  24.877  0.2651  0.1496  0.1326
 1821W        W 4021  22.124   0.025  22.521  0.3751  0.2928 -0.3062
 1822W        W 4022   3.635   6.176   8.821  0.0476  0.0040 -0.1668
 1823W        W 4023  19.226   3.909  27.021  0.2980 -0.0305  0.4156
 1824W        W 4024  21.704   3.817  22.352 -0.4478 -0.1770 -0.0705
 1825W        W 4025  18.921   2.314   6.378 -0.2322  0.0770  0.1450
 1826W        W 4026   9.439   6.487  29.740  0.1307  0.3745 -0.0957
 1827W        W 4027  20.520   1.768   6.866  0.0706  0.1701 -0.3065
 1828W        W 4028  17.506   1.570   0.507  0.2448  0.1122 -0.0083
 1829W        W 4029  17.485   2.385   8.029 -0.0003 -0.1233 -0.1129
 1830W        W 4030  20.218   3.348  13.889 -0.1938  0.3581 -0.1278
 1831W        W 4031   6.025   4.514   1.122 -0.0342  0.0814 -0.0786
 1832W        W 4032   0.637   6.625  18.023 -0.2177  0.0668 -0.0345
 1833W        W 4033   6.514   4.300  20.187  0.1489 -0.0069 -0.0206
 1834W        W 4034  12.956   4.137  28.421 -0.1653 -0.1694 -0.3143
 1835W        W 4035   5.003   7.205  27.583  0.0436  0.0702  0.1342
 1836W        W 4036  10.516   7.206  17.123  0.1572  0.0208  0.0959
 1837W        W 4037  13.284   7.355  21.730 -0.0145 -0.0782  0.1373
 1838W        W 4038  11.783   5.771  27.225  0.4913 -0.1513  0.0008
 1839W        W 4039   6.125   4.281  17.684  0.0148 -0.3327 -0.1825
 1840W        W 4040  15.184   6.275  12.383  0.1471 -0.0223  0.3290
 1841W        W 4041   9.025   1.408  25.273 -0.0233  0.1633 -0.0232
 1842W        W 4042   6.042   0.424  24.446  0.1467  0.1991 -0.0709
 1843W        W 4043   1.045   4.981  22.043  0.0478 -0.0017 -0.0452
 1844W        W 4044  19.203   5.653   5.341  0.0365  0.0446  0.1818
 1845W        W 4045   3.973   6.731   0.333  0.5283  0.1543  0.0497
 1846W        W 4046  13.260   2.791  12.008 -0.2293  0.3895  0.1432
 1847W        W 4047  16.432   3.623  32.518 -0.0054  0.0723 -0.2173
 1848W        W 4048  22.133   4.151   8.388 -0.2240  0.0101 -0.0918
 1849W        W 4049   4.131   7.153   9.262 -0.1780 -0.1584  0.1831
 1850W        W 4050   1.779   5.859  24.169  0.1068  0.2914  0.2068
 1851W        W 4051  24.940   1.519  26.379 -0.0734  0.0804  0.1433
 1852W        W 4052  17.379   0.259   0.767  0.3490  0.1217  0.1510
 1853W        W 4053   6.735   5.349  31.822 -0.0438 -0.0032 -0.4242
 1854W        W 4054  22.606   2.883   4.690  0.0647 -0.1743  0.0018
 1855W        W 4055  10.631   0.967  24.172  0.0269  0.1697 -0.1426
 1856W        W 4056   1.593   7.480   4.241  0.2021  0.1148 -0.0836
 1857W        W 4057  16.347   0.020   9.987 -0.1761  0.1047  0.0158
 1858W        W 4058   0.711   3.196  29.258 -0.0454  0.3588 -0.2213
 1859W        W 4059  20.188   6.326   1.813 -0.2999 -0.2386  0.0741
 1860W        W 4060  22.159   0.791   4.021  0.1552  0.2070 -0.3103
 1861W        W 4061  11.203   2.221  30.029  0.1007  0.0816 -0.2148
 1862W        W 4062  19.440   1.643   1.593 -0.0949 -0.0139 -0.0440
 1863W        W 4063  17.264   5.231  24.153 -0.3592 -0.0251  0.0289
 1864W        W 4064  14.260   3.495   2.113  0.3260 -0.1258  0.0125
 1865W        W 4065  11.885   7.321  29.300 -0.3942 -0.2599 -0.1999
 1866W        W 4066   5.437   0.892  29.284  0.4445  0.2533 -0.0823
 1867W        W 4067   8.523   5.249   0.313  0.0174 -0.4876 -0.1420
 1868W        W 4068  20.600   0.010  13.708 -0.1838  0.2260 -0.0652
 1869W        W 4069   8.470   4.870   1.610  0.0334  0.1930  0.0203
 1870W        W 4070  18.452   2.530   8.299 -0.0277  0.0470 -0.1569
 1871W        W 4071  24.922   2.776  23.872 -0.0341  0.0421  0.1654
 1872W        W 4072  20.913   5.857  12.788 -0.0522  0.2065  0.0261
 1873W        W 4073  11.579   6.705   1.488  0.1384 -0.1269  0.2080
 1874W        W 4074   8.281   2.979  16.397 -0.1110 -0.1235  0.0600
 1875W        W 4075  18.600   0.911   8.213 -0.2503 -0.1126 -0.2496
 1876W        W 4076  14.945   1.274  31.221  0.1955  0.2015  0.1256
 1877W        W 4077  18.422   2.473  27.442  0.1169 -0.1519  0.0851
 1878W        W 4078   4.644   0.810  23.713  0.1651 -0.0669  0.0650
 1879W        W 4079  16.496   1.107  14.086 -0.1914  0.0260  0.1521
 1880W        W 4080   4.220   1.391  18.312  0.5094  0.0131 -0.0875
 1881W        W 4081  19.936   7.001  29.236 -0.1995  0.4424 -0.3086
 1882W        W 4082   1.039   4.059   6.573  0.1172 -0.1254  0.3105
 1883W        W 4083  17.752   7.618  26.906 -0.0586  0.1485  0.1352
 1884W        W 4084   5.662   7.320   5.899 -0.2826  0.1713 -0.1620
 1885W        W 4085   9.141   2.225  21.508  0.3130 -0.0050 -0.3185
 1886W        W 4086  24.073   1.217   9.806  0.2450  0.0478 -0.1668
 1887W        W 4087  23.652   2.929  10.971 -0.0770 -0.2126  0.2785
 1888W        W 4088   0.140   4.510   3.299  0.2363  0.1137 -0.2828
 1889W        W 4089   0.036   5.357  27.529  0.1794 -0.0276 -0.1350
 1890W        W 4090  16.104   7.682   0.702 -0.0295 -0.1675 -0.0262
 1891W        W 4091   1.401   2.079  23.511  0.2977 -0.3256  0.0649
 1892W        W 4092  12.909   0.514  24.618  0.0731 -0.0836 -0.3024
 1893W        W 4093  12.328   0.320   0.403 -0.2994  0.3140 -0.1614
 1894W        W 4094  18.104   1.381   2.662  0.0789  0.0526  0.1240
 1895W        W 4095  17.903   7.755  17.082  0.0852  0.3705 -0.0950
 1896W        W 4096   6.363   0.181   7.777 -0.1860 -0.1018  0.2337
 1897W        W 4097   4.711   6.623   7.678  0.4024 -0.3569  0.0447
 1898W        W 4098  23.169   1.341  27.253 -0.3200  0.0343  0.0492
 1899W        W 4099  24.552   7.853  13.603  0.0289 -0.1946 -0.0517
 1900W        W 4100  13.312   2.428  28.057 -0.1012  0.1574 -0.1258
 1901W        W 4101   3.409   1.733   5.193  0.0753 -0.0740  0.0250
 1902W        W 4102   4.742   2.731  14.962 -0.0204 -0.3763  0.2593
 1903W        W 4103  14.091   6.720   2.619  0.4032  0.0262  0.2130
 1904W        W 4104  14.857   3.776   8.942 -0.0212  0.2296 -0.1215
 1905W        W 4105  21.635   2.856  29.663 -0.0632 -0.0462  0.2997
 1906W        W 4106  10.442   2.779   0.795  0.2646  0.1491 -0.2702
 1907W        W 4107  16.877   4.365  24.195  0.0385 -0.1791  0.0155
 1908W        W 4108   6.040   4.677  27.162 -0.1519  0.2158 -0.1731
 1909W        W 4109  14.224   4.340  10.704  0.1474  0.0119  0.1934
 1910W        W 4110   6.393   3.947  16.597 -0.0149 -0.0567  0.0332
 1911W        W 4111   1.128   0.044  12.042  0.0704  0.0820  0.0081
 1912W        W 4112   8.717   6.679   1.511 -0.0200  0.3444 -0.0797
 1913W        W 4113  17.511   1.934  30.808 -0.2783  0.0178 -0.1538
 1914W        W 4114  14.465   4.826   4.033  0.2747 -0.0267 -0.1125
 1915W        W 4115  11.952   5.196  27.124 -0.3094 -0.0449  0.1655
 1916W        W 4116  21.729   5.484  32.205 -0.1195  0.0423 -0.2337
 1917W        W 4117  19.066   4.441   2.024  0.5898  0.2237 -0.1370
 1918W        W 4118  21.335   0.642  28.408  0.1436  0.0621 -0.0281
 1919W        W 4119  13.836   1.694   2.343  0.1156  0.1972  0.2645
 1920W        W 4120   6.808   1.076   6.516 -0.3809  0.4188 -0.0298
 1921W        W 4121  15.392   2.178  28.490  0.1995  0.3082 -0.1845
 1922W        W 4122  14.076   1.289   2.076 -0.1637  0.0940  0.2404
 1923W        W 4123   5.107   0.436  30.970  0.1885  0.0245 -0.0557
 1924W        W 4124   3.692   7.323   3.158  0.0890 -0.3161  0.1571
 1925W        W 4125  18.838   0.354   5.530 -0.0969  0.2492 -0.1197
 1926W        W 4126  19.628   0.366   3.369  0.0905 -0.0672  0.0535
 1927W        W 4127  17.919   5.121   8.923 -0.0383 -0.2143  0.1918
 1928W        W 4128  14.187   3.886   0.756  0.4032 -0.1010  0.0794
 1929W        W 4129   9.350   0.420  24.400 -0.3388  0.0289  0.0406
 1930W        W 4130   2.018   2.339   2.974  0.1722 -0.0020  0.1286
 1931W        W 4131  10.957   7.090   9.593 -0.1534 -0.1778 -0.3266
 1932W        W 4132   6.161   3.851  17.997 -0.1557 -0.1331  0.2331
 1933W        W 4133  20.402   3.705  17.706 -0.0491 -0.4232 -0.1642
 1934W        W 4134   3.168   6.952   8.833  0.1841  0.0231 -0.0606
 1935W        W 4135  22.452   2.100  21.077 -0.2159 -0.1525 -0.4321
 1936W        W 4136  21.960   2.554  12.496 -0.0310  0.1362 -0.1827
 1937W        W 4137  17.492   1.184  26.390 -0.1095 -0.0382 -0.2205
 1938W        W 4138   3.170   4.622  17.835 -0.0415 -0.0435  0.0368
 1939W        W 4139  15.773   3.205   3.659 -0.1420  0.1983 -0.1700
 1940W        W 4140   0.417   6.587  31.989  0.0359  0.2168  0.0131
 1941W        W 4141   5.216   5.901   9.809 -0.0091 -0.1531  0.2783
 1942W        W 4142   1.541   4.120  32.525  0.1626 -0.2431  0.1703
 1943W        W 4143  11.091   4.020   9.700  0.0995 -0.0116 -0.0188
 1944W        W 4144   9.793   6.486  30.913  0.0582 -0.0283  0.3124
 1945W        W 4145  21.506   5.071   9.009 -0.2304  0.2013  0.2554
 1946W        W 4146   8.187   7.509   1.202  0.0046  0.1304 -0.1837
 1947W        W 4147  15.965   5.808  27.522  0.4311  0.1873 -0.0966
 1948W        W 4148   9.179   0.777  32.504  0.2029  0.1225  0.0973
 1949W        W 4149   2.656   6.666  26.683 -0.1864  0.0735 -0.2744
 1950W        W 4150  10.883   6.361  22.985  0.1999 -0.2915  0.1485
 1951W        W 4151   9.210   7.631   7.423  0.1824 -0.2789  0.0896
 1952W        W 4152   6.069   2.495   7.621  0.0261  0.0236  0.3862
 1953W        W 4153  17.101   3.581   0.449  0.1496  0.2120 -0.0233
 1954W        W 4154  24.428   4.939   4.052 -0.0403 -0.4837 -0.1355
 1955W        W 4155   0.015   0.532  11.768  0.0609  0.1286 -0.2448
 1956W        W 4156  16.613   0.169  28.862  0.0249 -0.0958  0.0722
 1957W        W 4157   5.403   7.744   5.522  0.1740 -0.2027  0.0185
 1958W        W 4158  23.198   6.038   6.657 -0.1575 -0.0739  0.1803
 1959W        W 4159  19.416   3.316  15.107  0.2838 -0.0838 -0.1455
 1960W        W 4160  20.323   0.157   4.788 -0.1408  0.0187  0.1574
 1961W        W 4161  10.783   7.836  18.348  0.1287  0.2407  0.1465
 1962W        W 4162  23.351   2.197   6.131 -0.2024 -0.1317  0.1304
 1963W        W 4163   9.488   2.108   8.778  0.0763 -0.0783 -0.2305
 1964W        W 4164   7.095   2.581  16.781  0.0625  0.0031  0.1519
 1965W        W 4165   7.720   3.308   3.675  0.0767  0.2533 -0.1867
 1966W        W 4166   9.705   2.678  28.101 -0.1172  0.0228  0.1670
 1967W        W 4167  20.582   3.696  11.211  0.2658 -0.1011  0.2025
 1968W        W 4168   6.515   1.819   8.050 -0.3152 -0.0939 -0.0141
 1969W        W 4169  12.648   0.828   1.651  0.2113 -0.1067 -0.2121
 1970W        W 4170   5.696   6.252   2.484 -0.2178 -0.0091 -0.2269
 1971W        W 4171  10.064   4.475  32.436 -0.0593 -0.1527 -0.0176
 1972W        W 4172   2.285   3.165  26.544  0.0687 -0.2603 -0.1716
 1973W        W 4173  10.661   4.753   1.809  0.2837 -0.0321 -0.0117
 1974W        W 4174   0.148   7.332   0.625  0.0584 -0.0127  0.1951
 1975W        W 4175  17.949   6.715  17.836 -0.2545 -0.2428  0.2554
 1976W        W 4176  23.166   1.092   1.581  0.1493  0.1294  0.2164
 1977W        W 4177  15.911   3.472  25.397  0.1750  0.0300  0.0995
 1978W        W 4178   6.407   5.585  28.321  0.2745  0.0603 -0.0786
 1979W        W 4179  10.654   5.377   0.804 -0.1947  0.1619  0.1731
 1980W        W 4180  24.850   5.400  21.467 -0.2058  0.0455  0.1512
 1981W        W 4181   7.935   6.640  17.009 -0.1886 -0.2271  0.1172
 1982W        W 4182   6.996   3.817   9.213 -0.2361  0.2148  0.0980
 1983W        W 4183  21.257   3.818  28.317 -0.0663 -0.0625  0.3185
 1984W        W 4184  14.974   3.870  30.304  0.1298 -0.0456  0.1694
 1985W        W 4185  12.241   0.600   1.392 -0.2340  0.0897 -0.2495
 1986W        W 4186   2.194   7.791  28.040  0.1960  0.3241 -0.0538
 1987W        W 4187  10.941   0.338  31.192  0.0983 -0.1995 -0.0546
 1988W        W 4188   6.986   6.635   7.155 -0.1818  0.3170  0.2888
 1989W        W 4189  16.714   1.100  26.580 -0.2721 -0.1793  0.0512
 1990W        W 4190  16.209   5.620  31.494  0.0599  0.0839 -0.0876
 1991W        W 4191  21.320   4.766  23.557 -0.1259  0.2261 -0.1315
 1992W        W 4192  13.324   4.690  11.981 -0.1355  0.1957  0.1609
 1993W        W 4193  16.090   6.360  14.462  0.1866  0.0383 -0.3292
 1994W        W 4194  10.948   7.212  21.796 -0.2729 -0.0749  0.1271
 1995W        W 4195  21.911   2.094  12.295  0.1353  0.0814 -0.1420
 1996W        W 4196  24.379   0.204  27.576  0.0400  0.1819  0.1316
 1997W        W 4197   8.317   3.164  31.573 -0.2120  0.0934 -0.2276
 1998W        W 4198  16.733   2.649  15.451  0.0218  0.0661  0.0369
 1999W        W 4199   7.976   3.852   0.191  0.0840  0.2785 -0.0499
 2000W        W 4200  17.225   5.673  26.523 -0.2069  0.0517  0.1801
 2001W        W 4201  14.710   2.470  27.154  0.1080 -0.0716 -0.1215
 2002W        W 4202  24.664   0.150  12.655 -0.1945  0.0214  0.0000
 2003W        W 4203   7.138   3.357   5.798  0.3075  0.2990  0.0555
 2004W        W 4204  23.672   0.948   9.740  0.0854  0.1886  0.1326
 2005W        W 4205   7.136   5.425   6.359  0.0833  0.1780 -0.3283
 2006W        W 4206  15.851   0.792  28.803 -0.3401 -0.2119 -0.0240
 2007W        W 4207  23.677   4.358  25.258  0.2102  0.1494  0.0085
 2008W        W 4208  11.964   2.672  25.478 -0.2224  0.2111 -0.1865
 2009W        W 4209   9.162   6.178  28.434  0.0476  0.2023  0.1138
 2010W        W 4210  21.873   6.987   1.846 -0.0377 -0.0516  0.1629
 2011W        W 4211  19.226   0.724  15.455 -0.1923 -0.0247 -0.2309
 2012W        W 4212  19.661   2.418   6.858 -0.1503 -0.3792  0.0533
 2013W        W 4213  20.628   0.739   2.598  0.2128  0.0711 -0.0101
 2014W        W 4214   3.244   0.709  17.789  0.1539 -0.2034  0.2121
 2015W        W 4215  13.818   6.766  29.332  0.1040  0.5642  0.2619
 2016W        W 4216  15.872   4.960  29.610 -0.3743  0.0506 -0.0737
 2017W        W 4217  17.036   7.470  24.927  0.0544  0.0314  0.2252
 2018W        W 4218  11.400   2.129  17.027 -0.1063  0.0012 -0.0685
 2019W        W 4219  13.387   6.285   6.313  0.0782 -0.2590 -0.0424
 2020W        W 4220  21.979   1.104   5.159  0.1501  0.1821 -0.0721
 2021W        W 4221  16.042   2.663   6.140  0.0100  0.0605 -0.1314
 2022W        W 4222   3.580   1.631  24.277 -0.0161  0.0924 -0.1008
 2023W        W 4223   3.392   4.019  27.443  0.1291  0.0088 -0.0529
 2024W        W 4224   2.472   2.098  25.146 -0.0224 -0.0389  0.1293
 2025W        W 4225  18.776   5.403  14.703  0.0619  0.1956 -0.2085
 2026W        W 4226  20.431   1.690   9.992 -0.1038  0.0774 -0.2584
 2027W        W 4227   1.388   7.277  18.577  0.1408 -0.2814 -0.1573
 2028W        W 4228   2.549   2.013  17.985  0.0883  0.2437 -0.0819
 2029W        W 4229   3.440   3.087  24.919 -0.1411  0.1127  0.4533
 2030W        W 4230  18.740   6.695  14.343 -0.0811 -0.2970 -0.0683
 2031W        W 4231   6.155   6.613   4.300  0.3165  0.2837 -0.3115
 2032W        W 4232   4.639   1.916  29.142 -0.0540  0.2553  0.0881
 2033W        W 4233   9.239   6.933  22.108 -0.0029 -0.1904  0.1051
 2034W        W 4234  16.312   0.393  15.550  0.2244  0.1109  0.0243
 2035W        W 4235  16.569   7.371  27.353 -0.1666  0.0802  0.2882
 2036W        W 4236   7.392   1.704  26.622  0.1267  0.1058  0.0368
 2037W        W 4237  14.491   0.663   3.764 -0.1883 -0.0599  0.0142
 2038W        W 4238  16.904   4.174  28.827 -0.0688  0.2487  0.1507
 2039W        W 4239  25.022   0.152   4.955 -0.0685  0.0042  0.3121
 2040W        W 4240  18.519   3.055  23.966  0.0488  0.1579 -0.2226
 2041W        W 4241  17.579   4.573   6.826  0.2115  0.1504  0.0765
 2042W        W 4242   2.260   3.746  29.217 -0.1805 -0.3164 -0.0881
 2043W        W 4243  11.486   4.458  30.535 -0.3935  0.0198 -0.2658
 2044W        W 4244   9.168   3.462   6.426 -0.1762  0.1943 -0.2834
 2045W        W 4245   9.748   1.744  28.305  0.2697 -0.0753  0.2303
 2046W        W 4246   6.544   4.461  28.768  0.0364 -0.2102 -0.2831
 2047W        W 4247  22.931   6.967  30.196 -0.0748  0.1764  0.0492
 2048W        W 4248  10.713   2.811  30.150  0.2330  0.1843  0.3678
 2049W        W 4249  20.160   5.714  16.672  0.0932  0.1482 -0.0267
 2050W        W 4250  10.116   0.001   6.951 -0.2096  0.2490  0.0318
 2051W        W 4251  24.149   2.765  21.355 -0.4114  0.0002 -0.1199
 2052W        W 4252  19.623   4.586   2.834  0.0033 -0.1422  0.0793
 2053W        W 4253  10.561   6.263  26.349 -0.1252 -0.0910  0.0921
 2054W        W 4254  13.194   5.946  28.653 -0.2452 -0.0197 -0.1470
 2055W        W 4255  24.159   6.779  13.956  0.2061  0.0294 -0.1348
 2056W        W 4256   1.932   4.615  28.063  0.0930  0.1905  0.0465
 2057W        W 4257  18.108   2.815  29.726 -0.2018 -0.0029  0.3175
 2058W        W 4258  15.262   6.656   6.263  0.0543 -0.5296 -0.0403
 2059W        W 4259  16.479   7.358   2.638  0.1108  0.1419 -0.0946
 2060W        W 4260   2.061   0.050  32.440  0.1108 -0.0589  0.0526
 2061W        W 4261  20.093   1.749  29.870 -0.1865 -0.0055  0.1262
 2062W        W 4262  10.608   7.073  10.458 -0.1644  0.2130 -0.0078
 2063W        W 4263   6.157   2.087   8.988  0.1565  0.1480 -0.2230
 2064W        W 4264  13.953   6.914   7.916  0.1420  0.0258  0.2391
 2065W        W 4265  10.583   7.503  10.069  0.0569 -0.0971  0.0490
 2066W        W 4266   7.975   2.864   8.917  0.3917  0.0813 -0.0278
 2067W        W 4267   9.606   1.055   0.863 -0.2349  0.0910  0.3159
 2068W        W 4268   1.715   4.009   6.829 -0.2303  0.0180  0.2158
 2069W        W 4269   7.396   6.831  15.625 -0.0056 -0.1446 -0.0176
 2070W        W 4270   3.616   6.231  16.556  0.1609  0.1634  0.1897
 2071W        W 4271  21.141   2.704  13.440 -0.2459  0.0719  0.0625
 2072W        W 4272   8.513   5.379  16.000 -0.0582 -0.0627 -0.1735
 2073W        W 4273  13.332   3.854   3.774  0.3257 -0.1213 -0.2602
 2074W        W 4274  18.378   4.109   1.962  0.3096 -0.0615 -0.0387
 2075W        W 4275  24.558   2.468   1.525 -0.2035  0.0132  0.2233
 2076W        W 4276  13.224   3.212  31.378  0.0302 -0.0257 -0.2697
 2077W        W 4277  18.178   6.968  24.274 -0.2202 -0.0285  0.1700
 2078W        W 4278   9.429   6.964  16.936 -0.2395 -0.0355  0.0382
 2079W        W 4279  24.034   1.343  25.494  0.0211  0.2819 -0.1022
 2080W        W 4280   9.242   3.474  25.511  0.1493  0.1343  0.1743
 2081W        W 4281   4.691   0.682  18.827  0.1571  0.0012 -0.3504
 2082W        W 4282   2.374   3.060  27.154 -0.0415  0.1531 -0.1468
 2083W        W 4283  13.853   4.216   0.870 -0.0170  0.0151 -0.0488
 2084W        W 4284  16.721   7.777   9.238  0.0408  0.1218  0.1727
 2085W        W 4285  13.759   7.306  12.329  0.3226 -0.0053 -0.4406
 2086W        W 4286   7.280   1.863  10.326  0.2228  0.0884 -0.0850
 2087W        W 4287  10.400   0.719   6.005  0.0472 -0.2091  0.0690
 2088W        W 4288  13.152   7.857   6.287 -0.0398 -0.0608 -0.2673
 2089W        W 4289  12.860   6.679  23.669  0.0725  0.2915  0.2633
 2090W        W 4290  20.536   6.032  30.232 -0.0511 -0.0972  0.2301
 2091W        W 4291   8.355   5.760  25.834 -0.3281  0.0901  0.0796
 2092W        W 4292  10.543   6.515  11.664  0.0839  0.3004 -0.2232
 2093W        W 4293   3.779   1.460  23.269 -0.2909 -0.1063 -0.0941
 2094W        W 4294  12.990   0.822  28.876  0.0334  0.0251  0.2779
 2095W        W 4295   2.674   4.757  25.992 -0.0999 -0.0343  0.2733
 2096W        W 4296   8.612   3.104  17.387 -0.3535  0.0502  0.2721
 2097W        W 4297   8.050   5.887   1.659 -0.0908  0.3045  0.2914
 2098W        W 4298   2.568   0.959  23.614 -0.0474  0.0632  0.2771
 2099W        W 4299   3.599   4.262   6.856 -0.1356 -0.1336 -0.2498
 2100W        W 4300  23.052   3.105   4.880 -0.1286 -0.1000  0.0004
 2101W        W 4301   5.177   2.901  29.145  0.0458  0.0208 -0.2172
 2102W        W 4302   5.602   1.138  32.210  0.1401 -0.1145 -0.0784
 2103W        W 4303   5.853   0.891  20.621 -0.0794 -0.1776  0.0054
 2104W        W 4304   4.865   7.331   4.084 -0.1779 -0.0137 -0.3784
 2105W        W 4305  21.491   7.555  14.147 -0.0698 -0.0958  0.1878
 2106W        W 4306   5.900   2.076  18.506 -0.1937  0.4246 -0.0560
 2107W        W 4307   9.466   0.384  20.542 -0.3060  0.0200 -0.0586
 2108W        W 4308   0.578   1.062   2.516  0.2478 -0.0420  0.1039
 2109W        W 4309   6.830   3.889  14.609 -0.2117  0.2601 -0.2173
 2110W        W 4310  14.916   5.776  23.862  0.0341 -0.1569  0.0736
 2111W        W 4311  10.624   2.798  19.612  0.4406  0.2307  0.0378
 2112W        W 4312  10.438   4.791   2.410 -0.1488  0.2299  0.2770
 2113W        W 4313   3.417   2.111   6.201 -0.2911 -0.0563 -0.0846
 2114W        W 4314  23.888   4.970  11.600 -0.2535 -0.0702  0.0837
 2115W        W 4315   2.420   6.569   3.109 -0.0636 -0.1320  0.1462
 2116W        W 4316   7.533   1.543  27.943  0.2793 -0.1566  0.0508
 2117W        W 4317  14.286   3.944  15.534  0.0448  0.0146 -0.1221
 2118W        W 4318   3.213   0.785   3.419  0.1040  0.1715 -0.0379
 2119W        W 4319   0.442   4.135   1.648 -0.0656 -0.1082 -0.1110
 2120W        W 4320  21.317   6.937  23.509  0.2081  0.3391  0.0955
 2121W        W 4321  15.116   2.971   9.626  0.4515 -0.1055  0.0303
 2122W        W 4322  22.677   5.747   0.493 -0.0277  0.1385 -0.4666
 2123W        W 4323  18.440   1.983  14.431 -0.2649 -0.2110  0.0746
 2124W        W 4324   8.939   4.404  25.032 -0.2822  0.0075  0.1530
 2125W        W 4325  20.085   7.830   1.781 -0.0653 -0.0298 -0.2419
 2126W        W 4326   3.026   2.740   5.570  0.0490 -0.0852  0.0633
 2127W        W 4327  15.331   5.140  21.894  0.4113  0.0751 -0.1549
 2128W        W 4328  16.745   2.028  28.102 -0.1407 -0.0179 -0.0840
 2129W        W 4329   9.807   0.609   9.756  0.0167  0.0094  0.1924
 2130W        W 4330  15.295   5.860  12.980  0.1904 -0.1444  0.2520
 2131W        W 4331   4.158   7.013  29.868  0.1741 -0.0145  0.0653
 2132W        W 4332   9.641   7.790  28.034 -0.0029 -0.0462  0.0468
 2133W        W 4333  10.220   6.977   2.218  0.0451  0.0930  0.2635
 2134W        W 4334  14.099   5.547  11.139 -0.2092 -0.0029  0.0201
 2135W        W 4335  19.314   7.146  32.475  0.0154 -0.0134  0.1491
 2136W        W 4336  23.303   5.124  23.447 -0.0189 -0.0046  0.1519
 2137W        W 4337   8.641   3.889  18.028  0.0900  0.3502  0.2188
 2138W        W 4338   3.738   3.333  30.733 -0.1122 -0.0126  0.4969
 2139W        W 4339  16.140   0.362  28.789  0.0113 -0.1610  0.3707
 2140W        W 4340   8.985   0.000   4.585 -0.2008  0.0639  0.4103
 2141W        W 4341  23.346   2.661  23.613  0.0274 -0.0442 -0.2430
 2142W        W 4342   7.914   0.030   6.393  0.0860 -0.0612  0.1549
 2143W        W 4343  18.972   5.591  31.493  0.0384  0.0261  0.1641
 2144W        W 4344  13.791   7.716   1.699 -0.3844 -0.2278 -0.0961
 2145W        W 4345  22.502   0.627  13.279  0.0143 -0.1881  0.0311
 2146W        W 4346  10.936   7.300  23.261  0.1238 -0.1668 -0.2494
 2147W        W 4347   4.795   2.672   4.488 -0.3016 -0.3674 -0.0141
 2148W        W 4348  17.660   7.736  12.769 -0.0787  0.3837  0.0235
 2149W        W 4349   8.447   6.864   6.877 -0.1283 -0.1280  0.5632
 2150W        W 4350  13.357   0.563   3.764 -0.2391  0.0357  0.0697
 2151W        W 4351   5.212   5.340   0.527 -0.1262 -0.1537  0.1322
 2152W        W 4352  14.123   3.992  11.867 -0.1195 -0.2465 -0.1280
 2153W        W 4353  16.203   3.490  24.394 -0.2062 -0.1267  0.4664
 2154W        W 4354   5.109   2.488  19.526 -0.1456 -0.3281  0.1052
 2155W        W 4355  10.569   3.520   5.138 -0.0332 -0.0690 -0.1530
 2156W        W 4356  22.139   3.781  10.214 -0.0408 -0.1378 -0.0391
 2157W        W 4357  22.779   1.365   0.369  0.0969 -0.0225  0.0754
 2158W        W 4358  18.570   5.352  15.465 -0.4110  0.1312  0.0063
 2159W        W 4359   0.026   3.887  23.219 -0.1332 -0.0107 -0.1072
 2160W        W 4360   1.856   6.561  28.543  0.1713 -0.1126 -0.1335
 2161W        W 4361  21.383   1.101  23.301  0.3208 -0.0044 -0.2215
 2162W        W 4362  18.818   1.261   7.228 -0.0892 -0.1883  0.0558
 2163W        W 4363  10.821   4.933  22.490 -0.0348  0.2608  0.1385
 2164W        W 4364  10.265   2.668  31.935  0.2116 -0.2001 -0.1075
 2165W        W 4365  11.787   0.193  11.911  0.1318  0.5827 -0.0828
 2166W        W 4366  23.715   5.297   8.298  0.4167  0.2037  0.3814
 2167W        W 4367   6.152   1.988  21.978 -0.0046  0.1016  0.1175
 2168W        W 4368  15.912   6.288  16.959  0.0288 -0.0798 -0.0735
 2169W        W 4369  16.303   1.973  32.143  0.4377  0.2624 -0.1233
 2170W        W 4370  22.685   1.162  10.391 -0.2537 -0.0231  0.1173
 2171W        W 4371  14.675   1.838  23.782 -0.0230  0.0412  0.2918
 2172W        W 4372   2.771   6.383  28.791  0.0134  0.0719 -0.1414
 2173W        W 4373   5.161   2.979  29.654  0.2311 -0.1250  0.3934
 2174W        W 4374   3.493   4.587   3.226  0.0538  0.1927  0.1077
 2175W        W 4375  14.198   2.050  29.998  0.0246 -0.2183 -0.1303
 2176W        W 4376  10.272   7.103  32.537 -0.1987  0.0613  0.0525
 2177W        W 4377  17.626   6.965  23.502  0.1707  0.0300  0.0260
 2178W        W 4378   4.744   2.816  25.862  0.0802 -0.1420 -0.0263
 2179W        W 4379  20.749   1.029  24.661  0.0626 -0.0460  0.0712
 2180W        W 4380  13.903   7.675  22.781 -0.2585 -0.1031 -0.1562
 2181W        W 4381   0.513   5.767   6.616  0.0203 -0.0241  0.1818
 2182W        W 4382   7.471   7.290  19.255 -0.1611 -0.0542  0.2007
 2183W        W 4383   6.123   4.620  24.598  0.0141 -0.0407  0.0832
 2184W        W 4384  18.598   2.360  10.428 -0.0683  0.0419 -0.1003
 2185W        W 4385  11.885   1.959  17.748  0.1530 -0.1066  0.0924
 2186W        W 4386   7.058   3.694   9.727  0.0532  0.1302 -0.1701
 2187W        W 4387  22.787   0.276  28.831  0.0760 -0.1010 -0.0024
 2188W        W 4388   9.402   6.111  21.696  0.2056  0.0928  0.4293
 2189W        W 4389  22.099   0.419   8.231 -0.0369 -0.4815 -0.0582
 2190W        W 4390  10.718   6.248  21.386  0.0257 -0.1986 -0.1581
 2191W        W 4391   5.113   5.501   2.402  0.1940 -0.0313  0.0165
 2192W        W 4392  10.454   6.752  16.954  0.3273 -0.5373 -0.0751
 2193W        W 4393  20.107   3.784  29.033  0.0113 -0.1666 -0.2091
 2194W        W 4394   1.987   3.240  18.520 -0.0126  0.3889 -0.0640
 2195W        W 4395   0.689   6.391   0.460  0.1355  0.0749  0.1825
 2196W        W 4396  12.203   2.352  20.546 -0.2335  0.1811 -0.0435
 2197W        W 4397  17.736   7.731  23.800 -0.2965 -0.1950  0.2209
 2198W        W 4398   4.261   4.850  19.116 -0.0134  0.2396 -0.1774
 2199W        W 4399   5.556   0.320  24.532 -0.0147  0.3091 -0.1995
 2200W        W 4400   8.556   2.405  15.771  0.1326  0.1424 -0.0693
 2201W        W 4401  25.072   0.370  10.691 -0.2252  0.0038  0.0522
 2202W        W 4402   1.525   4.355  28.855  0.0804 -0.1320 -0.1738
 2203W        W 4403   7.801   0.346  31.918  0.2602 -0.0478 -0.1363
 2204W        W 4404   2.676   7.581   3.892 -0.4898 -0.1388  0.1930
 2205W        W 4405  20.912   6.894  14.924 -0.0633  0.0390  0.0325
 2206W        W 4406   5.548   1.750   4.602 -0.0978 -0.0609  0.0595
 2207W        W 4407  13.158   1.974  30.171 -0.1358  0.0816  0.4774
 2208W        W 4408  19.968   6.216  29.949 -0.0985  0.2437 -0.0683
 2209W        W 4409   7.578   0.231   2.960  0.0248 -0.4136  0.1488
 2210W        W 4410  19.693   5.293   1.470 -0.0096 -0.0873 -0.0014
 2211W        W 4411  24.158   5.321  10.402 -0.1795  0.0796 -0.2846
 2212W        W 4412  14.950   4.123  23.278 -0.1919 -0.2319  0.1929
 2213W        W 4413   1.333   0.865  27.385  0.2108  0.0112 -0.2554
 2214W        W 4414   9.682   7.270   4.147  0.1810 -0.4116 -0.0482
 2215W        W 4415  10.696   5.672  32.262  0.0865  0.0020 -0.1073
 2216W        W 4416   8.838   3.569   9.375 -0.1378  0.2143 -0.0960
 2217W        W 4417   0.438   3.378   0.112  0.0862 -0.3532 -0.2175
 2218W        W 4418   3.392   3.172  16.816 -0.0192  0.1538  0.1326
 2219W        W 4419  15.419   3.096   3.161 -0.0895 -0.0162 -0.3131
 2220W        W 4420   1.026   4.207   1.836  0.3380 -0.0004  0.0662
 2221W        W 4421  17.163   7.430  27.562 -0.2467 -0.1342 -0.0270
 2222W        W 4422   6.121   7.857   2.932  0.0991 -0.0759  0.0182
 2223W        W 4423   9.298   3.392  27.588  0.2939  0.1653  0.1052
 2224W        W 4424  23.273   1.048  23.892 -0.1516 -0.1016 -0.2234
 2225W        W 4425   2.145   2.524   7.610 -0.0296 -0.1800 -0.1130
 2226W        W 4426   1.359   6.141  29.617 -0.0011  0.3336  0.0642
 2227W        W 4427   5.316   2.929   6.063  0.1221 -0.0924  0.0483
 2228W        W 4428  21.859   6.318   0.202 -0.1327  0.0839 -0.1293
 2229W        W 4429  10.343   4.624   9.676  0.2971  0.0942 -0.2083
 2230W        W 4430   7.712   2.156   7.531 -0.1601 -0.0281 -0.1304
 2231W        W 4431  10.671   4.631  28.537 -0.0061  0.2541  0.3667
 2232W        W 4432  15.804   6.138   4.903 -0.0080  0.1077  0.1289
 2233W        W 4433   7.559   2.044   5.028  0.1811 -0.2910 -0.1086
 2234W        W 4434   8.396   4.587  17.255 -0.2776  0.0670 -0.1822
 2235W        W 4435  13.764   5.565  14.674 -0.0333  0.1684 -0.0713
 2236W        W 4436   5.468   3.860  17.687 -0.1621 -0.1389 -0.1387
 2237W        W 4437  21.796   2.967   5.021  0.2230  0.1051  0.0944
 2238W        W 4438  12.530   0.974  28.949  0.0073 -0.2161  0.1513
 2239W        W 4439   5.366   1.677   6.778  0.2119  0.1047  0.2361
 2240W        W 4440   6.584   3.294  15.379 -0.2687 -0.1285 -0.0780
 2241W        W 4441  15.629   3.251  29.859 -0.1665 -0.1528  0.1058
 2242W        W 4442   3.005   5.827  19.623  0.0353 -0.1708 -0.0177
 2243W        W 4443   3.371   7.680  22.983 -0.1101 -0.0138  0.0625
 2244W        W 4444  23.804   0.357   1.996 -0.0072  0.1217 -0.1277
 2245W        W 4445  18.608   6.751  32.148  0.1003  0.3154 -0.0145
 2246W        W 4446  24.410   1.209  27.809 -0.2793  0.2340 -0.2898
 2247W        W 4447   1.357   2.677  29.806  0.0002 -0.2442 -0.0588
 2248W        W 4448  24.684   0.394   3.212  0.1075 -0.0743 -0.1815
 2249W        W 4449  16.640   5.031  22.041  0.1292 -0.0194  0.0754
 2250W        W 4450   2.313   6.316   3.514  0.1043  0.0467 -0.0129
 2251W        W 4451  24.612   7.535  29.407 -0.0917  0.0171 -0.0294
 2252W        W 4452   5.831   3.202  22.380 -0.0800 -0.0249 -0.0744
 2253W        W 4453  25.012   4.058  10.607  0.0385 -0.3025 -0.0630
 2254W        W 4454   6.570   3.874  16.081 -0.1858 -0.3133 -0.0661
 2255W        W 4455  23.726   2.002  13.848  0.0152 -0.1675 -0.0483
 2256W        W 4456   5.623   6.536  29.936 -0.0834  0.0134  0.1913
 2257W        W 4457  17.016   2.620  25.025 -0.1847  0.3138 -0.0310
 2258W        W 4458   7.062   3.822  18.707  0.1487  0.0719  0.0831
 2259W        W 4459  14.286   5.856  11.587  0.0456  0.0456  0.1804
 2260W        W 4460  22.829   1.084  26.993 -0.0823  0.0364 -0.1183
 2261W        W 4461  23.692   1.683  11.501 -0.1573  0.2177 -0.1786
 2262W        W 4462  19.029   3.805  31.847 -0.0925 -0.0185  0.2945
 2263W        W 4463  20.180   6.873  31.440  0.0264  0.1027  0.1399
 2264W        W 4464  22.442   5.416  27.100 -0.1317 -0.1386  0.1187
 2265W        W 4465  21.153   5.437   3.021  0.1920 -0.1678  0.0810
 2266W        W 4466   2.497   1.432  22.476 -0.4090 -0.0403 -0.0425
 2267W        W 4467   7.054   3.613   1.783 -0.0895  0.2071 -0.0768
 2268W        W 4468   0.235   4.648  19.587  0.0525  0.2263  0.3669
 2269W        W 4469  24.464   1.226  21.057  0.0073 -0.4365  0.0687
 2270W        W 4470   9.658   2.986   5.775  0.0394  0.0849 -0.1410
 2271W        W 4471   5.954   0.046   0.796 -0.2728 -0.0608 -0.0163
 2272W        W 4472   9.301   2.087   2.959 -0.2365  0.1114 -0.0993
 2273W        W 4473  10.231   1.968  30.091  0.2240 -0.0922  0.0470
 2274W        W 4474  19.321   4.253  27.388 -0.3690  0.2481  0.0180
 2275W        W 4475  14.783   7.767   3.110  0.3323  0.1334  0.2617
 2276W        W 4476  18.300   1.037  27.245  0.0989  0.1476 -0.1098
 2277W        W 4477   9.767   6.973   3.726 -0.1399 -0.1449  0.1216
 2278W        W 4478   6.442   4.384  32.247  0.0351 -0.2127  0.0620
 2279W        W 4479  10.641   6.331  30.875 -0.2410 -0.0086 -0.4668
 2280W        W 4480   1.335   6.563   8.655  0.0602 -0.3419  0.0333
 2281W        W 4481  15.189   4.817   4.937  0.4040  0.1606 -0.0045
 2282W        W 4482  15.005   4.589  26.119  0.1107  0.3864 -0.1108
 2283W        W 4483   9.512   4.830   0.610 -0.0991 -0.2693  0.0907
 2284W        W 4484  12.662   5.621  13.250 -0.0733 -0.1454 -0.0506
 2285W        W 4485   2.079   2.854   6.053 -0.2533  0.0505 -0.0394
 2286W        W 4486  21.982   2.511   0.631 -0.0684 -0.2543 -0.3963
 2287W        W 4487  22.623   0.058  22.569  0.3837  0.0457 -0.1894
 2288W        W 4488   7.645   4.530  19.377  0.1541  0.0929  0.3395
 2289W        W 4489   2.281   4.235  24.531 -0.0632 -0.1484 -0.5564
 2290W        W 4490  20.828   7.331  27.269 -0.2846 -0.0642  0.0936
 2291W        W 4491  18.720   2.258  23.158  0.1130  0.1013 -0.1616
 2292W        W 4492  25.142   1.734  22.549  0.0411  0.2179  0.0262
 2293W        W 4493  24.632   6.388   7.697 -0.1609 -0.3546 -0.3405
 2294W        W 4494   1.905   0.213   9.043  0.0637  0.0334 -0.0072
 2295W        W 4495  23.372   7.685   7.135 -0.0492 -0.0966  0.1330
 2296W        W 4496   3.663   3.609  31.381 -0.1092 -0.1875 -0.0912
 2297W        W 4497  22.926   3.948   7.414  0.0042  0.1878  0.1195
 2298W        W 4498   1.120   6.407  31.689 -0.2663  0.1543  0.0594
 2299W        W 4499  10.939   1.737  22.012  0.1693 -0.1384  0.0792
 2300W        W 4500   8.768   3.979  18.959 -0.2218  0.1078  0.1777
 2301W        W 4501   1.023   5.827  32.348  0.0900 -0.3519 -0.0451
 2302W        W 4502   7.798   7.266  31.028 -0.0700  0.1628  0.0986
 2303W        W 4503  16.530   3.128  13.619  0.0548 -0.0450 -0.2233
 2304W        W 4504  12.426   1.406   4.862  0.1507 -0.1783 -0.0178
 2305W        W 4505   8.985   3.560  21.651  0.1609 -0.1096 -0.0412
 2306W        W 4506  11.067   0.192   9.617 -0.2155 -0.1079 -0.3570
 2307W        W 4507   0.839   5.233  10.111  0.2364  0.1355 -0.0461
 2308W        W 4508  18.875   4.792   9.999  0.3247  0.1778  0.0808
 2309W        W 4509  23.907   0.979  10.228 -0.3600 -0.1790 -0.0072
 2310W        W 4510   2.903   1.293   4.261  0.1237 -0.0213  0.0946
 2311W        W 4511   8.295   5.587   9.383  0.1813  0.0920 -0.2255
 2312W        W 4512   4.352   3.706   7.725 -0.0270 -0.3557 -0.5422
 2313W        W 4513  24.936   5.157  32.262  0.3221 -0.0226  0.0475
 2314W        W 4514  24.780   3.201  26.455  0.0494 -0.1111 -0.0900
 2315W        W 4515   6.530   3.324  20.333 -0.1285  0.0237  0.0281
 2316W        W 4516  19.431   6.742  10.697 -0.0522 -0.1817  0.1629
 2317W        W 4517  19.366   1.533  24.145  0.1151 -0.1541 -0.6052
 2318W        W 4518  24.145   1.629   4.745 -0.2719  0.1760 -0.0805
 2319W        W 4519   3.104   5.165  27.768  0.1044  0.1164 -0.0425
 2320W        W 4520  16.001   3.949  29.129 -0.1062 -0.0694  0.1247
 2321W        W 4521  22.052   6.787  29.290  0.0284 -0.1893 -0.2550
 2322W        W 4522   5.678   4.379  23.954 -0.2458 -0.0766  0.3319
 2323W        W 4523  19.292   1.413  22.312  0.0228 -0.0617 -0.0219
 2324W        W 4524   7.425   0.505   1.907  0.2856 -0.1309  0.0853
 2325W        W 4525   7.973   4.178   4.733  0.0804  0.1657 -0.4616
 2326W        W 4526  12.588   5.706   4.155  0.0795  0.3545  0.2411
 2327W        W 4527  11.846   6.824  29.359  0.2691 -0.0532  0.0380
 2328W        W 4528  19.824   2.474  26.386  0.2261  0.0381  0.3085
 2329W        W 4529  22.435   1.918   1.174 -0.0772 -0.2313  0.3149
 2330W        W 4530  23.286   4.212  29.478 -0.1286  0.0847 -0.0197
 2331W        W 4531  20.786   6.539  25.010 -0.1291  0.0857 -0.1507
 2332W        W 4532   4.755   1.314  17.456 -0.0400  0.1509  0.1261
 2333W        W 4533   0.001   5.752   1.057  0.2353  0.1480  0.0032
 2334W        W 4534   4.403   1.723  27.384  0.0196  0.4434 -0.2233
 2335W        W 4535  18.742   5.149  12.598  0.1162 -0.1268  0.2411
 2336W        W 4536  19.350   2.346   0.439  0.0175  0.3272 -0.0239
 2337W        W 4537  12.686   5.089  27.795 -0.0231  0.1479  0.1897
 2338W        W 4538   0.774   4.901   5.065 -0.2269 -0.0469  0.0298
 2339W        W 4539   5.164   3.866   6.272  0.1216  0.1047 -0.1745
 2340W        W 4540   5.383   7.291  14.385  0.2282 -0.0127  0.0470
 2341W        W 4541   0.542   6.735  26.012 -0.1201  0.0594  0.1219
 2342W        W 4542  20.820   2.066  16.269  0.4324 -0.0366 -0.1319
 2343W        W 4543  11.563   1.785  28.937 -0.0154  0.0964  0.1818
 2344W        W 4544  18.745   3.328  17.277 -0.2759 -0.1853  0.1113
 2345W        W 4545   0.120   1.164   6.895 -0.0976  0.0675 -0.2289
 2346W        W 4546  10.296   5.034  16.514  0.3745  0.2260  0.0374
 2347W        W 4547  13.531   4.078  23.687 -0.1212 -0.0624  0.0806
 2348W        W 4548   3.006   7.638  30.457 -0.0293 -0.1798  0.2737
 2349W        W 4549  23.239   1.874  15.252  0.0703  0.0658  0.1093
 2350W        W 4550  12.686   1.903   5.096  0.0157  0.1589 -0.0284
 2351W        W 4551   3.662   0.827  10.074  0.1466  0.2458 -0.0887
 2352W        W 4552  15.583   0.767  10.140  0.2710  0.1243 -0.0987
 2353W        W 4553  18.349   4.183   0.960 -0.0549 -0.1861  0.0960
 2354W        W 4554  18.690   4.814  25.165 -0.1881  0.1377 -0.0118
 2355W        W 4555   5.881   2.095  31.395 -0.1852 -0.0697 -0.0785
 2356W        W 4556   3.310   2.589  23.167 -0.2392 -0.2454 -0.0774
 2357W        W 4557  23.788   3.717  21.146  0.1074  0.1113  0.0807
 2358W        W 4558   2.312   3.950  21.307  0.2262  0.2579 -0.2165
 2359W        W 4559  14.584   3.439  25.025  0.1131 -0.1052  0.0521
 2360W        W 4560  20.762   0.765  31.076 -0.0215  0.1749 -0.2767
 2361W        W 4561   6.029   3.879  28.461 -0.0460  0.1294  0.1444
 2362W        W 4562   1.360   7.765   9.538  0.1449 -0.1865  0.1579
 2363W        W 4563   9.051   3.032  22.756  0.1483 -0.0332 -0.2926
 2364W        W 4564  23.322   3.437  24.002  0.1618 -0.1149 -0.1324
 2365W        W 4565   3.287   2.099  20.742  0.0310 -0.0117  0.3101
 2366W        W 4566  20.143   6.433  12.732 -0.1716 -0.0703  0.1696
 2367W        W 4567  13.482   0.757  31.219 -0.1957 -0.0028 -0.0462
 2368W        W 4568  20.275   5.459  24.060 -0.0782 -0.1279 -0.0150
 2369W        W 4569  23.195   5.944   5.519 -0.0520 -0.1659  0.0661
 2370W        W 4570  14.791   6.044  22.257  0.0110 -0.1831  0.4280
 2371W        W 4571  22.494   2.260  11.845 -0.0630 -0.1044 -0.3026
 2372W        W 4572  16.886   7.210   1.038  0.1187 -0.3251  0.3723
 2373W        W 4573  20.685   1.379  27.318 -0.0231  0.0093 -0.0299
 2374W        W 4574  18.927   0.603  13.889  0.1154 -0.2474  0.0641
 2375W        W 4575   5.543   2.049  20.952 -0.0993 -0.2662  0.0714
 2376W        W 4576  20.710   3.260  31.057 -0.2352 -0.0517  0.1707
 2377W        W 4577   0.222   5.602  21.371  0.0777 -0.0908 -0.0024
 2378W        W 4578   8.597   2.631   0.516 -0.0295 -0.0282 -0.0292
 2379W        W 4579  12.858   5.251  21.875  0.4670 -0.1336 -0.2124
 2380W        W 4580  22.917   6.169  14.031  0.0413 -0.0956 -0.0775
 2381W        W 4581   6.432   7.502   3.036  0.1865  0.0080 -0.1882
 2382W        W 4582  24.465   3.128   9.783  0.1623  0.0132  0.1930
 2383W        W 4583  13.631   3.956   8.724  0.2574 -0.1896  0.0053
 2384W        W 4584  21.169   3.757   2.774  0.0336 -0.1176 -0.0671
 2385W        W 4585  23.622   3.829  29.613 -0.2219  0.2912 -0.1893
 2386W        W 4586  20.377   5.940   6.642 -0.0629 -0.0697  0.0237
 2387W        W 4587   5.491   0.922  25.522 -0.1782 -0.2354 -0.2265
 2388W        W 4588  23.641   3.038  27.818  0.2791  0.1784  0.0235
 2389W        W 4589  21.818   6.982   7.670  0.0155  0.0789  0.1169
 2390W        W 4590  15.763   7.619  23.734 -0.1014  0.2047 -0.0040
 2391W        W 4591   4.749   1.740  28.385 -0.3415  0.4734 -0.0807
 2392W        W 4592   2.334   0.909  20.325  0.0855  0.2907  0.1851
 2393W        W 4593  11.152   7.292  26.038 -0.1144 -0.0853 -0.1700
 2394W        W 4594  10.466   1.098  30.902  0.1437 -0.1499 -0.1991
 2395W        W 4595   6.429   0.403  26.751 -0.2059  0.2313  0.0490
 2396W        W 4596   6.403   6.890  19.679  0.0577  0.2945  0.0492
 2397W        W 4597  17.897   3.519  26.186  0.1334 -0.0888  0.2156
 2398W        W 4598   7.143   4.981   2.121  0.0152  0.0524  0.1347
 2399W        W 4599   8.273   6.644  21.966 -0.0144  0.0120 -0.0201
 2400W        W 4600   7.195   3.205   2.523  0.0597 -0.1867  0.0702
 2401W        W 4601  12.465   7.122   0.996 -0.1966 -0.1100 -0.2617
 2402W        W 4602  10.193   7.801  20.392 -0.0213 -0.0737 -0.0961
 2403W        W 4603   4.605   1.494  18.988  0.1515 -0.0099  0.0361
 2404W        W 4604  21.754   6.089   3.991  0.4615  0.1497  0.2003
 2405W        W 4605   0.215   4.578  27.711  0.3164 -0.1967  0.0783
 2406W        W 4606  20.792   7.359  24.483  0.1119 -0.2030 -0.1282
 2407W        W 4607  10.816   7.085   8.332  0.0162  0.1668 -0.0863
 2408W        W 4608  16.343   5.576  26.171  0.0542 -0.1145  0.0861
 2409W        W 4609  11.651   6.828   2.612 -0.0129  0.0107  0.1452
 2410W        W 4610  19.066   2.672  31.087 -0.1151 -0.1198 -0.0633
 2411W        W 4611  24.758   5.776  10.806  0.2205  0.1562 -0.0529
 2412W        W 4612  11.977   4.490  10.291 -0.1083 -0.0862 -0.0397
 2413W        W 4613   1.074   7.402   5.335 -0.1874 -0.2678  0.2086
 2414W        W 4614  23.824   0.934   5.758  0.1356 -0.1011  0.3101
 2415W        W 4615   0.804   3.710   1.832 -0.0775 -0.0326  0.2524
 2416W        W 4616  13.439   7.746  22.594  0.2038  0.0499  0.1733
 2417W        W 4617   4.835   1.302   1.084 -0.3512  0.1579  0.0808
 2418W        W 4618   0.045   4.741  31.170  0.1324 -0.2881 -0.1704
 2419W        W 4619  20.457   1.243  24.369  0.0005  0.2681  0.3116
 2420W        W 4620  23.633   7.794  11.546  0.0725 -0.3160 -0.2250
 2421W        W 4621   0.763   7.168  21.394  0.0380  0.1145 -0.1018
 2422W        W 4622  22.014   1.162  30.698 -0.0928  0.1461 -0.1017
 2423W        W 4623  10.151   2.538  23.571  0.1288  0.1532  0.0759
 2424W        W 4624  15.754   3.855   7.986 -0.2150  0.2563 -0.0231
 2425W        W 4625   0.143   2.510   2.319  0.0344 -0.2952  0.0678
 2426W        W 4626  13.988   2.382  21.173 -0.2257 -0.2582 -0.3275
 2427W        W 4627  21.080   6.580   3.293  0.0133 -0.3063  0.4650
 2428W        W 4628  10.810   2.887   0.362  0.0429  0.2220 -0.1347
 2429W        W 4629  18.348   3.873  27.127  0.1411  0.1149 -0.3428
 2430W        W 4630  11.668   4.054  10.928  0.0678  0.1254  0.5006
 2431W        W 4631   1.906   4.731  18.104  0.2255  0.0313 -0.2072
 2432W        W 4632  11.700   6.233  23.184 -0.0072  0.1251 -0.2330
 2433W        W 4633   2.914   6.601  11.373  0.1245 -0.1372 -0.1268
 2434W        W 4634  20.083   7.218  28.641  0.0271 -0.1590 -0.0233
 2435W        W 4635  19.942   6.558  29.596 -0.0006 -0.0857 -0.2686
 2436W        W 4636  15.992   3.560  16.074 -0.0981 -0.2924 -0.0472
 2437W        W 4637  13.882   7.185  13.008  0.2721  0.1529  0.0173
 2438W        W 4638   6.122   2.160  28.679  0.0944  0.2328 -0.0221
 2439W        W 4639   3.575   0.112   7.838 -0.0125  0.1235  0.2483
 2440W        W 4640  10.910   0.066   6.585 -0.2756  0.1421 -0.2639
 2441W        W 4641   1.419   5.508  23.485 -0.0543  0.2394  0.0602
 2442W        W 4642   9.859   5.270  25.275  0.0517  0.0858  0.2876
 2443W        W 4643   1.679   3.321  19.613 -0.1203 -0.2997 -0.1164
 2444W        W 4644  11.302   2.763   7.691  0.0986 -0.0388  0.1175
 2445W        W 4645  22.472   6.570   7.033 -0.0163  0.0814  0.1961
 2446W        W 4646  19.376   3.636   9.128  0.6068  0.1044 -0.0216
 2447W        W 4647  24.027   3.359   1.171 -0.0230 -0.1308  0.1309
 2448W        W 4648  16.586   5.008  12.645 -0.0477  0.0458 -0.2242
 2449W        W 4649  12.246   1.332  11.220 -0.0254  0.2450 -0.1610
 2450W        W 4650   9.547   4.241  29.773  0.0390 -0.2120 -0.1743
 2451W        W 4651  15.187   5.146  27.147 -0.2642 -0.1494  0.3544
 2452W        W 4652  19.728   4.326   1.363 -0.2903 -0.1409  0.1322
 2453W        W 4653  10.533   1.664  22.697 -0.1012 -0.1394 -0.0933
 2454W        W 4654  13.000   3.191  22.466  0.0282  0.1423 -0.1702
 2455W        W 4655  15.433   4.648  32.353 -0.2618 -0.2020  0.4601
 2456W        W 4656  19.644   6.054   3.159 -0.0591 -0.1614  0.2320
 2457W        W 4657  10.037   3.388  30.824  0.0896  0.1859 -0.0623
 2458W        W 4658  11.876   6.293  20.577 -0.0628  0.5457 -0.1873
 2459W        W 4659  20.531   2.570  26.398  0.1281 -0.3795 -0.1238
 2460W        W 4660  14.809   0.155  13.471  0.2053 -0.0621  0.4812
 2461W        W 4661   4.756   5.856  32.439  0.0315  0.1941 -0.3053
 2462W        W 4662  19.134   6.931  23.425  0.2250  0.3341  0.1645
 2463W        W 4663   3.701   4.180  26.306  0.3201 -0.1168 -0.3471
 2464W        W 4664   1.561   5.946  18.350 -0.1250  0.2160  0.0569
 2465W        W 4665  23.733   3.032  21.717  0.0493 -0.3332  0.0339
 2466W        W 4666  20.335   0.064   0.070  0.1317  0.2861  0.1912
 2467W        W 4667   6.255   3.453  16.153 -0.2015  0.0355 -0.2190
 2468W        W 4668  22.067   4.271  10.448 -0.3113 -0.3230  0.1793
 2469W        W 4669   9.826   3.728   2.028 -0.0640 -0.2694  0.1278
 2470W        W 4670  20.755   1.172   5.452 -0.2212 -0.0666 -0.0486
 2471W        W 4671  19.852   3.692   4.789  0.0152  0.0263  0.1368
 2472W        W 4672  16.386   2.034  29.839  0.2209 -0.0944 -0.0535
 2473W        W 4673   2.979   4.677  28.918  0.0870  0.0486 -0.1906
 2474W        W 4674  19.567   2.001   4.037  0.0611 -0.0316 -0.1351
 2475W        W 4675  21.662   1.837  22.128 -0.0642 -0.3471  0.1843
 2476W        W 4676  16.363   7.827  15.787 -0.2271 -0.0672 -0.0007
 2477W        W 4677   9.699   4.187   3.922 -0.1439  0.2256 -0.0650
 2478W        W 4678  15.496   0.478   4.157 -0.0603  0.0571 -0.0778
 2479W        W 4679  13.652   5.483   0.570 -0.2477 -0.1095  0.1588
 2480W        W 4680   7.157   7.446  29.722  0.0390  0.1990  0.0815
 2481W        W 4681  23.665   0.949   4.548  0.2389 -0.0838  0.2452
 2482W        W 4682  21.024   7.638  17.461  0.1763 -0.2410  0.0942
 2483W        W 4683   5.654   1.078  18.249 -0.3556 -0.0824  0.2466
 2484W        W 4684   7.307   3.763   2.198 -0.0723  0.2545  0.0318
 2485W        W 4685  15.753   0.405  30.517 -0.2217 -0.0622  0.2593
 2486W        W 4686  20.883   5.479  25.711 -0.1036  0.1107  0.3031
 2487W        W 4687   0.427   0.442  13.453  0.0997 -0.1146  0.3381
 2488W        W 4688  14.087   6.332   1.831  0.0602  0.1907 -0.0974
 2489W        W 4689  13.961   1.410   6.259  0.0194 -0.2172 -0.3745
 2490W        W 4690  21.813   7.092  11.109 -0.0860 -0.0447 -0.3735
 2491W        W 4691  20.667   5.325  26.154 -0.3324 -0.2043 -0.0272
 2492W        W 4692   1.700   4.108  24.473 -0.3406  0.1221  0.1087
 2493W        W 4693   3.808   4.758  21.184  0.0895  0.2981 -0.1089
 2494W        W 4694  10.441   7.400   4.259 -0.1107 -0.2145  0.3765
 2495W        W 4695  18.468   5.495   7.632  0.0654 -0.1124 -0.0072
 2496W        W 4696   7.712   1.037  25.445 -0.1585  0.3388  0.2050
 2497W        W 4697  12.897   1.091   9.368  0.2498  0.0802  0.3406
 2498W        W 4698   7.623   2.007   0.531 -0.2206  0.0810  0.0183
 2499W        W 4699   6.583   4.893   5.305  0.1501  0.1745  0.1125
 2500W        W 4700  23.333   3.857  25.828  0.1312  0.1679 -0.2354
 2501W        W 4701  20.461   2.898   9.180 -0.0560  0.0542  0.0616
 2502W        W 4702  11.625   4.340  25.851 -0.0194 -0.0299 -0.0571
 2503W        W 4703   7.995   3.173  29.502  0.1331  0.4264 -0.0647
 2504W        W 4704  20.057   1.859   7.821 -0.0169 -0.0782  0.0400
 2505W        W 4705   9.652   6.096  16.939 -0.0040  0.0936 -0.0986
 2506W        W 4706  10.713   5.238  18.337  0.1998 -0.1311  0.1193
 2507W        W 4707  19.825   1.737  26.241  0.1434  0.1234  0.0869
 2508W        W 4708   4.774   4.452   5.292 -0.1648 -0.0053 -0.0555
 2509W        W 4709   6.531   6.044  23.771 -0.0077 -0.0896  0.0718
 2510W        W 4710   3.231   7.204  32.200 -0.0935  0.1716  0.0515
 2511W        W 4711  16.944   4.685   1.311  0.0988  0.3711  0.2311
 2512W        W 4712  13.150   7.345  22.225 -0.2945  0.0088  0.3117
 2513W        W 4713  12.637   7.408   5.171 -0.0462 -0.0248  0.2582
 2514W        W 4714   0.416   2.693  26.022  0.1527  0.0558  0.1849
 2515W        W 4715  12.512   2.291  10.085  0.1592 -0.0230 -0.0030
 2516W        W 4716  13.514   6.238  24.277  0.2106  0.1176 -0.1512
 2517W        W 4717  11.814   4.210  23.912 -0.1097 -0.6113 -0.0372
 2518W        W 4718   6.713   4.027  26.187 -0.2019 -0.3448  0.0303
 2519W        W 4719   4.907   1.663   5.241  0.3612 -0.1504 -0.0395
 2520W        W 4720   3.317   5.273   0.645  0.1995  0.0906  0.0996
 2521W        W 4721  16.542   3.741   6.855 -0.0600  0.1718 -0.2123
 2522W        W 4722  18.029   4.663  23.287  0.2501  0.0318  0.1043
 2523W        W 4723  16.352   3.583  28.836  0.0890  0.1404  0.0276
 2524W        W 4724  19.330   3.885   0.650 -0.3292  0.1257  0.2580
 2525W        W 4725  18.801   4.795   7.861  0.5519  0.0774  0.5339
 2526W        W 4726  15.897   1.136  28.388  0.0558 -0.1029  0.2161
 2527W        W 4727  22.078   1.296   6.025  0.1508 -0.0341 -0.0886
 2528W        W 4728  17.655   4.637  15.487 -0.0947 -0.0468  0.1238
 2529W        W 4729   8.810   5.991  25.833 -0.2264  0.0170  0.0285
 2530W        W 4730   5.831   2.461   5.169  0.0492 -0.1290  0.1275
 2531W        W 4731  22.361   5.168   2.005 -0.2208  0.0958 -0.1245
 2532W        W 4732   9.884   0.715  20.914 -0.0815  0.2396 -0.1702
 2533W        W 4733  12.306   5.630  28.355  0.3400  0.0461 -0.2047
 2534W        W 4734  19.142   7.458  11.879 -0.2650 -0.1884 -0.2348
 2535W        W 4735  11.197   7.066  17.848 -0.3999 -0.1068 -0.1414
 2536W        W 4736  20.483   3.544   8.553  0.3539  0.0780 -0.0032
 2537W        W 4737  11.164   4.055  22.706  0.1417  0.3912 -0.1230
 2538W        W 4738  18.702   2.575  30.293 -0.0371  0.2136  0.0871
 2539W        W 4739  20.215   4.928  11.767  0.0323 -0.1253  0.0444
 2540W        W 4740  23.086   2.585   9.035 -0.0152 -0.0139 -0.0574
 2541W        W 4741   2.002   6.818  23.266  0.0515 -0.2420  0.0845
 2542W        W 4742   6.827   2.847  27.113  0.0645 -0.0169  0.0721
 2543W        W 4743   0.154   0.875  10.530  0.0726 -0.1606  0.1116
 2544W        W 4744   9.500   3.588  18.208  0.0143 -0.0544  0.0408
 2545W        W 4745  18.804   2.848  32.506 -0.2047  0.0684 -0.0530
 2546W        W 4746  21.399   1.051  22.498  0.0895  0.0446  0.4134
 2547W        W 4747  16.976   1.791  25.350  0.2170  0.0163 -0.3050
 2548W        W 4748  11.073   6.581   5.194  0.0059 -0.1233 -0.0188
 2549W        W 4749   1.648   2.317  18.637  0.4520  0.2619  0.1254
 2550W        W 4750  16.072   6.823  15.286  0.1516 -0.0352  0.1154
 2551W        W 4751  17.510   1.665   7.832 -0.0512  0.0748 -0.0444
 2552W        W 4752  17.689   1.648  15.919  0.1084 -0.1227 -0.0009
 2553W        W 4753   9.372   5.203  18.042  0.1849 -0.1862  0.2086
 2554W        W 4754  22.026   0.196   1.336 -0.1382 -0.0713  0.2823
 2555W        W 4755  24.939   3.132   5.049 -0.1140  0.1519 -0.1720
 2556W        W 4756   7.050   0.837  32.118 -0.1132 -0.0958 -0.0514
 2557W        W 4757  20.338   5.289   7.088 -0.1306  0.1873  0.0683
 2558W        W 4758   0.341   5.867  12.643  0.1090 -0.0459  0.0168
 2559W        W 4759  24.646   7.178   8.906  0.2572 -0.2637  0.4423
 2560W        W 4760  23.245   0.878   5.158 -0.1774  0.0384  0.0818
 2561W        W 4761  11.501   4.651  11.668 -0.2887 -0.1142  0.1202
 2562W        W 4762   5.178   2.927  16.335  0.1253  0.0739  0.1534
 2563W        W 4763  21.463   6.283   3.571 -0.2884 -0.0494  0.3647
 2564W        W 4764   7.522   3.792  18.301 -0.1429 -0.1417  0.0943
 2565W        W 4765  24.590   2.888  26.102 -0.1063  0.3676  0.1123
 2566W        W 4766  11.751   3.808  20.447 -0.2322  0.2372  0.0832
 2567W        W 4767  21.726   5.852  13.435 -0.0250  0.1923  0.3280
 2568W        W 4768  24.111   6.078  22.496 -0.0988 -0.0720  0.1490
 2569W        W 4769   0.151   6.261  20.579 -0.2233 -0.1306 -0.0608
 2570W        W 4770   7.948   5.407   3.161 -0.0402  0.0024  0.0458
 2571W        W 4771   7.009   1.074   7.066 -0.1280  0.0191  0.1109
 2572W        W 4772   4.387   4.449  19.349  0.3267 -0.1068  0.0405
 2573W        W 4773  12.815   0.190  12.850  0.0899 -0.1577 -0.0386
 2574W        W 4774  11.691   7.841  29.549  0.2521 -0.1674  0.1805
 2575W        W 4775  12.048   4.519  22.126 -0.0063 -0.1784  0.0932
 2576W        W 4776   4.030   2.673   3.487 -0.0469 -0.3557 -0.0892
 2577W        W 4777   3.722   1.490   3.941  0.0211  0.0085  0.2889
 2578W        W 4778  10.549   2.702  23.193 -0.1129  0.1685  0.2237
 2579W        W 4779  14.081   4.073  20.942  0.0424  0.1650 -0.0296
 2580W        W 4780  19.865   6.035   9.335  0.0812 -0.1392 -0.0937
 2581W        W 4781   3.249   1.522  17.298 -0.2062 -0.0230 -0.0173
 2582W        W 4782   4.687   3.906   6.430 -0.0246  0.0280 -0.0071
 2583W        W 4783  14.619   1.431  30.728 -0.1712  0.1439 -0.0647
 2584W        W 4784  24.490   5.245  13.252 -0.1059  0.1507  0.0562
 2585W        W 4785   6.127   0.527  18.691 -0.2324 -0.3946  0.1433
 2586W        W 4786  11.456   6.287  28.507 -0.0293  0.2456 -0.1289
 2587W        W 4787   0.131   2.436   8.378  0.3217 -0.0172  0.1249
 2588W        W 4788   7.616   5.605   7.702  0.1603 -0.0843 -0.0164
 2589W        W 4789  17.209   3.878   3.020  0.0435 -0.0565 -0.1014
 2590W        W 4790   1.960   3.682  17.658  0.0146 -0.0663 -0.0778
 2591W        W 4791   4.796   2.286  20.208  0.1659 -0.5537 -0.1487
 2592W        W 4792  14.432   4.435  21.280  0.1968 -0.1504  0.0518
 2593W        W 4793   6.745   1.788   1.490 -0.2736  0.0186  0.2549
 2594W        W 4794  16.797   7.194  14.292 -0.2169 -0.2111  0.0731
 2595W        W 4795  17.439   3.256  25.018 -0.0305 -0.0398  0.0656
 2596W        W 4796  21.271   2.126  31.824 -0.0438  0.1365 -0.3174
 2597W        W 4797  13.121   4.237  31.258  0.1052 -0.0394 -0.2011
 2598W        W 4798   6.093   7.141   5.363 -0.0314 -0.1871  0.2412
 2599W        W 4799  13.046   1.516  31.198  0.0018  0.0414 -0.2042
 2600W        W 4800   2.933   0.792   7.370 -0.1719  0.2278  0.2039
 2601W        W 4801   5.143   1.076  29.607 -0.1277  0.0104 -0.0973
 2602W        W 4802  23.643   4.052  26.164  0.0107 -0.0593 -0.1316
 2603W        W 4803  11.514   7.488  28.843 -0.0521 -0.0697 -0.1175
 2604W        W 4804  19.363   3.255  14.435  0.0458 -0.0581  0.0197
 2605W        W 4805  19.214   3.640   1.125  0.0164 -0.3085 -0.0355
 2606W        W 4806   6.668   3.965   8.751  0.0260  0.5017 -0.0892
 2607W        W 4807   0.585   0.380   4.095 -0.0123  0.1474  0.1646
 2608W        W 4808   1.673   3.153  10.819  0.1242 -0.0502  0.3304
 2609W        W 4809  14.766   0.366  12.452 -0.0912  0.1883  0.1561
 2610W        W 4810  17.739   7.053   3.133  0.1725  0.0836 -0.1445
 2611W        W 4811  20.437   0.641   4.704 -0.0595  0.1035 -0.0680
 2612W        W 4812   4.362   1.763  17.535  0.2354  0.0524  0.0198
 2613W        W 4813   4.020   7.808  24.597  0.0390 -0.1501  0.0037
 2614W        W 4814   5.217   4.405  17.424 -0.1637  0.0472 -0.1936
 2615W        W 4815  20.438   0.239  31.966 -0.0922 -0.2452  0.3016
 2616W        W 4816   1.051   7.073   0.043 -0.2409 -0.0307  0.3117
 2617W        W 4817   1.583   6.518   2.797  0.0187 -0.0417 -0.0262
 2618W        W 4818   1.905   1.538  18.539 -0.0737  0.3499  0.1211
 2619W        W 4819  12.167   6.501   8.506 -0.1737  0.1536  0.1826
 2620W        W 4820   1.446   2.605  29.205  0.0075 -0.1246  0.0023
 2621W        W 4821   2.932   5.448  30.226 -0.2277 -0.1633 -0.0868
 2622W        W 4822  14.123   0.556  24.739  0.1007  0.0067  0.2318
 2623W        W 4823  18.015   2.889   0.317 -0.1595 -0.1495  0.1430
 2624W        W 4824  13.102   0.839   2.319 -0.1764 -0.1805  0.0882
 2625W        W 4825  17.328   1.320   0.080  0.0021  0.2981  0.2287
 2626W        W 4826   5.081   7.577   6.544  0.0874 -0.0273 -0.2176
 2627W        W 4827  18.403   0.654  25.548  0.0959 -0.1970 -0.1238
 2628W        W 4828   6.048   1.533  29.695  0.1732  0.1426  0.0804
 2629W        W 4829   4.038   4.162  20.318 -0.0313 -0.3439  0.1085
 2630W        W 4830  14.716   4.507  27.682  0.1614 -0.1837  0.0176
 2631W        W 4831  23.312   4.899   8.953 -0.4317 -0.2177 -0.0166
 2632W        W 4832   9.918   4.447  30.040 -0.1567 -0.2220 -0.2296
 2633W        W 4833  18.634   1.372   5.154  0.0181 -0.0577 -0.3870
 2634W        W 4834   8.888   6.432   4.982 -0.1928 -0.0277  0.1337
 2635W        W 4835  14.519   5.281   0.404  0.1305 -0.0101  0.1208
 2636W        W 4836  11.342   7.162   8.098  0.1762 -0.1177 -0.0208
 2637W        W 4837  10.639   0.714  25.611 -0.1203  0.0028  0.0778
 2638W        W 4838  24.314   4.492  28.800  0.3268 -0.0109 -0.2261
 2639W        W 4839   5.700   0.486   0.378  0.0032 -0.2785  0.3061
 2640W        W 4840   0.771   4.221  19.852  0.1055  0.0894 -0.0323
 2641W        W 4841  13.089   0.780  25.019 -0.0954  0.0795  0.0586
 2642W        W 4842   8.583   1.387  32.444  0.0773 -0.1786  0.3467
 2643W        W 4843  21.066   1.078  16.121  0.0024 -0.0434 -0.0779
 2644W        W 4844   0.682   7.792  10.865 -0.0435 -0.0977 -0.2404
 2645W        W 4845  10.874   7.414   8.845  0.1879 -0.0421  0.4553
 2646W        W 4846  14.062   6.229   8.546  0.1082 -0.0553 -0.2778
 2647W        W 4847  17.468   7.255  29.679  0.1817  0.0400 -0.4597
 2648W        W 4848   4.280   6.701  16.897 -0.0220  0.0337  0.1747
 2649W        W 4849  20.345   4.042  32.455 -0.1825 -0.0199  0.2492
 2650W        W 4850   8.951   0.696   6.255  0.0052 -0.2540 -0.3022
 2651W        W 4851  17.556   6.202  22.999  0.1249 -0.1568 -0.0681
 2652W        W 4852   9.954   2.842  27.255  0.1626  0.2517 -0.0093
 2653W        W 4853  21.599   5.736  13.909 -0.0337  0.1985 -0.0290
 2654W        W 4854  11.782   6.467   9.476  0.0709 -0.2499  0.0599
 2655W        W 4855  23.103   3.465  13.519 -0.2051 -0.2652  0.1801
 2656W        W 4856  17.309   0.062  23.566 -0.0467  0.1583  0.0670
 2657W        W 4857   3.995   0.151  25.518 -0.0738 -0.3456 -0.0573
 2658W        W 4858   1.869   6.478   2.312  0.2307 -0.1217 -0.1813
 2659W        W 4859   5.805   0.534   0.928 -0.2305  0.0362 -0.0059
 2660W        W 4860   6.053   1.016  31.362 -0.1914  0.0007  0.3800
 2661W        W 4861   8.190   2.739  31.922  0.1383 -0.1045  0.2223
 2662W        W 4862  22.370   5.958   6.022  0.1051 -0.2746  0.0978
 2663W        W 4863  21.862   1.953  26.061 -0.0125  0.0695 -0.0219
 2664W        W 4864  13.162   4.503   0.360 -0.0651  0.0380 -0.1094
 2665W        W 4865  12.873   2.835   3.431  0.0867 -0.1535  0.1534
 2666W        W 4866  24.547   1.565   0.295  0.0537 -0.3138 -0.1117
 2667W        W 4867  18.258   6.117  26.738 -0.2562  0.1187  0.2683
 2668W        W 4868  11.827   0.314  29.199 -0.2960 -0.2575  0.3511
 2669W        W 4869  16.957   6.918  24.736 -0.0292 -0.0786  0.0712
 2670W        W 4870   7.158   2.424  18.448 -0.1355 -0.3716 -0.1602
 2671W        W 4871   3.420   6.564  17.454  0.1387 -0.1391 -0.1872
 2672W        W 4872  17.663   1.637  31.305  0.0356  0.0256  0.0045
 2673W        W 4873   0.201   7.057  20.263 -0.2000  0.1273  0.1571
 2674W        W 4874  24.910   3.502   5.651 -0.0541 -0.2549  0.1323
 2675W        W 4875  23.840   6.235  26.385 -0.0459  0.0041  0.0827
 2676W        W 4876  10.470   3.948   4.710 -0.1224 -0.3371 -0.1561
 2677W        W 4877  13.120   7.088  27.208 -0.0388  0.1065  0.2030
 2678W        W 4878  17.916   1.520  25.261 -0.0964  0.0374  0.0487
 2679W        W 4879   7.074   5.881  31.858  0.1449  0.0277  0.4147
 2680W        W 4880  18.150   2.629  26.136 -0.0199  0.2914  0.1201
 2681W        W 4881   7.649   3.525  10.034  0.2061 -0.2305  0.2149
 2682W        W 4882   6.528   4.143   7.862 -0.0723  0.2686  0.0489
 2683W        W 4883  15.312   6.532  27.450  0.0232 -0.0005 -0.0973
 2684W        W 4884   3.287   7.660  32.034 -0.1636  0.1557 -0.1652
 2685W        W 4885   1.105   3.208   1.014 -0.0325 -0.0650 -0.0879
 2686W        W 4886   3.442   0.358  30.839 -0.2059  0.0912  0.1671
 2687W        W 4887   6.263   2.231   8.486 -0.1469  0.1830 -0.0590
 2688W        W 4888  16.714   5.584  31.312 -0.2747  0.2179  0.0331
 2689W        W 4889   6.795   3.476  29.266  0.0933  0.2505  0.4173
 2690W        W 4890   0.971   2.432  22.331 -0.0631  0.0291  0.3185
 2691W        W 4891   3.874   5.662   5.397  0.2325  0.2087  0.1925
 2692W        W 4892   2.749   6.975  29.540  0.3986 -0.0790  0.1448
 2693W        W 4893   3.944   3.212   4.479  0.0521  0.0426 -0.0974
 2694W        W 4894  19.360   1.025  23.442  0.1752 -0.0766 -0.0519
 2695W        W 4895   3.334   0.438  11.265  0.5474  0.1207 -0.2066
 2696W        W 4896  14.499   2.965   9.018  0.0085 -0.1312  0.1491
 2697W        W 4897   0.294   0.468  30.191 -0.0435  0.0421  0.0749
 2698W        W 4898  23.236   5.840   3.019 -0.1473 -0.3036  0.0176
 2699W        W 4899   8.516   2.476   4.896  0.0701 -0.0717 -0.3444
 2700W        W 4900  21.620   5.274  22.024  0.1180  0.0114 -0.0668
 2701W        W 4901  12.422   6.899   9.813  0.0508  0.0357 -0.1581
 2702W        W 4902  21.562   2.726  16.461 -0.0527 -0.3021 -0.2049
 2703W        W 4903  23.459   6.047  25.446 -0.2962 -0.0614  0.1746
 2704W        W 4904   0.823   3.312  27.799 -0.0276  0.3753 -0.4879
 2705W        W 4905  24.112   0.645  32.493  0.1721 -0.2157  0.1099
 2706W        W 4906  11.718   7.204  12.228  0.0573  0.0220 -0.0117
 2707W        W 4907   5.983   5.389  27.743  0.2096 -0.0893  0.0956
 2708W        W 4908  16.311   1.074  28.027 -0.1590 -0.2053 -0.2350
 2709W        W 4909   4.906   1.073  15.162  0.2055  0.0513 -0.0076
 2710W        W 4910  12.055   1.076   8.174 -0.4229 -0.2669  0.0786
 2711W        W 4911   4.036   4.415   7.026 -0.2758  0.2180  0.2303
 2712W        W 4912  21.211   3.074   4.918 -0.1803  0.1090 -0.1271
 2713W        W 4913  10.425   1.330   8.465 -0.0275  0.0889 -0.0111
 2714W        W 4914   9.671   7.514  23.063 -0.0380 -0.1099 -0.2214
 2715W        W 4915   6.946   7.296  26.700 -0.0694 -0.2447 -0.3022
 2716W        W 4916  23.365   5.170  24.337 -0.1261  0.3229  0.4228
 2717W        W 4917  23.984   3.448   6.656  0.0719 -0.0729  0.1310
 2718W        W 4918  17.145   7.044  32.019  0.0837 -0.0416 -0.1628
 2719W        W 4919  15.003   1.933  30.777 -0.0505 -0.0229 -0.0684
 2720W        W 4920  11.248   5.969  27.389 -0.1715 -0.2527 -0.3449
 2721W        W 4921  15.696   5.815  14.462  0.1321  0.0064 -0.1008
 2722W        W 4922  13.477   1.058  13.378 -0.1603 -0.3065  0.1905
 2723W        W 4923   5.664   6.465  14.738 -0.4359 -0.1207 -0.0185
 2724W        W 4924  16.690   0.022  29.581  0.1127  0.0106  0.1156
 2725W        W 4925   5.172   7.337  26.550  0.0269 -0.3347 -0.1855
 2726W        W 4926  15.447   0.524  21.547 -0.1905 -0.2083 -0.0980
 2727W        W 4927  13.870   7.047  14.168  0.1280 -0.2035 -0.2333
 2728W        W 4928  20.196   4.014  22.144  0.1407  0.0761  0.1512
 2729W        W 4929   0.609   3.580  20.531 -0.3834  0.2856 -0.0214
 2730W        W 4930  10.317   1.406  24.389 -0.1266 -0.2827  0.0515
 2731W        W 4931  21.816   0.603   5.001  0.0998  0.1304 -0.3130
 2732W        W 4932  16.496   1.553  25.433  0.0085  0.0379 -0.2514
 2733W        W 4933  16.580   5.406   3.142  0.1055  0.0167 -0.2110
 2734W        W 4934  24.980   4.383  30.827  0.0995  0.1548  0.0169
 2735W        W 4935  18.432   4.896  28.259  0.0299  0.2285  0.0596
 2736W        W 4936  18.136   2.851  25.444 -0.2110  0.4846 -0.1252
 2737W        W 4937  21.039   3.621  27.047  0.0843  0.3006  0.0639
 2738W        W 4938  11.622   0.111  32.548 -0.3798  0.0941  0.0406
 2739W        W 4939   8.199   3.984  20.055 -0.1048 -0.0028  0.0785
 2740W        W 4940   0.097   3.864   2.055  0.1332  0.0963  0.1044
 2741W        W 4941  16.148   7.092   0.311 -0.3000 -0.1183 -0.0173
 2742W        W 4942  17.849   7.665  11.377 -0.1590  0.1701 -0.0921
 2743W        W 4943   9.413   3.663  10.097 -0.2942 -0.4428  0.0481
 2744W        W 4944   5.206   1.559  18.970  0.0516  0.2192  0.2342
 2745W        W 4945  12.806   1.556  21.638 -0.0377  0.2217  0.1787
 2746W        W 4946  17.492   6.894   1.253  0.2607  0.1690  0.0754
 2747W        W 4947  24.317   4.002  30.608  0.3838  0.2062  0.0086
 2748W        W 4948   7.391   7.711  16.647  0.0918  0.1626 -0.0731
 2749W        W 4949  16.533   7.800  25.645  0.2045 -0.0459  0.1814
 2750W        W 4950   7.345   1.210   6.591  0.3013 -0.0863 -0.0519
 2751W        W 4951  13.379   4.466  10.777 -0.2399  0.1022 -0.2409
 2752W        W 4952   3.346   7.836  20.717  0.0232  0.1067 -0.4349
 2753W        W 4953  21.814   2.365   4.759 -0.1305  0.0927  0.0360
 2754W        W 4954   0.592   3.615   7.477 -0.2222 -0.0752 -0.3339
 2755W        W 4955  19.606   7.464   8.633 -0.0097 -0.1339  0.0177
 2756W        W 4956   2.974   1.681  22.097 -0.1211 -0.0539  0.0071
 2757W        W 4957  24.305   6.047   4.719 -0.2120  0.0964  0.0380
 2758W        W 4958   9.647   5.553  20.396  0.3318  0.0395 -0.3114
 2759W        W 4959  20.413   0.708   7.744  0.2573  0.2956 -0.2279
 2760W        W 4960  12.227   6.589  26.937  0.1593  0.1255  0.1987
 2761W        W 4961   0.907   1.387   5.509 -0.0448  0.2378  0.0876
 2762W        W 4962  13.107   2.623   7.654 -0.0548 -0.0048  0.1188
 2763W        W 4963   0.640   4.598   5.463 -0.0554  0.1845 -0.1597
 2764W        W 4964   4.980   7.057   2.603  0.0696 -0.4248 -0.4783
 2765W        W 4965   2.108   5.599   4.101 -0.0226 -0.1076 -0.0581
 2766W        W 4966   0.857   6.039   9.435 -0.1557 -0.1801  0.1486
 2767W        W 4967  23.597   2.706  28.182 -0.1485  0.0701  0.1664
 2768W        W 4968   7.657   1.184   2.470  0.0513 -0.1948  0.3561
 2769W        W 4969  18.946   7.503  30.040 -0.0662 -0.0175 -0.0815
 2770W        W 4970  22.530   2.929  15.018  0.0475  0.0342  0.1710
 2771W        W 4971   4.707   1.518  18.507  0.2890 -0.1803 -0.0527
 2772W        W 4972  18.079   7.351  28.918 -0.0004  0.2187  0.1918
 2773W        W 4973  10.074   2.815  19.500  0.3978 -0.0384 -0.1616
 2774W        W 4974   5.678   4.581   1.969 -0.1336  0.1866 -0.1479
 2775W        W 4975   7.935   5.652   0.196  0.3518  0.2705  0.2247
 2776W        W 4976  20.280   1.973  17.091 -0.2494 -0.0956  0.0148
 2777W        W 4977  16.642   0.912   8.843  0.0512 -0.2030 -0.1049
 2778W        W 4978   4.540   6.251  27.500 -0.0619  0.0001 -0.0420
 2779W        W 4979   2.115   6.474  30.113 -0.1887  0.1204  0.2603
 2780W        W 4980   5.232   6.407   7.870  0.1433 -0.0455 -0.1085
 2781W        W 4981  23.864   1.276   7.399 -0.1094  0.0924 -0.2204
 2782W        W 4982   7.403   3.554  21.344 -0.1141  0.1491  0.2405
 2783W        W 4983   7.651   2.500  18.602 -0.1023  0.1093  0.2562
 2784W        W 4984  18.691   0.085  17.664 -0.1050  0.3067  0.1422
 2785W        W 4985  10.882   2.532  18.099  0.0244  0.1283  0.1174
 2786W        W 4986  20.570   2.320  31.212  0.0440 -0.0339 -0.0523
 2787W        W 4987  12.267   6.329  26.401  0.1214  0.2388 -0.1207
 2788W        W 4988   6.640   2.583   4.006  0.0792  0.1171 -0.0735
 2789W        W 4989   7.920   4.038  19.169  0.0477  0.0143 -0.1896
 2790W        W 4990   0.055   4.696   9.083  0.0857  0.0465 -0.1033
 2791W        W 4991   3.448   7.583   3.532 -0.2305  0.1364 -0.3525
 2792W        W 4992   6.052   2.734  23.870 -0.0239 -0.2541 -0.2347
 2793W        W 4993  18.811   3.857  17.282 -0.2243  0.1130  0.0018
 2794W        W 4994   6.140   4.340   8.756 -0.0311 -0.2188  0.1412
 2795W        W 4995  10.820   7.698  25.156 -0.0242 -0.1077 -0.0544
 2796W        W 4996  10.544   2.767  18.675  0.3056 -0.0671 -0.3958
 2797W        W 4997  15.076   0.881   2.693  0.1712  0.2586  0.2264
 2798W        W 4998   2.297   5.960   1.375  0.0595  0.0731  0.2537
 2799W        W 4999   9.395   1.842  15.664  0.2408  0.1048 -0.0926
 2800W        W 5000  24.527   4.129  29.625  0.3146 -0.2798  0.0687
 2801W        W 5001  17.996   6.329   8.696 -0.1202 -0.1681  0.0872
 2802W        W 5002  12.178   2.216  19.647 -0.0348  0.0707 -0.0823
 2803W        W 5003   3.635   0.880  20.395 -0.1312  0.3822 -0.1240
 2804W        W 5004   5.280   4.313   1.910 -0.0766  0.1917  0.1498
 2805W        W 5005  21.702   1.137   4.695 -0.2040  0.4233  0.1640
 2806W        W 5006  10.213   7.142  27.705 -0.0983  0.4198 -0.1353
 2807W        W 5007   5.216   4.311  21.068  0.0271 -0.3512  0.5842
 2808W        W 5008  24.807   4.625  28.432 -0.2774 -0.0250  0.1427
 2809W        W 5009   0.366   5.487   5.631  0.0064 -0.2838 -0.2963
 2810W        W 5010   8.991   4.718  24.107 -0.0081  0.0248  0.1544
 2811W        W 5011   8.887   3.035   8.065 -0.4689  0.2020 -0.0004
 2812W        W 5012   1.874   2.303   1.023  0.0046 -0.0644 -0.2381
 2813W        W 5013   8.878   4.844  30.238 -0.0921 -0.2782  0.0615
 2814W        W 5014   1.483   5.230  31.495 -0.1752 -0.0489  0.0341
 2815W        W 5015   8.926   6.430   2.874  0.3882  0.0918 -0.0190
 2816W        W 5016  11.384   5.413   2.315 -0.1933  0.0537  0.2367
 2817W        W 5017  18.360   6.970  29.106 -0.1229 -0.3434  0.1824
 2818W        W 5018  20.492   7.666  22.227 -0.1141  0.3436 -0.0524
 2819W        W 5019   3.606   6.000   1.488 -0.2385 -0.0390  0.1869
 2820W        W 5020   2.711   1.011  27.523 -0.0425  0.0289 -0.0293
 2821W        W 5021   6.703   5.741   2.317 -0.0674  0.2214  0.3026
 2822W        W 5022  19.121   1.700  31.746  0.0288 -0.2108 -0.0894
 2823W        W 5023  23.176   5.530  31.703  0.1486  0.0219  0.2823
 2824W        W 5024   4.382   1.456  29.209  0.0502 -0.1128  0.2126
 2825W        W 5025  24.171   5.952   1.702 -0.1453  0.0895  0.0110
 2826W        W 5026   0.026   6.157  25.678 -0.1153 -0.0945 -0.0269
 2827W        W 5027   2.384   5.946   8.151 -0.1674  0.0595  0.3534
 2828W        W 5028  24.212   1.742  22.832 -0.0327 -0.0172 -0.0725
 2829W        W 5029  17.202   0.319   6.899 -0.0527 -0.1949 -0.1394
 2830W        W 5030  14.233   1.966  21.778 -0.1495 -0.0448  0.2941
 2831W        W 5031  10.425   2.269  24.420  0.0702  0.0099  0.0240
 2832W        W 5032   5.791   5.840  29.841 -0.2566 -0.1195 -0.0973
 2833W        W 5033  22.021   3.745  27.020  0.0251 -0.0654  0.1805
 2834W        W 5034  14.230   7.455  27.570 -0.5169  0.0955 -0.1819
 2835W        W 5035   9.139   6.321  18.872  0.0659  0.0609  0.0728
 2836W        W 5036  12.545   7.681   7.761  0.1420  0.0647  0.1165
 2837W        W 5037  23.442   0.186   1.461 -0.2796  0.2282 -0.2506
 2838W        W 5038   4.216   4.553   6.064  0.2510 -0.0922 -0.1416
 2839W        W 5039   9.992   4.909  22.964 -0.3563  0.1785  0.3369
 2840W        W 5040   4.349   0.152   6.490  0.1703 -0.3101  0.0395
 2841W        W 5041  20.077   0.213  11.652  0.0629 -0.2062  0.2104
 2842W        W 5042  21.065   4.043   0.673  0.0819 -0.1422 -0.1442
 2843W        W 5043   2.638   6.109  23.579  0.0697  0.0343  0.1801
 2844W        W 5044   8.150   1.480   0.131 -0.2661 -0.1138 -0.1799
 2845W        W 5045  12.377   0.578   7.342 -0.2751 -0.1581 -0.1446
 2846W        W 5046  17.334   5.547   8.488  0.0668  0.0321 -0.0916
 2847W        W 5047   2.302   2.818   4.861 -0.1313 -0.0873 -0.2165
 2848W        W 5048   8.745   0.388  28.031 -0.0417  0.1830 -0.0892
 2849W        W 5049  18.409   4.719   0.685  0.1500 -0.0175 -0.1125
 2850W        W 5050   4.166   7.330  18.672 -0.0189  0.0381  0.0900
 2851W        W 5051  10.435   1.809   8.676 -0.2081 -0.2231  0.0909
 2852W        W 5052  17.632   2.294   4.696  0.2454  0.3485 -0.0421
 2853W        W 5053   8.086   3.825  17.132  0.0255 -0.1837 -0.0461
 2854W        W 5054   6.347   7.096  28.243 -0.6327  0.1132 -0.1491
 2855W        W 5055  18.325   1.168   9.207 -0.1414 -0.3075 -0.1393
 2856W        W 5056  23.219   3.019  28.777 -0.1026  0.0195  0.0191
 2857W        W 5057  21.191   3.180  26.846  0.2388  0.1024 -0.2151
 2858W        W 5058  14.725   7.361   5.733  0.1346  0.1216 -0.2278
 2859W        W 5059   5.875   4.192  18.620 -0.4170  0.0201  0.0444
 2860W        W 5060   7.381   7.732  17.201 -0.0890 -0.1838  0.1878
 2861W        W 5061   8.538   1.703  21.223  0.0991 -0.0537  0.1276
 2862W        W 5062  13.031   7.710  11.057  0.0747 -0.0667  0.0114
 2863W        W 5063   0.908   2.447  10.668 -0.2725  0.1436  0.1637
 2864W        W 5064   2.208   4.434   7.140  0.1371 -0.2040 -0.0808
 2865W        W 5065   2.711   6.790  22.936  0.0851 -0.2910 -0.1017
 2866W        W 5066  10.412   6.449  11.215  0.0456 -0.0028 -0.2321
 2867W        W 5067  17.694   3.289  26.603 -0.2850  0.1326  0.0950
 2868W        W 5068  22.731   3.890  28.994 -0.1062  0.1754 -0.1825
 2869W        W 5069   6.000   1.448   3.385  0.0549 -0.2434  0.0603
 2870W        W 5070  14.641   6.231   9.973  0.3100 -0.2300  0.2074
 2871W        W 5071  11.253   4.061  32.474 -0.0165  0.1846  0.1618
 2872W        W 5072   8.770   2.919  26.934 -0.0769  0.2080 -0.1463
 2873W        W 5073  23.285   7.086  11.672  0.1152 -0.1078 -0.0673
 2874W        W 5074  13.602   3.984  20.191 -0.0472  0.0623  0.0627
 2875W        W 5075  19.534   2.474  29.751  0.1002 -0.2658  0.2292
 2876W        W 5076   6.316   5.543  26.844  0.0117 -0.2294 -0.0853
 2877W        W 5077  13.024   0.867  21.844 -0.0986  0.1764  0.0575
 2878W        W 5078   9.823   4.226  20.655 -0.0632  0.0376 -0.2683
 2879W        W 5079  24.480   4.933  30.745 -0.1348 -0.0515 -0.2758
 2880W        W 5080  11.603   2.255  26.124 -0.2123  0.1278  0.2311
 2881W        W 5081  10.236   4.544  26.314 -0.1185 -0.2463  0.2731
 2882W        W 5082  11.722   6.019  30.444  0.1386  0.1345 -0.2297
 2883W        W 5083  13.643   7.049  21.304  0.1950  0.0065  0.0824
 2884W        W 5084   6.510   4.866   6.919  0.2954 -0.2648 -0.2073
 2885W        W 5085   2.648   7.223  30.444  0.5618 -0.3133 -0.1479
 2886W        W 5086   4.321   5.926  14.612 -0.2957 -0.0296  0.0808
 2887W        W 5087  10.611   4.003  17.666 -0.1971 -0.0971  0.0662
 2888W        W 5088   2.410   1.414  18.355 -0.0041 -0.1292  0.2219
 2889W        W 5089  18.658   5.341   9.334  0.1603  0.0234  0.1366
 2890W        W 5090   7.339   0.565   9.047 -0.0771  0.0036  0.0270
 2891W        W 5091  11.976   6.150  28.825  0.3875  0.0007 -0.2802
 2892W        W 5092  17.437   4.858  13.643 -0.1100 -0.1932 -0.0811
 2893W        W 5093  14.309   6.122  30.323 -0.2191 -0.1998 -0.1508
 2894W        W 5094  15.405   3.562  30.362 -0.0339  0.0656 -0.2085
 2895W        W 5095  21.794   3.900   4.962 -0.1252 -0.2431  0.1399
 2896W        W 5096  13.773   6.717  32.368 -0.6281 -0.1538  0.1464
 2897W        W 5097  14.058   1.653  29.321 -0.1193 -0.0659  0.0764
 2898W        W 5098  18.531   1.748   5.701  0.0650 -0.1662 -0.0226
 2899W        W 5099  11.423   1.860  27.766  0.2802  0.0317  0.2151
 2900W        W 5100   4.465   0.644  26.838 -0.1452  0.2036  0.1258
 2901W        W 5101  24.989   7.199  22.510  0.1969 -0.0519  0.0293
 2902W        W 5102  24.848   3.210  26.951 -0.1075 -0.1125  0.3086
 2903W        W 5103   1.769   2.725   8.872 -0.1341  0.1883 -0.1172
 2904W        W 5104  24.584   1.821  29.988  0.0957  0.0835 -0.2133
 2905W        W 5105  21.116   6.845  15.461  0.4962  0.0976  0.5678
 2906W        W 5106  12.522   7.796  22.742 -0.0107  0.1153 -0.1748
 2907W        W 5107  17.498   3.872  15.997 -0.0166 -0.0742 -0.1044
 2908W        W 5108   0.648   5.125  26.527  0.0928  0.2169 -0.0708
 2909W        W 5109   7.367   5.671  30.402  0.0705 -0.0557  0.0737
 2910W        W 5110   1.387   5.086  11.368 -0.1959  0.0046  0.1317
 2911W        W 5111   0.259   2.308  24.263 -0.0012 -0.1917 -0.2780
 2912W        W 5112  15.637   7.835  25.905  0.0700  0.0066 -0.1041
 2913W        W 5113   1.992   3.357  28.990  0.1808  0.3342  0.1491
 2914W        W 5114  12.704   3.427   5.227 -0.1292  0.0736  0.1111
 2915W        W 5115   9.036   2.977   3.366  0.2567  0.0393 -0.1580
 2916W        W 5116   6.804   3.513  19.961  0.0211 -0.3485 -0.4091
 2917W        W 5117  17.116   3.564   8.490 -0.1235 -0.0004  0.1121
 2918W        W 5118  17.843   7.252  10.541 -0.3034  0.1638  0.3301
 2919W        W 5119  24.867   1.480  23.369  0.2871  0.1166 -0.1110
 2920W        W 5120   8.956   2.744   4.764 -0.2838  0.2667  0.1297
 2921W        W 5121   0.146   5.374  31.883 -0.0857  0.3247  0.0270
 2922W        W 5122  15.229   3.702  15.444  0.1023  0.2015  0.1939
 2923W        W 5123  19.378   5.400   7.668  0.3087  0.0330  0.0526
 2924W        W 5124  10.360   5.909  28.400 -0.1515  0.3568 -0.1704
 2925W        W 5125   5.417   2.563   8.219  0.2553 -0.0255  0.2671
 2926W        W 5126   6.146   6.132  17.654 -0.0100 -0.2244 -0.1286
 2927W        W 5127  16.827   1.648  22.875 -0.2252  0.0295  0.1419
 2928W        W 5128   3.439   7.215  27.917 -0.0487  0.0683 -0.0503
 2929W        W 5129   0.859   4.588  20.254 -0.1244  0.3120  0.1187
 2930W        W 5130   8.032   7.557  17.319 -0.0544  0.0507  0.0905
 2931W        W 5131   2.597   3.442  28.730  0.0961 -0.1611  0.3616
 2932W        W 5132  14.482   0.401   7.550 -0.2745  0.3159  0.2037
 2933W        W 5133  11.953   5.767  23.332  0.1203 -0.0807 -0.1146
 2934W        W 5134  10.591   5.234   2.661  0.3021  0.4615 -0.0982
 2935W        W 5135   9.800   6.557   3.424 -0.2012 -0.1805  0.1503
 2936W        W 5136  10.666   0.467   6.420 -0.0823  0.0569  0.0622
 2937W        W 5137   3.059   0.471  27.491 -0.0009 -0.0319  0.0214
 2938W        W 5138  17.327   5.667  12.072 -0.0214  0.0882 -0.1856
 2939W        W 5139  15.884   0.512  25.974  0.1183  0.1869 -0.2051
 2940W        W 5140  17.304   0.160  15.624  0.0746 -0.1175 -0.3392
 2941W        W 5141  16.833   4.923  14.424  0.0075 -0.2512  0.0590
 2942W        W 5142  17.502   1.957  17.047 -0.3565 -0.0125 -0.2721
 2943W        W 5143  15.566   1.134   2.884  0.4320  0.1365 -0.0697
 2944W        W 5144   5.179   6.882   9.588  0.2713 -0.0079 -0.0504
 2945W        W 5145   6.052   7.365  24.179 -0.3637  0.0942  0.1362
 2946W        W 5146   7.285   0.841   2.399  0.3652 -0.0679  0.0704
 2947W        W 5147   0.686   7.608   3.647 -0.4503  0.2254  0.0255
 2948W        W 5148  16.765   3.711  28.653  0.0942  0.1928 -0.0170
 2949W        W 5149  15.551   0.823   8.443 -0.2683  0.2782  0.0350
 2950W        W 5150  19.698   6.100  12.898 -0.0241 -0.2674  0.1774
 2951W        W 5151  16.839   7.805  22.841  0.1128 -0.3129 -0.0145
 2952W        W 5152  24.148   2.557  24.088 -0.1096 -0.2818 -0.0433
 2953W        W 5153  14.652   1.954  28.373 -0.0001 -0.0761 -0.1148
 2954W        W 5154  16.579   7.172   4.390  0.0817 -0.0808 -0.0363
 2955W        W 5155   3.616   3.853  17.632  0.1793  0.1532 -0.1101
 2956W        W 5156  25.048   0.299  27.033  0.1786  0.1655  0.4114
 2957W        W 5157  16.484   5.118   8.978  0.0426  0.1085  0.1307
 2958W        W 5158  10.540   1.583  30.217  0.2764  0.3011  0.3719
 2959W        W 5159  18.598   3.095  26.020  0.1883  0.4308  0.1998
 2960W        W 5160   5.292   1.772  21.711 -0.3351 -0.0175  0.3244
 2961W        W 5161   9.375   5.676  16.638 -0.2415 -0.1899 -0.1779
 2962W        W 5162   3.190   4.079  27.005  0.0920  0.0390 -0.1959
 2963W        W 5163  19.741   5.451  17.977  0.4147  0.0542  0.0336
 2964W        W 5164  13.891   5.111  31.661  0.3469 -0.0552 -0.0857
 2965W        W 5165   1.060   6.724   1.412 -0.1217 -0.0351  0.3750
 2966W        W 5166  19.104   3.316   8.828  0.0376 -0.1801 -0.1688
 2967W        W 5167   0.035   2.596   3.555 -0.0210  0.0554 -0.2670
 2968W        W 5168   6.442   5.033   7.611 -0.1574  0.1104  0.0540
 2969W        W 5169   0.757   6.258  10.827  0.0158 -0.1134  0.0158
 2970W        W 5170   4.792   7.088  21.190 -0.1848 -0.3237  0.0991
 2971W        W 5171  11.542   5.820   8.728  0.0593  0.1565  0.0948
 2972W        W 5172   9.775   1.215  19.567 -0.2662  0.1933  0.3109
 2973W        W 5173  22.720   5.983   1.837 -0.1029 -0.2384  0.2064
 2974W        W 5174  13.077   7.786   3.030  0.4428 -0.1790  0.0098
 2975W        W 5175   1.557   0.192   2.067 -0.0893  0.1204  0.1621
 2976W        W 5176  12.635   6.125  13.070 -0.2918  0.2518 -0.0257
 2977W        W 5177  16.393   1.900  26.205  0.0636  0.0923 -0.2138
 2978W        W 5178  10.750   0.074  30.183 -0.1048  0.0905  0.0333
 2979W        W 5179   7.701   0.707  26.664 -0.0277  0.0790 -0.1574
 2980W        W 5180   3.914   4.213  24.232 -0.0514  0.0108 -0.2089
 2981W        W 5181  19.620   6.937  28.377  0.1558  0.0431 -0.1234
 2982W        W 5182   6.693   7.810  28.854 -0.0764 -0.1316 -0.0135
 2983W        W 5183  18.577   6.393  31.330 -0.0198 -0.0941 -0.1813
 2984W        W 5184  20.949   7.723   3.567  0.3866 -0.0289 -0.3763
 2985W        W 5185   2.908   0.129   1.245  0.4555  0.1941 -0.0922
 2986W        W 5186  25.070   1.560  20.513 -0.3164  0.2672 -0.2984
 2987W        W 5187  16.208   2.533  29.842  0.0508 -0.6416  0.2746
 2988W        W 5188   5.541   0.767  26.182  0.0236  0.2004  0.2407
 2989W        W 5189  20.841   4.283  24.874 -0.3139  0.1356  0.1679
 2990W        W 5190   8.841   5.310  17.996  0.0615  0.2862 -0.1871
 2991W        W 5191  10.352   5.167  25.406 -0.2717  0.1941 -0.0943
 2992W        W 5192  17.374   3.211  30.248  0.0723  0.4150  0.1661
 2993W        W 5193  17.560   4.159   5.670 -0.0023  0.1434 -0.0620
 2994W        W 5194   1.452   1.595  23.356 -0.0129 -0.0488  0.0350
 2995W        W 5195   1.287   0.391  24.034 -0.6063 -0.0696 -0.1586
 2996W        W 5196   8.684   2.302  31.254  0.4015  0.1568  0.1408
 2997W        W 5197  14.631   3.415  13.070  0.0552 -0.1240  0.3675
 2998W        W 5198   6.962   6.734  20.500 -0.1977 -0.1173  0.5404
 2999W        W 5199  25.090   5.906   9.323  0.2738 -0.0397  0.1315
 3000W        W 5200  22.426   3.639  27.409  0.2173  0.1299 -0.0583
 3001W        W 5201  20.276   0.746  25.389  0.0849 -0.1476 -0.4081
 3002W        W 5202   6.021   6.284   2.940 -0.1370 -0.0803 -0.1434
 3003W        W 5203  19.473   1.452   3.295  0.0362  0.0417  0.1331
 3004W        W 5204  16.173   4.947  23.292  0.0935  0.1518 -0.2120
 3005W        W 5205  16.686   6.780  13.503  0.0202 -0.0485  0.2604
 3006W        W 5206  15.514   5.562   5.730  0.0147 -0.0253  0.0420
 3007W        W 5207   1.214   3.150   2.278 -0.1866  0.2099 -0.3899
 3008W        W 5208  24.788   2.732   3.330 -0.2747  0.0137  0.1588
 3009W        W 5209  18.573   6.137  15.249  0.1185 -0.0550  0.0998
 3010W        W 5210   1.274   4.470   3.994  0.1778 -0.4257  0.0233
 3011W        W 5211   5.244   5.045  16.846  0.2662  0.2937 -0.2730
 3012W        W 5212  23.931   1.177  30.056 -0.1791  0.0162 -0.0082
 3013W        W 5213   9.619   4.742  19.310 -0.2046  0.0811 -0.2170
 3014W        W 5214   7.414   5.999  22.271 -0.1484  0.2272 -0.1681
 3015W        W 5215  19.479   0.724  29.478 -0.2067  0.0649 -0.0112
 3016W        W 5216   6.611   2.596   2.671  0.1776 -0.0726 -0.2369
 3017W        W 5217   2.260   1.287  32.074  0.1666  0.0190 -0.0841
 3018W        W 5218  20.977   4.992   0.681  0.2561  0.0518 -0.1620
 3019W        W 5219   1.633   7.540  28.027  0.0633 -0.0049  0.1327
 3020W        W 5220  24.294   7.388   6.809 -0.1527 -0.2019 -0.1784
 3021W        W 5221  21.079   0.218  30.270 -0.0272 -0.0319  0.1363
 3022W        W 5222  21.185   7.493  11.968  0.0891  0.0700 -0.0664
 3023W        W 5223   7.592   1.646  25.667  0.0808 -0.1756 -0.3416
 3024W        W 5224   3.124   6.052  17.337  0.0155 -0.1515 -0.1907
 3025W        W 5225  18.749   0.131  15.945  0.0588  0.1147 -0.1440
 3026W        W 5226  23.843   5.353   6.616  0.0603 -0.0974  0.2888
 3027W        W 5227  15.012   0.022  24.260 -0.1370  0.1062 -0.1277
 3028W        W 5228   1.758   5.319  20.841  0.0326  0.1548 -0.2752
 3029W        W 5229  17.020   7.541  15.621  0.1809 -0.1529 -0.3176
 3030W        W 5230   4.123   6.704   6.701  0.1021 -0.1977  0.0691
 3031W        W 5231  10.948   5.515  20.843  0.1394 -0.2426 -0.0737
 3032W        W 5232  12.141   0.746   4.869  0.1757  0.1167  0.0667
 3033W        W 5233  22.565   2.692  31.371 -0.1829  0.1026  0.3498
 3034W        W 5234  18.674   3.551   8.943  0.0970 -0.1764 -0.2887
 3035W        W 5235  20.127   0.394  23.896 -0.2537  0.0646 -0.0006
 3036W        W 5236  24.248   4.807  27.823 -0.1374 -0.0307  0.1849
 3037W        W 5237  19.760   5.526  30.771 -0.0940  0.0308  0.0314
 3038W        W 5238   3.522   6.558  29.452  0.1676 -0.0574 -0.3266
 3039W        W 5239  13.234   5.412  29.704 -0.2051  0.3321  0.1720
 3040W        W 5240  21.693   1.903  22.660 -0.0360 -0.0302  0.1056
 3041W        W 5241  24.163   5.773  30.742 -0.1538 -0.0700 -0.1804
 3042W        W 5242  20.721   6.894  24.309  0.1901 -0.0004  0.0799
 3043W        W 5243   8.451   0.453   0.838  0.0991  0.1526  0.3762
 3044W        W 5244  13.269   1.056  11.860 -0.0025 -0.0240  0.2321
 3045W        W 5245   9.624   6.533  30.374  0.0715 -0.0694 -0.1965
 3046W        W 5246  22.385   5.948  16.473  0.0649 -0.0478 -0.0646
 3047W        W 5247  12.958   0.140  28.129 -0.3341 -0.1587 -0.1286
 3048W        W 5248  18.125   4.183   7.348  0.0525  0.0091  0.3945
 3049W        W 5249  13.123   2.944   6.131  0.1395 -0.0528  0.2911
 3050W        W 5250  18.879   2.008   2.502  0.0296  0.0602 -0.2928
 3051W        W 5251  15.447   6.340  25.952 -0.1102 -0.2993 -0.0937
 3052W        W 5252   1.248   3.028   7.883 -0.0162  0.2236  0.2898
 3053W        W 5253  10.333   7.706  30.352  0.1730 -0.2493  0.4513
 3054W        W 5254  22.473   5.186  11.264  0.1275 -0.2747 -0.1573
 3055W        W 5255  17.863   7.170   2.496 -0.1282 -0.1015 -0.1508
 3056W        W 5256  23.059   2.158  28.669 -0.1183  0.0306  0.0969
 3057W        W 5257  20.108   6.347   0.525 -0.1511 -0.0782  0.0331
 3058W        W 5258  24.038   3.162   0.184 -0.0459 -0.1257 -0.3336
 3059W        W 5259   7.207   4.473   4.791  0.1532 -0.0563 -0.2048
 3060W        W 5260  17.501   4.175  14.482 -0.2748  0.0643  0.0677
 3061W        W 5261   5.852   6.448   3.409 -0.0852 -0.3397  0.2250
 3062W        W 5262  12.837   2.663  13.800  0.1827  0.3196  0.0708
 3063W        W 5263   9.626   1.130  21.850  0.0379  0.0092  0.0124
 3064W        W 5264  15.165   1.700  32.458 -0.0571  0.0613 -0.0233
 3065W        W 5265   6.117   6.253   6.350 -0.0483  0.2116 -0.0837
 3066W        W 5266   9.898   5.697  27.454  0.1555  0.2303 -0.1073
 3067W        W 5267   5.742   6.210   0.699  0.1572  0.0652 -0.0601
 3068W        W 5268  17.323   5.389   6.313  0.2179  0.0042 -0.0675
 3069W        W 5269  12.421   1.329  31.010  0.0201  0.0786 -0.0862
 3070W        W 5270   8.635   2.909  30.769  0.1340  0.0305 -0.0887
 3071W        W 5271  14.791   6.858   8.772 -0.0854 -0.2265 -0.3036
 3072W        W 5272  17.809   6.361   3.812 -0.5233 -0.1454 -0.1751
 3073W        W 5273  19.820   6.891  12.193 -0.1028  0.0538  0.0665
 3074W        W 5274  13.257   4.635   2.601 -0.1040 -0.0181 -0.1473
 3075W        W 5275   5.779   5.344  30.647 -0.1075  0.0276  0.1362
 3076W        W 5276   5.776   5.267   1.249 -0.0344  0.3535 -0.1811
 3077W        W 5277  18.652   4.470  22.129  0.1291 -0.0225  0.0875
 3078W        W 5278   1.789   4.330  31.242 -0.0355  0.1297  0.0774
 3079W        W 5279   8.733   3.924   1.328  0.0632 -0.3869 -0.2871
 3080W        W 5280   2.339   0.439   5.242 -0.2726 -0.1316  0.0120
 3081W        W 5281   4.689   4.603  24.828 -0.0901  0.1213 -0.2193
 3082W        W 5282  13.215   3.713   2.310  0.0394 -0.1224 -0.2382
 3083W        W 5283  16.750   3.384   8.681  0.0112  0.1646 -0.0210
 3084W        W 5284  22.948   3.652  11.393  0.0371  0.0870 -0.3906
 3085W        W 5285  14.303   3.800   1.627  0.1701  0.0323 -0.1614
 3086W        W 5286  20.110   4.401   9.797 -0.2508 -0.1712 -0.2239
 3087W        W 5287   8.039   7.368   6.324  0.1514 -0.5261  0.3592
 3088W        W 5288   7.564   5.533  25.158 -0.5328 -0.2348 -0.3624
 3089W        W 5289  10.130   4.232  17.977 -0.2538 -0.0125 -0.0063
 3090W        W 5290  20.166   1.291   5.191  0.1011 -0.1511  0.1462
 3091W        W 5291   6.842   2.007  18.941  0.2073 -0.0657  0.2356
 3092W        W 5292  17.721   2.975   7.990  0.1245  0.0434 -0.0021
 3093W        W 5293  23.587   6.646  10.290  0.0887  0.0030  0.1548
 3094W        W 5294  14.859   2.399   5.642 -0.2111 -0.3616 -0.5099
 3095W        W 5295  18.843   5.243   7.523  0.0610 -0.2458 -0.0821
 3096W        W 5296   6.646   1.332   1.172 -0.2690  0.0133  0.0326
 3097W        W 5297  16.355   1.915  27.807  0.2314  0.1408  0.0976
 3098W        W 5298  24.950   4.421  25.104 -0.2534  0.2078  0.0941
 3099W        W 5299  12.843   1.601  24.763  0.0495 -0.2111  0.0853
 3100W        W 5300  15.442   2.351  13.474 -0.2069 -0.1416 -0.0068
 3101W        W 5301  22.161   2.987  17.141 -0.0270  0.2467 -0.2164
 3102W        W 5302  15.969   2.369  12.256 -0.1334 -0.0978 -0.1912
 3103W        W 5303   6.447   1.496   1.763  0.1191 -0.4082  0.1227
 3104W        W 5304  20.029   5.025   0.614  0.0675  0.1989 -0.1484
 3105W        W 5305  18.756   0.095  28.775  0.0889  0.0685  0.4345
 3106W        W 5306   0.712   6.412  24.411 -0.1970 -0.2036 -0.0544
 3107W        W 5307   8.735   2.650   0.988 -0.3208 -0.0005  0.0575
 3108W        W 5308   6.637   0.354  31.275  0.2126  0.0520 -0.0600
 3109W        W 5309  14.265   5.821  12.478 -0.0794  0.0957 -0.0980
 3110W        W 5310   4.946   6.865  31.026  0.0970  0.1340  0.1048
 3111W        W 5311  13.696   1.439   7.447 -0.3403 -0.1339  0.1718
 3112W        W 5312  15.075   7.078  12.795 -0.0049  0.1768  0.2265
 3113W        W 5313  22.698   0.116  15.972  0.1572  0.0625  0.2197
 3114W        W 5314   3.959   6.850  26.290 -0.4211 -0.2160 -0.1692
 3115W        W 5315   8.847   1.061   9.592  0.0390  0.2422 -0.0428
 3116W        W 5316  18.832   1.506  30.567  0.1228 -0.0711 -0.2454
 3117W        W 5317  24.367   4.174  10.542 -0.0419  0.3685  0.0573
 3118W        W 5318   5.664   7.467  17.206 -0.2977 -0.0984  0.0071
 3119W        W 5319  14.374   2.440  25.929  0.1123 -0.0476  0.0139
 3120W        W 5320   8.450   3.136  28.830  0.1889 -0.0951  0.0813
 3121W        W 5321   8.466   4.201  22.681 -0.0397  0.1334 -0.0993
 3122W        W 5322  24.676   4.012  31.519  0.0417 -0.0151  0.1391
 3123W        W 5323   4.604   0.981  28.835 -0.1043  0.1385  0.0139
 3124W        W 5324  22.793   7.678  31.599  0.1880  0.0298 -0.0891
 3125W        W 5325   8.200   2.919   4.923 -0.0473 -0.0881  0.2619
 3126W        W 5326   2.007   0.222   5.576  0.0420 -0.4249  0.1368
 3127W        W 5327   2.020   4.720  23.391  0.2957 -0.0753  0.1608
 3128W        W 5328   9.119   6.265  15.397  0.1262  0.0934 -0.1329
 3129W        W 5329   5.094   4.314  26.004 -0.0967 -0.0031  0.2170
 3130W        W 5330   8.267   0.869  19.792 -0.1354 -0.3149  0.1288
 3131W        W 5331  23.429   4.993  21.181  0.0252  0.0554  0.2238
 3132W        W 5332   3.372   5.837  26.009  0.1763 -0.0267 -0.2321
 3133W        W 5333  24.498   2.853   7.328 -0.3951  0.0689  0.0003
 3134W        W 5334  17.093   7.044   1.635  0.3962 -0.2354 -0.0953
 3135W        W 5335  10.151   3.546  29.003  0.0763  0.4064 -0.3264
 3136W        W 5336  20.694   6.481   1.860 -0.0259  0.2289 -0.0016
 3137W        W 5337  24.140   7.753   0.474 -0.0155 -0.0405 -0.0172
 3138W        W 5338   5.486   5.471  26.844 -0.1058 -0.0638 -0.0039
 3139W        W 5339  24.641   2.029  24.813 -0.2794  0.0299 -0.0182
 3140W        W 5340   8.110   0.139  20.625 -0.1440  0.1310  0.2844
 3141W        W 5341  12.827   0.196   0.589  0.0098 -0.0755  0.0635
 3142W        W 5342  11.352   7.033  27.362 -0.0664 -0.1043  0.2962
 3143W        W 5343  14.488   4.556  22.720  0.1547 -0.0253  0.0664
 3144W        W 5344   9.522   3.061   0.172 -0.3942 -0.1128  0.2183
 3145W        W 5345  10.078   5.732  24.450 -0.0614  0.3265 -0.0665
 3146W        W 5346  14.277   2.219  14.609 -0.1147  0.1469 -0.3418
 3147W        W 5347   8.583   4.804  20.395  0.1943 -0.0724  0.0175
 3148W        W 5348  25.126   2.853   8.125  0.4829  0.2151  0.0690
 3149W        W 5349   5.031   0.642   3.660 -0.1250 -0.0781  0.1848
 3150W        W 5350   6.061   0.722  27.633  0.0266  0.1021 -0.0231
 3151W        W 5351  21.975   7.553  14.790  0.0545 -0.0469 -0.0991
 3152W        W 5352  12.930   7.804  10.462  0.1836  0.0707  0.2103
 3153W        W 5353  19.142   1.256  16.302  0.0424  0.1123  0.2659
 3154W        W 5354  12.787   0.897  22.809  0.2520  0.0614 -0.3105
 3155W        W 5355   2.583   5.409  29.039  0.3006  0.1491  0.0486
 3156W        W 5356  21.676   2.247  17.491 -0.0407 -0.0738 -0.0252
 3157W        W 5357   9.834   3.201   2.967 -0.1245 -0.0826 -0.0252
 3158W        W 5358  18.530   2.227   9.147 -0.2148 -0.1167 -0.1592
 3159W        W 5359  22.964   3.798  27.732  0.2696  0.0159  0.0293
 3160W        W 5360   1.458   7.564  10.848  0.0942 -0.0292 -0.0250
 3161W        W 5361   8.493   4.591  15.901  0.1482  0.0894  0.3350
 3162W        W 5362  19.587   1.923   6.899 -0.1281  0.1148 -0.0362
 3163W        W 5363  23.097   4.297  22.414  0.1573  0.1077 -0.2658
 3164W        W 5364  13.842   2.181   2.456  0.0360  0.0078 -0.0070
 3165W        W 5365   5.546   2.765  22.128 -0.0581  0.3582 -0.2655
 3166W        W 5366  24.246   4.074   1.774  0.1872  0.0076 -0.2298
 3167W        W 5367   0.398   0.871   6.248 -0.2089 -0.2030 -0.0095
 3168W        W 5368  13.531   3.640  29.362  0.0375 -0.1900  0.2039
 3169W        W 5369   7.586   0.313   9.968  0.1231 -0.0469  0.0540
 3170W        W 5370  13.719   4.843  13.942  0.0788 -0.2806  0.1502
 3171W        W 5371  13.061   2.814  24.829 -0.1847  0.3766  0.2271
 3172W        W 5372  12.858   0.357   7.317  0.1749  0.1070  0.2301
 3173W        W 5373   5.044   5.026  19.690 -0.0980 -0.0608 -0.1274
 3174W        W 5374  14.248   3.665  24.654 -0.3958 -0.1017  0.0511
 3175W        W 5375  21.070   7.672  13.886  0.0519 -0.4394 -0.1550
 3176W        W 5376  11.055   0.348   5.255 -0.4313 -0.0895 -0.2711
 3177W        W 5377   9.416   2.796  22.512  0.0125 -0.2530  0.1124
 3178W        W 5378   7.550   6.383  17.865 -0.0607 -0.0693  0.0839
 3179W        W 5379   2.963   7.255  22.282  0.1334  0.1297  0.0788
 3180W        W 5380  21.890   5.332   2.223 -0.0905 -0.2079 -0.0315
 3181W        W 5381  24.642   7.521   5.074  0.1121  0.1791 -0.0298
 3182W        W 5382  14.453   3.621  12.051  0.2192 -0.0861 -0.0428
 3183W        W 5383   5.319   4.525  10.608 -0.2736 -0.2383 -0.4047
 3184W        W 5384  17.173   3.994   8.798  0.1986 -0.0177 -0.0931
 3185W        W 5385  22.496   6.070  14.519 -0.1544  0.0079  0.1873
 3186W        W 5386   5.554   6.610  26.652  0.0293  0.2804 -0.1311
 3187W        W 5387  20.778   3.681   9.350  0.4106  0.0144  0.0277
 3188W        W 5388  10.572   2.145   0.176  0.2937 -0.1459 -0.0884
 3189W        W 5389  12.950   2.464   8.620 -0.1950 -0.1423  0.1077
 3190W        W 5390   7.115   2.784   2.768  0.1641 -0.3501  0.0641
 3191W        W 5391  18.436   0.996  13.239 -0.0543  0.0523 -0.2885
 3192W        W 5392  14.724   5.059   4.918 -0.4034 -0.1370 -0.0674
 3193W        W 5393  17.956   3.112   3.861  0.0198  0.0374 -0.1249
 3194W        W 5394   6.229   5.164  17.969 -0.0411 -0.1023  0.2016
 3195W        W 5395  13.004   7.000   6.021  0.0047 -0.1203 -0.0597
 3196W        W 5396   8.475   3.382  16.122 -0.0845 -0.2095 -0.1446
 3197W        W 5397   2.710   6.095  24.653  0.3696 -0.0627  0.1250
 3198W        W 5398  19.416   7.755   1.670  0.4226 -0.0827 -0.2506
 3199W        W 5399  16.860   4.077   5.184 -0.0555  0.1708 -0.2996
 3200W        W 5400   4.704   4.071  28.265 -0.2248  0.1404 -0.1658
 3201W        W 5401   0.398   2.431  24.956  0.2355 -0.0584 -0.1643
 3202W        W 5402   9.888   1.181  31.693 -0.0046 -0.1831  0.1054
 3203W        W 5403   4.793   2.252  23.432  0.2370  0.1948  0.2040
 3204W        W 5404  13.804   2.663  11.282 -0.2236 -0.0901  0.1267
 3205W        W 5405  20.178   4.628  24.490  0.1542 -0.1161 -0.0450
 3206W        W 5406  16.377   3.058  31.145  0.1588  0.0268 -0.3631
 3207W        W 5407   0.284   5.411   6.943  0.0360 -0.1092  0.0415
 3208W        W 5408  25.088   1.292  30.168 -0.2073  0.0495 -0.1812
 3209W        W 5409   3.947   3.730  29.716 -0.0145 -0.3911  0.1738
 3210W        W 5410  19.573   1.826  22.211  0.1186  0.2026 -0.2228
 3211W        W 5411  24.598   3.174   5.465 -0.0122 -0.1868  0.1892
 3212W        W 5412   3.572   7.762  18.968 -0.0285  0.0231  0.2607
 3213W        W 5413  18.274   4.456  22.847 -0.0689  0.3457 -0.0766
 3214W        W 5414   0.920   7.801  23.336 -0.1550  0.0973  0.1667
 3215W        W 5415   0.714   0.282  31.443  0.1140 -0.2441  0.1448
 3216W        W 5416  24.447   1.190  25.219  0.1139  0.2078 -0.0693
 3217W        W 5417   1.415   2.920  11.276 -0.1401  0.0227 -0.3215
 3218W        W 5418   1.180   5.980  29.200  0.0439 -0.1703  0.0896
 3219W        W 5419  18.368   4.368  30.235 -0.3614 -0.0318 -0.0681
 3220W        W 5420  22.954   5.732  28.614  0.0631 -0.3230  0.1525
 3221W        W 5421   6.573   3.660  15.052  0.1623  0.1527  0.0259
 3222W        W 5422   3.048   3.639   0.282 -0.2995 -0.0137  0.2244
 3223W        W 5423   0.688   2.825  22.069  0.1119 -0.0810 -0.0145
 3224W        W 5424  18.313   5.842   3.169 -0.0363 -0.0076 -0.1756
 3225W        W 5425   0.433   3.871   9.672 -0.0802 -0.0052 -0.3568
 3226W        W 5426  18.992   5.934   3.701 -0.1315  0.2072 -0.1210
 3227W        W 5427   9.764   7.777  31.519  0.2069 -0.1954  0.2256
 3228W        W 5428  24.688   3.657  27.151 -0.1810  0.1001  0.2507
 3229W        W 5429  24.274   2.341  24.612  0.1167 -0.1135 -0.1239
 3230W        W 5430   8.251   4.082  29.376  0.2120  0.0350 -0.2324
 3231W        W 5431  14.433   2.687   7.461  0.1280 -0.2915  0.1278
 3232W        W 5432  18.578   0.605  27.199  0.1144  0.1441 -0.1184
 3233W        W 5433  11.390   6.632  23.659 -0.1583 -0.2116  0.3545
 3234W        W 5434  16.946   6.129  31.069 -0.0593  0.0517 -0.2496
 3235W        W 5435  17.568   0.302  15.233 -0.1137  0.2008 -0.0009
 3236W        W 5436   6.528   7.795  18.382  0.0354  0.0299  0.2344
 3237W        W 5437  15.728   6.544  26.720  0.2771 -0.1069 -0.0354
 3238W        W 5438  10.091   6.800   7.314 -0.0158  0.1447  0.2038
 3239W        W 5439   3.580   5.542   0.998  0.1300 -0.0036 -0.0805
 3240W        W 5440  19.696   0.532  29.093 -0.0958  0.0722  0.0467
 3241W        W 5441   1.701   1.922   6.268  0.2607 -0.1702  0.0263
 3242W        W 5442   2.716   3.457   7.881  0.0935  0.1455 -0.0507
 3243W        W 5443   9.601   6.513   7.347  0.0876 -0.0450  0.1188
 3244W        W 5444   2.751   3.270  28.269 -0.1563 -0.0916  0.0158
 3245W        W 5445  11.301   3.170  27.523 -0.0724  0.4978 -0.2153
 3246W        W 5446  10.698   4.857  17.435  0.1073 -0.1947 -0.0924
 3247W        W 5447  12.279   6.447  29.819  0.4567  0.2539 -0.0420
 3248W        W 5448  20.420   1.622  16.153 -0.2035 -0.0118 -0.1072
 3249W        W 5449  13.759   1.704  26.010  0.0120 -0.0231 -0.0442
 3250W        W 5450  18.318   0.615  30.528  0.0725  0.3047 -0.0640
 3251W        W 5451  15.215   6.164  11.823 -0.0691  0.0944 -0.1170
 3252W        W 5452   3.916   5.580  23.105  0.2316 -0.2603 -0.2139
 3253W        W 5453  13.910   1.060   5.902 -0.0400 -0.0772 -0.1005
 3254W        W 5454   0.497   2.506  28.724  0.0041 -0.2305  0.0163
 3255W        W 5455  15.895   4.220  28.336  0.0290  0.0309 -0.0082
 3256W        W 5456  18.151   3.571  26.641 -0.0945  0.0738 -0.2679
 3257W        W 5457  17.170   2.917  15.807 -0.2552 -0.0003  0.1080
 3258W        W 5458   5.714   4.973  30.289 -0.0418  0.4507 -0.0204
 3259W        W 5459  12.404   4.420  20.156  0.0190  0.1749 -0.0079
 3260W        W 5460  18.680   5.535   7.149 -0.1955  0.4282  0.0051
 3261W        W 5461   3.579   6.470   5.767 -0.3958 -0.2683  0.0376
 3262W        W 5462   8.707   6.638  14.647  0.0477  0.1954 -0.1869
 3263W        W 5463  10.488   7.549  30.884 -0.1761  0.3613 -0.0109
 3264W        W 5464   1.595   6.421  31.907  0.1325 -0.3114 -0.0980
 3265W        W 5465  10.640   7.105   0.327 -0.0855 -0.3418  0.0321
 3266W        W 5466   6.424   1.611  19.827 -0.0540  0.1236  0.1187
 3267W        W 5467  10.714   5.456  27.044  0.1539  0.0237 -0.1194
 3268W        W 5468  10.167   4.534  31.539 -0.3574  0.1310 -0.1350
 3269W        W 5469   8.845   2.104   6.812 -0.0989 -0.1318 -0.2277
 3270W        W 5470   9.733   2.417   5.681 -0.0436 -0.0961 -0.1322
 3271W        W 5471   4.429   1.103   0.399  0.0173 -0.1034  0.4443
 3272W        W 5472  23.791   5.954  26.843 -0.0814  0.1517  0.1528
 3273W        W 5473  24.550   1.555  28.198 -0.0407  0.0896  0.2690
 3274W        W 5474  18.569   3.707   2.586 -0.1295  0.1375 -0.3620
 3275W        W 5475  21.315   5.365   2.362  0.0791  0.0540 -0.0165
 3276W        W 5476  14.206   7.047   0.731 -0.0573  0.1708  0.1211
 3277W        W 5477   6.738   5.772  16.902 -0.0027  0.0141  0.1929
 3278W        W 5478  17.613   3.471   4.023 -0.3872  0.0648 -0.0575
 3279W        W 5479  11.405   7.480  29.403 -0.1099 -0.3485  0.0484
 3280W        W 5480  11.758   7.580  21.866  0.1090 -0.0549  0.1813
 3281W        W 5481  13.228   7.306   8.350 -0.0027  0.4040  0.2796
 3282W        W 5482   6.247   5.679   4.966  0.0075 -0.4778  0.2339
 3283W        W 5483   4.035   0.700  20.715  0.1334  0.0944  0.0807
 3284W        W 5484  23.673   3.084  28.525 -0.0830 -0.1398 -0.2416
 3285W        W 5485  16.597   4.259  10.215  0.0215 -0.1229 -0.1090
 3286W        W 5486   2.177   4.542   6.667  0.3838  0.0870 -0.1909
 3287W        W 5487  17.088   5.289  21.900  0.0267 -0.0489  0.2924
 3288W        W 5488   1.234   3.547   2.739  0.0376 -0.2464  0.2164
 3289W        W 5489  24.484   1.594  25.604  0.0484 -0.0381  0.0727
 3290W        W 5490  24.460   0.881  28.186 -0.0285  0.2813 -0.0492
 3291W        W 5491   1.548   6.762  27.479 -0.0540 -0.1922 -0.0549
 3292W        W 5492   1.393   7.054  24.375 -0.2231 -0.1497  0.1203
 3293W        W 5493  18.471   2.471  24.419 -0.2177 -0.0913  0.0642
 3294W        W 5494   9.386   3.969  28.804  0.0212 -0.2761 -0.1857
 3295W        W 5495  18.001   6.259  18.099 -0.2003 -0.1481  0.3618
 3296W        W 5496   0.847   2.948   3.607  0.0326 -0.3591  0.0829
 3297W        W 5497   6.397   0.269  20.091  0.1877  0.0874  0.0684
 3298W        W 5498   7.955   7.372   9.000 -0.1388  0.0745  0.0211
 3299W        W 5499   4.708   7.848   9.237  0.0596  0.3039 -0.0598
 3300W        W 5500   7.724   6.227  31.666 -0.0623  0.0015  0.0817
 3301W        W 5501  22.210   1.494   1.041 -0.1028  0.0589 -0.0679
 3302W        W 5502  17.424   7.629  11.108  0.1265 -0.0252 -0.1594
 3303W        W 5503  21.673   1.968   4.094 -0.0255  0.0127  0.0172
 3304W        W 5504  17.428   0.764  15.439  0.0459 -0.1738  0.2162
 3305W        W 5505  20.237   1.551  28.157 -0.0816 -0.0372  0.2461
 3306W        W 5506  10.766   2.576  27.011 -0.0452  0.0543  0.0807
 3307W        W 5507  24.563   3.102  22.865 -0.1676  0.1216 -0.0786
 3308W        W 5508  17.285   7.860   0.308  0.0246 -0.2270  0.3417
 3309W        W 5509   9.347   6.085   0.452 -0.0095  0.0788  0.3114
 3310W        W 5510  15.346   6.706  23.245  0.0091 -0.2502  0.0363
 3311W        W 5511  20.363   2.386   0.099 -0.0356 -0.0125  0.0891
 3312W        W 5512   7.884   6.144  18.801 -0.0239 -0.0918  0.1596
 3313W        W 5513  21.427   4.520   3.394  0.1055  0.0917  0.0223
 3314W        W 5514  14.560   6.690  24.189 -0.1756 -0.1545  0.1013
 3315W        W 5515   2.499   1.567   3.370  0.2185  0.2896 -0.1272
 3316W        W 5516   7.106   4.925  14.835 -0.1109  0.0097  0.0996
 3317W        W 5517   4.599   5.831  29.198 -0.0016 -0.0838 -0.0205
 3318W        W 5518  14.796   7.312   1.420  0.2330 -0.1390  0.2134
 3319W        W 5519   6.639   7.607  31.903  0.2632  0.2563 -0.0969
 3320W        W 5520   9.510   4.143   2.023 -0.0084  0.2669 -0.0755
 3321W        W 5521  21.045   6.018  30.365  0.1554 -0.0089 -0.2466
 3322W        W 5522  11.795   3.341   2.658 -0.0337 -0.0795  0.0561
 3323W        W 5523   4.552   0.788  15.707  0.1064  0.0418 -0.0208
 3324W        W 5524   8.589   4.980  30.694 -0.0254  0.0595 -0.1980
 3325W        W 5525  24.829   6.524   1.530 -0.0319 -0.1441 -0.2795
 3326W        W 5526   1.252   1.436  27.144 -0.0094  0.0134 -0.2085
 3327W        W 5527   0.764   7.639  21.583 -0.1878  0.2755 -0.0869
 3328W        W 5528  13.974   5.909   7.572  0.1564  0.0906 -0.0741
 3329W        W 5529   6.713   3.109  31.769  0.0090 -0.0884 -0.0118
 3330W        W 5530   7.970   6.961  17.754 -0.0536 -0.1319 -0.2628
 3331W        W 5531  11.253   5.250  20.522 -0.1033  0.0793  0.1804
 3332W        W 5532   3.812   1.061  17.384 -0.0057  0.0508 -0.0817
 3333W        W 5533   4.390   0.767   4.317 -0.0192  0.0759  0.0647
 3334W        W 5534  18.099   4.418  11.679 -0.0254  0.0859 -0.0946
 3335W        W 5535   6.821   3.557   8.517 -0.2790  0.0417  0.1521
 3336W        W 5536  20.237   6.927  16.001 -0.1108  0.0523 -0.1740
 3337W        W 5537  19.434   7.219   6.002 -0.0005  0.0269  0.1379
 3338W        W 5538  10.013   5.557  26.096 -0.3593 -0.2775  0.3285
 3339W        W 5539  15.097   0.111  11.658  0.0561  0.1791 -0.2043
 3340W        W 5540  11.040   0.782  16.957 -0.2687  0.1860 -0.0761
 3341W        W 5541   0.629   0.473  24.849  0.3240  0.1162  0.2680
 3342W        W 5542  10.314   4.699  29.785  0.0462  0.1374 -0.0145
 3343W        W 5543   0.656   4.178  31.601 -0.0221  0.1515 -0.0064
 3344W        W 5544  19.974   3.904  13.185 -0.2276  0.2311  0.1562
 3345W        W 5545   9.487   1.527  31.598 -0.0450  0.1188 -0.0830
 3346W        W 5546  21.677   7.172  24.123  0.1000 -0.3339 -0.2055
 3347W        W 5547   6.214   4.979  23.862  0.0270  0.2074 -0.0470
 3348W        W 5548  14.207   4.463  11.207 -0.1788  0.3407  0.1327
 3349W        W 5549  19.312   5.774   0.157 -0.1617 -0.1189  0.0219
 3350W        W 5550  23.128   4.948  25.272 -0.0290  0.1049  0.1332
 3351W        W 5551   8.744   5.399   5.388  0.0151 -0.1121  0.2984
 3352W        W 5552  13.190   3.990   8.466  0.2178  0.4172  0.1757
 3353W        W 5553  13.727   5.078   5.892  0.1652 -0.2567  0.1865
 3354W        W 5554   5.896   0.117   1.688 -0.2207  0.0367  0.3211
 3355W        W 5555   8.835   7.671   7.003 -0.2066  0.1068 -0.1747
 3356W        W 5556  21.496   7.059  12.093 -0.0575 -0.0318 -0.0230
 3357W        W 5557   0.198   7.510  10.114 -0.0032 -0.0999 -0.1088
 3358W        W 5558  18.897   1.242  23.366 -0.0759  0.1057  0.0809
 3359W        W 5559  22.163   7.824  10.825 -0.4171  0.1252  0.0328
 3360W        W 5560  11.040   6.081   4.962  0.4395 -0.1894 -0.0691
 3361W        W 5561  13.818   1.182  29.135 -0.0160 -0.0054  0.0911
 3362W        W 5562  19.385   0.126   9.773  0.1146  0.0071 -0.1946
 3363W        W 5563   2.492   0.079  32.150 -0.1566 -0.0604  0.2161
 3364W        W 5564  18.981   7.556   0.171  0.0216  0.3183  0.1801
 3365W        W 5565  24.770   1.655  30.424 -0.2189  0.2246 -0.1763
 3366W        W 5566   2.326   3.309  20.498 -0.1618  0.4044 -0.1042
 3367W        W 5567  11.307   6.918  30.735 -0.1423  0.1126 -0.0130
 3368W        W 5568  24.049   3.261  23.782 -0.2164  0.1716  0.1596
 3369W        W 5569  16.228   2.573   7.771  0.1401 -0.1405  0.1873
 3370W        W 5570   5.917   2.456  27.095  0.2248  0.0429  0.1695
 3371W        W 5571  16.059   1.498  13.960 -0.0043  0.1550  0.0026
 3372W        W 5572  11.507   0.176  28.561  0.3954  0.0249 -0.1563
 3373W        W 5573   5.466   4.785  32.262  0.0532  0.1893  0.0331
 3374W        W 5574  11.804   7.134   9.007 -0.0265  0.0058  0.0835
 3375W        W 5575  12.104   1.641  31.165  0.0590  0.0747 -0.1689
 3376W        W 5576  17.805   5.501   8.630 -0.1843  0.1544  0.2627
 3377W        W 5577  20.783   1.243  31.405  0.2095  0.0314 -0.1742
 3378W        W 5578   9.415   1.926  29.943 -0.1149 -0.2951  0.2990
 3379W        W 5579  14.621   6.339   0.959 -0.2952  0.0408 -0.3787
 3380W        W 5580  22.174   3.042  11.759 -0.0795 -0.0203  0.0477
 3381W        W 5581  10.517   4.137  26.411  0.1827 -0.4500  0.1235
 3382W        W 5582   8.907   3.416   9.862 -0.1355 -0.0808 -0.0812
 3383W        W 5583  21.554   6.475  16.728 -0.0103  0.0739  0.3083
 3384W        W 5584  14.821   3.237   1.047 -0.0702  0.1872 -0.0071
 3385W        W 5585   6.095   3.257  27.169  0.1062 -0.2213  0.2781
 3386W        W 5586  12.819   7.825  29.409  0.1011  0.2412 -0.2551
 3387W        W 5587   2.183   1.032  31.284 -0.1093  0.0458  0.1974
 3388W        W 5588   1.641   5.766   8.633 -0.0482  0.2138  0.0463
 3389W        W 5589   7.564   5.116  18.579 -0.0014  0.1935 -0.0390
 3390W        W 5590  20.695   4.956  31.944  0.1696  0.1777  0.1125
 3391W        W 5591  17.585   4.368  29.262  0.3292  0.1322 -0.1103
 3392W        W 5592   5.597   6.852   3.833  0.2047 -0.0157  0.0178
 3393W        W 5593  15.949   1.079   9.913 -0.0674  0.2265 -0.2166
 3394W        W 5594  19.669   1.813   8.130  0.1549 -0.0328  0.0616
 3395W        W 5595  17.119   1.138  30.614  0.1909 -0.2008 -0.1453
 3396W        W 5596   8.899   1.523   6.189  0.2091 -0.1867  0.2401
 3397W        W 5597  15.313   2.485   5.683  0.1847 -0.1852  0.2419
 3398W        W 5598  10.076   2.199   8.473  0.3524 -0.1519 -0.1803
 3399W        W 5599   2.197   4.902  27.732 -0.3153 -0.2271 -0.1163
 3400W        W 5600  23.707   4.540  26.048 -0.0674  0.0569 -0.0279
 3401W        W 5601   4.380   7.447   6.113  0.0886  0.0396  0.0324
 3402W        W 5602  17.266   1.083  24.558 -0.0065 -0.1929 -0.1889
 3403W        W 5603   8.263   0.518  31.630  0.3164  0.2775 -0.1447
 3404W        W 5604  15.429   7.516   9.145 -0.0275 -0.1331 -0.1576
 3405W        W 5605   4.913   3.424   6.432  0.1428 -0.6244  0.0248
 3406W        W 5606   1.428   3.860  12.224  0.0604  0.1491 -0.4018
 3407W        W 5607  17.219   1.582   3.447  0.0315 -0.1386  0.1893
 3408W        W 5608  24.390   1.368   4.351  0.1349  0.0885  0.2248
 3409W        W 5609  11.364   5.830  24.064  0.0816 -0.0330  0.3239
 3410W        W 5610  14.137   4.891  22.969 -0.2014 -0.0125  0.1530
 3411W        W 5611   4.452   3.873  20.545  0.0662  0.0656  0.0585
 3412W        W 5612  14.518   0.829  29.117 -0.0247  0.1656 -0.1140
 3413W        W 5613  17.336   3.889  25.093 -0.1998 -0.2116 -0.0687
 3414W        W 5614   6.319   5.389   2.443  0.1867 -0.3359  0.0097
 3415W        W 5615  15.280   5.714  29.140 -0.3666 -0.3167  0.3146
 3416W        W 5616  20.911   2.188  27.190  0.0930 -0.0163  0.1440
 3417W        W 5617  15.386   3.425   4.281 -0.2875 -0.1324  0.0580
 3418W        W 5618  21.001   1.962   6.095  0.1630 -0.4545 -0.0442
 3419W        W 5619   6.041   2.533  19.769  0.1278 -0.1844 -0.6092
 3420W        W 5620  21.841   7.238  28.567 -0.2468  0.0152  0.1688
 3421W        W 5621   9.914   2.191  25.277 -0.1226 -0.1559 -0.0333
 3422W        W 5622  23.105   2.052  31.398 -0.3174 -0.0172  0.0463
 3423W        W 5623  19.325   1.516  26.176  0.0774 -0.0058 -0.0705
 3424W        W 5624   8.172   1.303  23.658  0.1340  0.0226 -0.2089
 3425W        W 5625  16.090   2.984  10.311  0.1484  0.1534 -0.2115
 3426W        W 5626  15.986   7.308   2.186  0.3192 -0.1615  0.1090
 3427W        W 5627   8.195   0.580  24.241  0.1965  0.3198 -0.0628
 3428W        W 5628  11.849   6.838  31.970 -0.1631 -0.3922 -0.0515
 3429W        W 5629   8.951   3.710  15.142 -0.2878  0.0564  0.2604
 3430W        W 5630   5.716   1.867  15.742  0.1848 -0.1902 -0.1426
 3431W        W 5631   7.512   7.650  15.614 -0.0421  0.0564  0.1273
 3432W        W 5632  22.529   6.723  28.385  0.0481  0.0468 -0.2393
 3433W        W 5633   1.218   7.715  27.652  0.2554 -0.0700 -0.0362
 3434W        W 5634  20.707   4.649  29.896  0.2278 -0.0939  0.1313
 3435W        W 5635   7.801   0.739  20.537 -0.2724 -0.1052 -0.0510
 3436W        W 5636  11.842   2.544  23.128  0.2443 -0.2049 -0.0232
 3437W        W 5637  17.560   4.942   7.200 -0.1008  0.0718 -0.1336
 3438W        W 5638  24.493   3.170   7.757 -0.0190 -0.0374 -0.1112
 3439W        W 5639   9.527   4.842  17.129 -0.0638 -0.1029  0.0490
 3440W        W 5640   5.473   5.526  27.811 -0.3367 -0.1657 -0.1231
 3441W        W 5641   9.659   0.790  22.212 -0.1534 -0.0662  0.2951
 3442W        W 5642  16.818   3.062   6.069 -0.2541 -0.1262  0.0642
 3443W        W 5643  18.361   5.907   1.201 -0.0398  0.1642 -0.1639
 3444W        W 5644  19.294   3.980  23.389 -0.0469  0.0372 -0.0197
 3445W        W 5645   3.650   4.829  31.218 -0.1286  0.1297  0.0234
 3446W        W 5646  15.264   7.026   2.780  0.4644 -0.2464  0.0702
 3447W        W 5647   7.925   5.729  30.297  0.1697  0.1229 -0.1948
 3448W        W 5648  11.985   1.491   5.272  0.1552  0.1892 -0.1013
 3449W        W 5649  13.152   1.797   5.206  0.0946  0.2874 -0.1803
 3450W        W 5650   5.116   7.472  18.385 -0.1580  0.0665  0.0077
 3451W        W 5651  19.780   3.675   0.478  0.0652 -0.0022 -0.0785
 3452W        W 5652   9.389   5.623  17.755  0.0723 -0.0037  0.1003
 3453W        W 5653  14.333   6.375   5.980  0.0047  0.0367  0.1905
 3454W        W 5654  20.549   7.658  18.322 -0.0945 -0.1312 -0.0803
 3455W        W 5655  16.434   3.715  12.868 -0.1380 -0.1657 -0.1624
 3456W        W 5656  10.434   3.424   4.586 -0.0263 -0.0371  0.1091
 3457W        W 5657   7.845   0.200  26.623 -0.0858  0.0690  0.2034
 3458W        W 5658   5.761   0.677   3.303 -0.3507  0.2734  0.0326
 3459W        W 5659   4.477   4.638  25.387  0.3450  0.1538  0.0865
 3460W        W 5660   6.183   0.025  25.992 -0.0853  0.3508 -0.0408
 3461W        W 5661   9.294   5.305  15.253  0.0729 -0.4323  0.2362
 3462W        W 5662  10.365   1.232  16.843 -0.1572  0.1842 -0.2408
 3463W        W 5663  24.566   2.395  22.485  0.1597  0.2608  0.2260
 3464W        W 5664   9.535   2.713  28.669 -0.2292 -0.0998 -0.2372
 3465W        W 5665  13.312   7.146  24.581 -0.2106 -0.2463  0.3614
 3466W        W 5666  17.719   1.033  24.308 -0.0137  0.0399  0.1074
 3467W        W 5667  18.113   3.411   3.465 -0.1246  0.1842  0.1836
 3468W        W 5668  24.953   3.361  27.809 -0.3502  0.2132 -0.0903
 3469W        W 5669   7.749   4.154  29.498  0.3623  0.1390  0.1027
 3470W        W 5670  12.215   6.284  23.253 -0.1376 -0.2234  0.1445
 3471W        W 5671   4.351   4.372  24.458 -0.0426  0.2210  0.0154
 3472W        W 5672  16.868   3.890  30.276  0.2558 -0.2753 -0.0797
 3473W        W 5673  19.715   1.481  22.694  0.1714 -0.0870  0.1247
 3474W        W 5674  20.176   1.979  13.625  0.1588  0.2631  0.0268
 3475W        W 5675   9.003   6.432   0.275  0.0539  0.0112  0.1401
 3476W        W 5676  10.238   6.585   3.799  0.2014  0.0137 -0.0012
 3477W        W 5677  10.870   6.968  19.646  0.0671  0.6662  0.0665
 3478W        W 5678  18.883   3.383   0.107  0.0898 -0.3148  0.0026
 3479W        W 5679   6.053   6.862  26.946 -0.1234  0.1394 -0.0459
 3480W        W 5680  18.117   3.155   0.828  0.1216 -0.1790  0.1977
 3481W        W 5681  11.884   0.210  26.822 -0.0699  0.2231 -0.1004
 3482W        W 5682  22.342   0.218   5.365  0.3061  0.2137  0.0896
 3483W        W 5683  15.276   6.479  29.406  0.1321  0.0173  0.0630
 3484W        W 5684  10.716   4.540   0.517  0.2587  0.1597  0.1715
 3485W        W 5685  13.521   3.692  12.608  0.0321  0.1040  0.3425
 3486W        W 5686  22.334   4.132  28.734 -0.3038  0.1476 -0.0156
 3487W        W 5687  24.254   0.531  28.652  0.0151 -0.1812 -0.1608
 3488W        W 5688   8.949   4.021  21.004 -0.0580  0.0957  0.1065
 3489W        W 5689  24.710   5.512   9.014  0.4554  0.0199 -0.0068
 3490W        W 5690  24.016   4.843  30.387 -0.1569  0.0720 -0.1527
 3491W        W 5691  22.481   7.764  28.878 -0.1111  0.1581 -0.2081
 3492W        W 5692  21.070   6.308  14.409 -0.0636 -0.1651  0.4120
 3493W        W 5693   7.404   6.673  31.736  0.0664  0.1445  0.2934
 3494W        W 5694  15.174   7.807  23.727 -0.3338  0.2558 -0.1565
 3495W        W 5695  21.714   4.718   0.917 -0.1100  0.0775 -0.2327
 3496W        W 5696   0.303   5.057   5.390  0.3324 -0.3904 -0.1674
 3497W        W 5697  11.890   5.816   6.220  0.2211 -0.0679 -0.0916
 3498W        W 5698  23.318   2.073  25.098 -0.2042  0.3473 -0.0457
 3499W        W 5699  25.135   1.934   8.252  0.0065 -0.0269 -0.1483
 3500W        W 5700  10.207   0.525   0.844  0.0704  0.0038 -0.1573
 3501W        W 5701  17.775   1.460  13.533  0.0534 -0.3090 -0.2410
 3502W        W 5702  12.473   3.471  23.974 -0.1949 -0.2642 -0.1473
 3503W        W 5703  21.452   1.344  29.211 -0.0773  0.0219  0.1411
 3504W        W 5704  22.740   6.261   8.777 -0.2022  0.0697  0.0477
 3505W        W 5705   3.927   6.219  23.646 -0.1238 -0.0190 -0.0310
 3506W        W 5706  12.712   4.302  22.492 -0.1092 -0.0174  0.0166
 3507W        W 5707  15.118   4.380  10.639 -0.0190 -0.0526 -0.1585
 3508W        W 5708   9.308   5.400  23.525 -0.2620  0.2204  0.2873
 3509W        W 5709   7.162   6.910   9.973 -0.1225  0.1610 -0.1486
 3510W        W 5710  19.597   1.038  10.915  0.0177 -0.0163  0.0461
 3511W        W 5711  15.415   6.306   2.223 -0.0658  0.0321 -0.1107
 3512W        W 5712   3.015   5.461  10.382 -0.2493  0.0928 -0.1558
 3513W        W 5713  17.496   6.809  15.263  0.1353  0.2272 -0.2643
 3514W        W 5714  15.730   0.219  27.343 -0.4250 -0.1122 -0.1148
 3515W        W 5715  23.968   3.093   5.090  0.1554 -0.1022  0.0864
 3516W        W 5716   5.434   0.405  22.300 -0.1083  0.4352 -0.1603
 3517W        W 5717   8.263   4.047   1.484 -0.0735  0.2646  0.0952
 3518W        W 5718  17.968   4.428  22.241 -0.0385 -0.0224  0.0897
 3519W        W 5719  18.398   3.866   5.202  0.0513  0.1355 -0.2569
 3520W        W 5720   5.643   2.097  21.900  0.1761  0.0258 -0.0250
 3521W        W 5721  21.310   4.081  24.642  0.3063 -0.3107 -0.3048
 3522W        W 5722  21.318   4.453   7.124 -0.2686 -0.2754 -0.0864
 3523W        W 5723  19.002   3.502  26.124 -0.1317 -0.1844  0.1670
 3524W        W 5724   6.407   7.673  19.916  0.2569 -0.0587  0.0389
 3525W        W 5725   0.935   6.892   5.434  0.1679  0.0382 -0.3461
 3526W        W 5726  12.589   1.270  10.792  0.0692 -0.2313  0.0869
 3527W        W 5727   3.632   2.553  24.755  0.1395  0.2091 -0.0460
 3528W        W 5728  16.342   4.495  16.500  0.1502  0.1991  0.1974
 3529W        W 5729  10.737   1.930  11.163  0.0952 -0.0670 -0.1954
 3530W        W 5730  22.004   5.575  21.895 -0.1648 -0.2715  0.0171
 3531W        W 5731  22.136   0.301   3.970 -0.0573  0.1955  0.0614
 3532W        W 5732  10.567   5.925  24.351 -0.0328  0.1904  0.0211
 3533W        W 5733   1.736   7.476  18.283 -0.1421 -0.2240 -0.3247
 3534W        W 5734   9.987   1.506   4.554  0.0205  0.0600  0.1411
 3535W        W 5735   0.342   3.421  27.664  0.1183  0.1295  0.2877
 3536W        W 5736   1.975   6.610  32.255  0.0625  0.1014 -0.1021
 3537W        W 5737  20.428   4.644   7.897  0.3510  0.0493  0.0924
 3538W        W 5738  18.045   0.987   3.446 -0.1037  0.0764 -0.0769
 3539W        W 5739   6.773   3.957   2.991 -0.1408 -0.0122  0.1544
 3540W        W 5740   8.695   2.489  26.616 -0.1007  0.2141 -0.0237
 3541W        W 5741  18.602   3.441   0.538  0.3273 -0.0690 -0.0062
 3542W        W 5742  10.771   3.849  32.084  0.0066  0.1002 -0.2238
 3543W        W 5743  23.292   3.102   3.940 -0.2182  0.1781  0.0582
 3544W        W 5744  24.017   7.746  23.892 -0.0800  0.0568  0.0042
 3545W        W 5745  11.680   5.315   4.138 -0.2182 -0.1144  0.3055
 3546W        W 5746  12.866   1.752  27.259 -0.1270  0.0005 -0.1351
 3547W        W 5747  18.703   3.847   7.649 -0.0269 -0.0222 -0.2441
 3548W        W 5748  15.363   3.428   6.171  0.0165 -0.0899 -0.0880
 3549W        W 5749  17.685   2.281  13.149  0.1063  0.1240  0.2532
 3550W        W 5750  21.882   1.224  23.217  0.1204  0.0715 -0.1000
 3551W        W 5751   6.623   1.256  20.235 -0.3002 -0.1594 -0.1208
 3552W        W 5752  11.117   7.396  28.094 -0.2161 -0.4027 -0.1036
 3553W        W 5753  16.235   7.095   3.120  0.1497 -0.0392 -0.1574
 3554W        W 5754   6.908   2.713  19.509 -0.0326 -0.1353 -0.0607
 3555W        W 5755  20.834   3.355  10.343  0.1059 -0.5361 -0.0060
 3556W        W 5756  15.065   3.302   8.746 -0.1293  0.0591 -0.1228
 3557W        W 5757   6.615   2.253  24.602 -0.0343  0.1184 -0.0661
 3558W        W 5758  14.222   6.061  31.766 -0.1446  0.2167 -0.0911
 3559W        W 5759  18.023   1.577  24.339  0.0924 -0.0221  0.0816
 3560W        W 5760  19.449   5.477  32.167  0.1160 -0.1234 -0.0117
 3561W        W 5761  18.731   2.415  11.746 -0.0178  0.0790  0.0476
 3562W        W 5762   4.081   2.030  21.215 -0.2719  0.1044 -0.1503
 3563W        W 5763  11.403   6.052  21.579 -0.0190  0.0651  0.0589
 3564W        W 5764  19.005   2.526  13.862  0.0772  0.3964 -0.0468
 3565W        W 5765   9.106   2.530   2.640  0.0681 -0.0022 -0.0827
 3566W        W 5766  18.417   2.197   8.647 -0.0224  0.0844  0.1873
 3567W        W 5767  18.985   6.767   1.241  0.2026  0.1248  0.1028
 3568W        W 5768  14.399   7.395  23.968  0.0818 -0.1565 -0.1460
 3569W        W 5769   3.345   3.266  19.786 -0.1704  0.0722 -0.2809
 3570W        W 5770   3.902   4.770  19.426 -0.1212 -0.1499  0.1342
 3571W        W 5771  20.310   1.589   3.700  0.1306  0.0802  0.3890
 3572W        W 5772  17.652   3.296   8.406  0.0118 -0.1220 -0.2064
 3573W        W 5773   6.362   5.692   5.756 -0.1004 -0.0481 -0.1383
 3574W        W 5774  14.336   7.431  30.216 -0.3496 -0.1567  0.2386
 3575W        W 5775   6.294   3.508  23.716  0.1753  0.2571 -0.0016
 3576W        W 5776   2.397   4.430  23.468 -0.0399  0.1111 -0.0003
 3577W        W 5777  16.990   6.353   0.469 -0.0117 -0.0361 -0.1191
 3578W        W 5778   1.315   7.440  25.055  0.1424  0.0650  0.0281
 3579W        W 5779  13.221   3.283  23.337  0.1379 -0.0050 -0.1336
 3580W        W 5780  22.987   7.688  28.646  0.1497  0.1306 -0.1341
 3581W        W 5781  24.667   1.882  27.123  0.1713  0.1051  0.0772
 3582W        W 5782  21.964   5.893  14.174 -0.0661 -0.3145 -0.0223
 3583W        W 5783  21.474   1.160   3.396 -0.2747 -0.2467  0.2334
 3584W        W 5784  12.189   5.875   5.806 -0.1094  0.0005  0.0846
 3585W        W 5785   7.453   6.453  27.531 -0.1506 -0.2026 -0.5070
 3586W        W 5786  17.369   4.003  15.006 -0.0738  0.1829  0.3035
 3587W        W 5787  23.087   3.975  30.821  0.0822 -0.1018  0.2849
 3588W        W 5788  22.569   6.230  32.194  0.1190  0.0703 -0.0547
 3589W        W 5789  13.915   7.405  27.094 -0.0012 -0.2130  0.0417
 3590W        W 5790  14.726   3.468   1.969 -0.1267  0.1834  0.2315
 3591W        W 5791  18.076   5.507  27.627  0.0351  0.1038 -0.2033
 3592W        W 5792   3.004   1.950   5.984  0.0292 -0.0764 -0.0696
 3593W        W 5793   0.278   0.030   0.439 -0.0545  0.2280 -0.3111
 3594W        W 5794  16.536   3.319   9.350  0.1828 -0.1762 -0.1763
 3595W        W 5795  12.405   5.962  30.057  0.1252 -0.2411 -0.1416
 3596W        W 5796   6.207   2.095  16.888 -0.1195 -0.0452 -0.4137
 3597W        W 5797   8.035   5.864  21.227 -0.2681 -0.1821  0.0498
 3598W        W 5798  19.465   3.189  16.120  0.0830  0.0155  0.2141
 3599W        W 5799   8.407   3.876  26.701  0.0801  0.2087  0.1352
 3600W        W 5800   2.878   0.019  27.614 -0.0421  0.0835 -0.1810
 3601W        W 5801  10.460   4.077  27.869 -0.2173  0.1881  0.2536
 3602W        W 5802   5.382   3.852  21.019  0.2229  0.0893  0.0674
 3603W        W 5803  11.432   1.258  24.563  0.0205  0.0032 -0.2522
 3604W        W 5804  20.925   5.973   4.170 -0.1748  0.1860  0.0177
 3605W        W 5805   5.576   0.139  32.369  0.1348 -0.1071  0.1519
 3606W        W 5806   6.400   1.967  31.648 -0.0459 -0.0066  0.2056
 3607W        W 5807   9.031   4.505  15.877  0.2331  0.2986 -0.3607
 3608W        W 5808   8.710   2.084  29.637  0.1982 -0.1215  0.2631
 3609W        W 5809  21.156   0.462  13.058 -0.0436  0.0847  0.2238
 3610W        W 5810   5.220   0.592  32.536  0.0439  0.0074  0.0569
 3611W        W 5811   9.826   5.035  20.292 -0.1717  0.0752  0.0232
 3612W        W 5812   2.107   3.654  10.307  0.1171 -0.0032 -0.1057
 3613W        W 5813   3.437   4.846  20.297 -0.0130 -0.0174 -0.1019
 3614W        W 5814   9.001   5.090   8.212 -0.0345 -0.1956 -0.1155
 3615W        W 5815  23.830   3.059  31.531  0.2202  0.0077  0.1001
 3616W        W 5816  23.844   3.650  11.876  0.2057 -0.4687 -0.0769
 3617W        W 5817  16.917   2.175  31.418 -0.0899 -0.0185 -0.0396
 3618W        W 5818  16.017   6.024   2.003 -0.1587 -0.2839 -0.2748
 3619W        W 5819   8.887   2.476  15.229  0.3841 -0.0713 -0.2358
 3620W        W 5820   3.805   6.754  16.757  0.0095 -0.1505 -0.0029
 3621W        W 5821   7.625   4.722  15.969  0.1401 -0.3042  0.2219
 3622W        W 5822   3.079   4.435   3.624  0.1183  0.0943 -0.3379
 3623W        W 5823   8.829   2.845  14.956  0.1160  0.1146 -0.0923
 3624W        W 5824   5.152   6.210   7.370 -0.1489 -0.0442  0.0290
 3625W        W 5825   4.953   5.879  31.021  0.0963  0.0282 -0.0480
 3626W        W 5826  14.367   1.051   6.347  0.1563 -0.1488  0.2322
 3627W        W 5827  23.418   0.273  22.505  0.2621 -0.1808  0.0094
 3628W        W 5828   1.081   1.548   3.318 -0.0803  0.0381  0.2266
 3629W        W 5829   3.008   3.610  28.977 -0.3007  0.0311 -0.1066
 3630W        W 5830  21.257   6.406   5.504  0.1120 -0.0241 -0.2176
 3631W        W 5831  12.877   6.898  22.504  0.1786 -0.0878 -0.1072
 3632W        W 5832  10.029   0.924   2.852 -0.4624  0.3464 -0.0178
 3633W        W 5833  19.637   5.600   4.252 -0.2404 -0.0449  0.1680
 3634W        W 5834  23.855   3.678  21.703 -0.2088  0.0893 -0.0967
 3635W        W 5835  12.625   6.731  20.527  0.2688 -0.0312  0.0029
 3636W        W 5836  19.124   7.078   5.615  0.1678 -0.2230 -0.1006
 3637W        W 5837  20.722   2.601  25.360  0.3120 -0.0927 -0.1418
 3638W        W 5838  22.059   6.856  28.791  0.3936 -0.1564 -0.4036
 3639W        W 5839  16.762   7.675   0.212  0.1487 -0.0483  0.1001
 3640W        W 5840   5.437   4.060  29.348  0.0607  0.0074  0.2183
 3641W        W 5841   1.183   7.738   4.348 -0.2592 -0.1218  0.2321
 3642W        W 5842  11.857   6.702  29.923  0.1841  0.1261 -0.1612
 3643W        W 5843   4.735   0.629  32.212  0.0020 -0.1289  0.1470
 3644W        W 5844  12.037   2.992   2.952 -0.1614 -0.1459  0.1220
 3645W        W 5845  10.083   4.492  21.918 -0.0056 -0.0964 -0.2227
 3646W        W 5846   6.182   4.839   8.821  0.1082  0.2975 -0.1657
 3647W        W 5847  20.478   4.211   8.989  0.2557  0.0588 -0.1723
 3648W        W 5848  14.030   4.387  27.439  0.1081  0.1611  0.0855
 3649W        W 5849  13.983   2.802  26.267 -0.2461 -0.2376  0.4292
 3650W        W 5850  22.237   3.045  22.256  0.3115 -0.1829 -0.3201
 3651W        W 5851  16.738   2.589   4.875 -0.1169 -0.2060  0.1843
 3652W        W 5852   4.330   4.056  16.509 -0.1588 -0.1514 -0.0906
 3653W        W 5853  12.787   4.633   9.599  0.1714 -0.1049 -0.3219
 3654W        W 5854  19.476   4.160  10.739 -0.3029  0.0720  0.0331
 3655W        W 5855  12.709   1.329  29.608  0.2174  0.1355  0.2328
 3656W        W 5856   9.252   0.001  25.384  0.0400 -0.1486  0.2773
 3657W        W 5857  17.463   5.412  31.603 -0.0614  0.0007  0.1156
 3658W        W 5858   5.803   0.689   2.037 -0.0152  0.0997  0.1404
 3659W        W 5859  15.083   3.830  31.978  0.0858 -0.4313  0.2392
 3660W        W 5860   6.517   3.338  21.334 -0.2616 -0.0068 -0.0033
 3661W        W 5861  13.901   1.510  22.641 -0.1111  0.0273  0.1171
 3662W        W 5862  24.469   1.570  26.105  0.0407  0.1019  0.1104
 3663W        W 5863  17.092   5.106  12.782  0.0071 -0.3614 -0.0998
 3664W        W 5864   3.421   1.243  18.611  0.1506 -0.1308  0.2297
 3665W        W 5865  18.776   6.524  12.235 -0.2168 -0.0579  0.1222
 3666W        W 5866  15.582   2.838  27.128 -0.1255  0.1194 -0.2628
 3667W        W 5867  22.485   3.698  24.954 -0.2042  0.1786 -0.1833
 3668W        W 5868  19.199   3.148  31.412  0.3357  0.2718  0.0198
 3669W        W 5869   1.056   3.945  30.823 -0.2565 -0.2187  0.2265
 3670W        W 5870  12.996   0.056   1.081 -0.1947 -0.1624  0.2169
 3671W        W 5871   3.708   6.454  31.624  0.0388  0.1172  0.0084
 3672W        W 5872  20.402   0.366   1.476 -0.3413 -0.1281  0.0241
 3673W        W 5873  14.454   3.114  23.490  0.0026  0.2661  0.0799
 3674W        W 5874  21.399   1.042   8.280 -0.0606 -0.1823  0.2113
 3675W        W 5875   2.946   6.803  30.102 -0.3942  0.2097  0.0685
 3676W        W 5876   1.942   7.472   7.320  0.2302  0.0055 -0.2105
 3677W        W 5877   6.734   4.225  21.475  0.2168  0.1829 -0.2237
 3678W        W 5878  20.125   4.498  15.266 -0.2286 -0.1731 -0.0004
 3679W        W 5879   0.996   3.869   9.916 -0.0062 -0.2227 -0.3203
 3680W        W 5880  24.074   2.479   1.654  0.2981  0.0769 -0.4150
 3681W        W 5881  12.504   2.637  25.546 -0.1192 -0.1158  0.2884
 3682W        W 5882  13.831   4.121  29.664 -0.0884  0.1769  0.1271
 3683W        W 5883   6.257   2.743  31.929  0.0789 -0.3295 -0.1925
 3684W        W 5884  16.420   2.664  13.760  0.2169  0.0790  0.1875
 3685W        W 5885  14.542   2.463  29.104 -0.3361 -0.2518  0.1367
 3686W        W 5886  10.387   4.434  16.948  0.0938  0.0791  0.0276
 3687W        W 5887  21.230   4.918  13.310  0.2968  0.1944 -0.0025
 3688W        W 5888  12.686   0.892  20.232  0.2803 -0.1946 -0.2043
 3689W        W 5889   0.743   0.789   3.713  0.2012  0.3395  0.0201
 3690W        W 5890  19.396   3.781  22.192  0.1588 -0.0306  0.1761
 3691W        W 5891  11.090   0.821  32.488  0.2098  0.2041 -0.0816
 3692W        W 5892  20.261   4.260  22.948 -0.0775  0.0011 -0.0104
 3693W        W 5893  17.688   7.411  10.029  0.1727 -0.0081  0.1571
 3694W        W 5894  10.240   5.618  25.662  0.0962 -0.0477 -0.2318
 3695W        W 5895  24.915   2.461  10.928  0.5270  0.3008  0.2266
 3696W        W 5896  16.272   1.910   1.158 -0.1079 -0.0000  0.1632
 3697W        W 5897   2.508   1.745   5.892 -0.0788 -0.0308 -0.3804
 3698W        W 5898  22.811   5.573   5.388 -0.1017 -0.0052 -0.2416
 3699W        W 5899   6.314   0.809   2.793 -0.3333 -0.0403 -0.1133
 3700W        W 5900  14.377   7.318  23.450  0.0303 -0.0286 -0.2652
 3701W        W 5901   8.922   3.313  24.669  0.1617  0.1641 -0.0364
 3702W        W 5902  22.812   5.006  11.639  0.0063  0.1862  0.1998
 3703W        W 5903  17.968   6.965  15.484  0.0252  0.1189  0.1347
 3704W        W 5904  19.628   6.844  11.176  0.1571  0.3686 -0.1022
 3705W        W 5905  16.811   6.080  10.486 -0.1459 -0.3079  0.1401
 3706W        W 5906  14.253   1.692  26.702 -0.0501  0.2163 -0.0298
 3707W        W 5907   6.223   3.752  21.366  0.0323  0.3791  0.1139
 3708W        W 5908  15.787   6.842   3.501  0.2921 -0.0406  0.0581
 3709W        W 5909  20.318   4.846  16.146  0.2637 -0.3980  0.1355
 3710W        W 5910   2.283   0.729   8.185 -0.2786 -0.0488  0.1442
 3711W        W 5911  23.638   5.895  28.787 -0.1280  0.1612  0.0689
 3712W        W 5912  18.006   5.353   8.144  0.0285 -0.0329 -0.0837
 3713W        W 5913   8.372   3.861   2.334  0.1187 -0.0420  0.0713
 3714W        W 5914  13.508   1.766   9.544  0.0602 -0.1271  0.1602
 3715W        W 5915  23.986   5.657   4.532  0.0650 -0.3569 -0.0396
 3716W        W 5916   7.594   3.506  24.578  0.3407  0.1376 -0.1915
 3717W        W 5917  22.480   5.892  28.441 -0.0812  0.0714  0.0403
 3718W        W 5918  10.483   5.863  19.122 -0.0614 -0.1948 -0.2566
 3719W        W 5919  18.441   7.103   8.212  0.1029 -0.0077 -0.0340
 3720W        W 5920  10.685   0.449  22.856 -0.1703 -0.1669  0.2859
 3721W        W 5921   3.982   3.740   4.809 -0.1050  0.2556  0.0960
 3722W        W 5922  16.521   2.373  32.479 -0.2395 -0.0311  0.0130
 3723W        W 5923  16.830   3.427  13.401 -0.0916 -0.1842 -0.0530
 3724W        W 5924  11.060   6.128  24.403  0.2090 -0.1187  0.0536
 3725W        W 5925   6.714   1.908  24.184  0.0246 -0.1620 -0.2041
 3726W        W 5926   9.421   0.500  30.204  0.1034  0.0487 -0.3102
 3727W        W 5927  24.768   4.021   4.773  0.2240  0.0594 -0.1016
 3728W        W 5928   9.767   4.856  23.413  0.1390  0.1609 -0.0421
 3729W        W 5929   3.242   6.951   7.740  0.0171  0.0731  0.0118
 3730W        W 5930  10.350   2.393  20.550 -0.0593  0.0905  0.0446
 3731W        W 5931   8.357   0.721  27.854 -0.0821 -0.0686 -0.5420
 3732W        W 5932   0.282   3.950   4.069 -0.1555  0.3356  0.2508
 3733W        W 5933   7.117   7.260  24.834  0.1544  0.1586 -0.1681
 3734W        W 5934  13.867   5.553   9.175  0.0535  0.2751  0.2601
 3735W        W 5935   6.177   1.163   4.732 -0.2274 -0.3305  0.0787
 3736W        W 5936  24.217   3.862   3.172  0.2229 -0.1157  0.0819
 3737W        W 5937  12.908   7.017   3.585  0.1044  0.3300  0.1809
 3738W        W 5938  16.350   0.291   6.422  0.1040 -0.1071  0.3270
 3739W        W 5939  12.064   3.003  21.339  0.3311  0.1590  0.1019
 3740W        W 5940  17.729   1.701   3.587 -0.1572 -0.2908 -0.1266
 3741W        W 5941   1.966   6.940   2.046  0.0801  0.1293  0.3477
 3742W        W 5942  16.779   5.775  12.203 -0.1041  0.0394 -0.2093
 3743W        W 5943   5.345   0.890  20.679 -0.0219  0.1875  0.1253
 3744W        W 5944  23.655   4.871  25.058 -0.2631 -0.0068  0.0142
 3745W        W 5945  14.324   2.449   6.517  0.1557  0.1311  0.1057
 3746W        W 5946  15.195   1.027  11.138  0.1570 -0.2390 -0.2522
 3747W        W 5947   4.170   7.135  29.113  0.1091 -0.1387  0.2522
 3748W        W 5948   2.780   3.452   9.751 -0.4838  0.0142 -0.0669
 3749W        W 5949   7.824   2.740  29.271  0.0482 -0.2700 -0.2167
 3750W        W 5950   7.376   5.053  19.832  0.0379  0.0998  0.1139
 3751W        W 5951   5.527   5.580   8.257  0.0332 -0.0156 -0.1076
 3752W        W 5952  20.522   2.983  30.670 -0.1703  0.0717 -0.1457
 3753W        W 5953  24.658   6.276  30.354 -0.0747 -0.3426  0.0357
 3754W        W 5954  12.070   1.577   8.090  0.1161 -0.0476  0.0204
 3755W        W 5955   6.048   5.656  17.703 -0.0575  0.1704  0.1132
 3756W        W 5956   6.397   7.162   4.478  0.0446  0.1060 -0.0926
 3757W        W 5957   4.605   2.570   4.959  0.2573  0.0474 -0.0832
 3758W        W 5958   2.109   1.186  28.976 -0.0909 -0.1313  0.0237
 3759W        W 5959   8.591   7.231  27.582 -0.0189  0.0757  0.0644
 3760W        W 5960   9.319   6.631  22.628  0.1562 -0.2877  0.1651
 3761W        W 5961  17.646   4.831   1.788  0.2485  0.0343  0.0251
 3762W        W 5962  14.886   0.650  21.515 -0.1634  0.1799  0.0916
 3763W        W 5963  16.798   2.748  31.251  0.0257  0.0412  0.1627
 3764W        W 5964   6.720   2.348  16.416 -0.2964  0.1387  0.1458
 3765W        W 5965  14.536   7.649   8.505 -0.0745  0.1711 -0.1705
 3766W        W 5966  18.421   0.045   2.694  0.0078  0.1331  0.2201
 3767W        W 5967   6.852   2.156   3.814 -0.0826 -0.0405  0.0625
 3768W        W 5968  19.711   7.329  13.122  0.3032  0.0513 -0.2373
 3769W        W 5969   7.599   4.903   1.078  0.0327 -0.3400  0.1667
 3770W        W 5970  11.320   5.512  27.088  0.0579  0.1828  0.1849
 3771W        W 5971  24.129   5.147   7.368  0.1089  0.0625  0.1968
 3772W        W 5972  16.903   0.478   0.892  0.1798 -0.1742 -0.1531
 3773W        W 5973  10.443   3.391  28.336  0.1157 -0.0283 -0.1144
 3774W        W 5974   9.882   5.679  16.518  0.0803 -0.0348  0.0892
 3775W        W 5975   4.706   2.745  10.570  0.1527 -0.1775 -0.3183
 3776W        W 5976  22.274   4.178   2.858  0.0324  0.2175 -0.0938
 3777W        W 5977   0.399   4.546  22.591 -0.2513 -0.2381  0.1410
 3778W        W 5978   0.317   0.941   9.556 -0.1478  0.0235  0.3086
 3779W        W 5979   7.903   6.517  25.746  0.0697  0.1347 -0.2556
 3780W        W 5980  13.411   6.607  21.276 -0.2979 -0.1017 -0.0789
 3781W        W 5981   3.691   6.780   6.153 -0.1120  0.0872 -0.0064
 3782W        W 5982  11.425   4.404   9.762  0.0774 -0.2436  0.0521
 3783W        W 5983   6.234   2.047  24.300 -0.0897 -0.0694  0.5510
 3784W        W 5984  10.087   1.630  22.472  0.2574  0.0878  0.2180
 3785W        W 5985  18.449   0.736   9.846  0.0340 -0.1663 -0.2139
 3786W        W 5986  15.927   2.711   8.174  0.1633 -0.0755 -0.4388
 3787W        W 5987   6.035   5.340   5.852 -0.1743  0.2045 -0.3059
 3788W        W 5988   9.031   7.194  26.621 -0.0018  0.2709  0.1490
 3789W        W 5989   5.906   4.626  23.602  0.0381 -0.3437  0.1477
 3790W        W 5990   2.110   2.049  28.937  0.1451 -0.0326 -0.0430
 3791W        W 5991   9.280   1.739  20.284  0.2164  0.2275 -0.2245
 3792W        W 5992  19.729   0.398  22.193 -0.0548 -0.0633 -0.1141
 3793W        W 5993  23.192   1.387   5.147 -0.2090 -0.0991  0.1185
 3794W        W 5994  16.672   2.356   4.301 -0.2548 -0.0188  0.1570
 3795W        W 5995   6.759   7.558  19.544 -0.2499 -0.3000 -0.0826
 3796W        W 5996  20.623   2.260  22.091  0.0246  0.3122 -0.0272
 3797W        W 5997  13.260   0.704  31.950  0.2418  0.0244 -0.2255
 3798W        W 5998  21.873   5.053  28.671 -0.2909  0.0141  0.2979
 3799W        W 5999   9.362   6.511  17.103 -0.0184  0.1482  0.4959
 3800W        W 6000  21.221   7.441  32.342  0.3055  0.1935  0.4242
 3801W        W 6001  19.929   0.567  28.223  0.0318  0.4241  0.2622
 3802W        W 6002  17.143   3.431  11.229 -0.4210 -0.0093 -0.1525
 3803W        W 6003   8.340   1.439  28.390 -0.0141 -0.1214 -0.1055
 3804W        W 6004  24.273   6.602   3.863  0.1011 -0.2318  0.0572
 3805W        W 6005  16.120   6.695   6.238 -0.1617 -0.3008 -0.0683
 3806W        W 6006   3.719   3.137  27.781  0.0434  0.0377  0.2083
 3807W        W 6007  10.313   7.735  19.587  0.1969  0.0000  0.1853
 3808W        W 6008   7.988   1.125  19.436  0.0549 -0.3983  0.1443
 3809W        W 6009  12.832   4.668  11.629 -0.2315  0.2494 -0.1780
 3810W        W 6010  13.269   7.079   5.599  0.2441  0.0919 -0.0593
 3811W        W 6011   8.022   4.829  19.185  0.2530 -0.0252  0.0174
 3812W        W 6012  16.638   4.174  11.626  0.2587  0.1636  0.1602
 3813W        W 6013  23.475   5.813  10.052  0.1086 -0.1006  0.0676
 3814W        W 6014  11.835   2.660   7.913  0.2057  0.1371 -0.0134
 3815W        W 6015   7.451   0.340  24.923  0.1543  0.2931 -0.0170
 3816W        W 6016   0.374   5.502   1.262 -0.0155  0.0610 -0.0423
 3817W        W 6017   3.297   7.652  28.819  0.2401  0.5048  0.1681
 3818W        W 6018  11.832   5.731  28.599  0.0422  0.1265  0.1738
 3819W        W 6019   7.184   5.453  21.286 -0.0129  0.0444 -0.2171
 3820W        W 6020   1.708   4.391  31.789 -0.0954  0.0634  0.2541
 3821W        W 6021  20.823   5.649  15.783  0.1063 -0.0031 -0.0521
 3822W        W 6022  21.100   0.878  30.630  0.1407 -0.2275  0.0834
 3823W        W 6023  20.509   1.478  29.923  0.1819 -0.0609  0.0051
 3824W        W 6024   8.916   2.083  21.037 -0.1220  0.3470  0.1282
 3825W        W 6025  13.928   7.813  21.280 -0.1302  0.1972  0.0529
 3826W        W 6026   7.361   1.622   2.639 -0.2221 -0.2334  0.1881
 3827W        W 6027   4.975   0.642   6.218  0.0565 -0.0016  0.0247
 3828W        W 6028   4.836   7.157  31.418  0.0718 -0.2276  0.1084
 3829W        W 6029  11.858   4.566   6.573  0.0159 -0.3550  0.0716
 3830W        W 6030   3.901   4.034  31.196 -0.1695  0.1713  0.0593
 3831W        W 6031  22.676   0.720  26.682  0.1873 -0.1071  0.1073
 3832W        W 6032  19.342   6.896   1.617  0.0361 -0.3121 -0.3330
 3833W        W 6033   9.223   0.534  25.202 -0.4405  0.0519 -0.4378
 3834W        W 6034  23.448   7.162   6.155 -0.2418 -0.0273 -0.0439
 3835W        W 6035  15.911   4.100   9.192  0.1432  0.2456 -0.2357
 3836W        W 6036  17.821   1.179  31.189  0.0098  0.3996 -0.1004
 3837W        W 6037  20.155   4.976   7.489  0.1457 -0.2180  0.1574
 3838W        W 6038  10.514   3.035  27.959  0.0780  0.2191 -0.0552
 3839W        W 6039  14.525   4.218  29.484  0.0725 -0.1691  0.0330
 3840W        W 6040  19.879   0.780   4.048 -0.1748 -0.2700 -0.1859
 3841W        W 6041   9.513   2.562   7.355 -0.2170 -0.0785 -0.1193
 3842W        W 6042  13.165   3.658  24.745 -0.4980  0.0922 -0.3073
 3843W        W 6043  16.053   1.344  30.841  0.2319 -0.3412  0.4639
 3844W        W 6044  19.197   1.536   2.487 -0.0652 -0.2538 -0.0825
 3845W        W 6045   1.245   4.859  31.715  0.1280 -0.0677 -0.1461
 3846W        W 6046  16.077   6.667  32.573 -0.2048 -0.3946  0.0282
 3847W        W 6047  11.004   1.121   0.874  0.4208  0.1565 -0.0690
 3848W        W 6048  17.516   4.586   2.630 -0.1267  0.0694  0.0705
 3849W        W 6049  22.618   4.626  12.906 -0.1290  0.1731 -0.0940
 3850W        W 6050   2.761   2.722   7.310  0.0244 -0.1746  0.3634
 3851W        W 6051  11.093   1.302   3.522 -0.1565 -0.0006  0.1077
 3852W        W 6052   3.250   6.400  24.721 -0.1725  0.1109  0.1795
 3853W        W 6053  12.706   2.729   7.338  0.1632  0.0363 -0.0273
 3854W        W 6054   8.802   4.715   1.986 -0.3441 -0.1266 -0.2745
 3855W        W 6055  18.940   6.253  18.413  0.1933 -0.0081 -0.3388
 3856W        W 6056  13.716   1.065   7.848  0.1513 -0.2090  0.0915
 3857W        W 6057  21.581   6.725  23.881  0.0205 -0.1583 -0.2417
 3858W        W 6058  14.625   7.734  27.425 -0.0553 -0.0974 -0.0520
 3859W        W 6059  17.262   3.233   2.718  0.0593 -0.0293 -0.2594
 3860W        W 6060  11.457   4.129   9.372 -0.0172 -0.1344 -0.0372
 3861W        W 6061  20.793   1.374  18.406 -0.1243  0.0654 -0.0726
 3862W        W 6062  12.982   2.039  10.310  0.1219 -0.0814 -0.0283
 3863W        W 6063  17.121   3.834  14.593 -0.0511 -0.2608 -0.1358
 3864W        W 6064   6.116   5.664   7.128 -0.1673 -0.1394  0.1373
 3865W        W 6065   7.872   3.732   5.081 -0.1561 -0.0835 -0.1409
 3866W        W 6066   3.160   2.143  20.166  0.1408  0.0645  0.1652
 3867W        W 6067  12.545   3.135   7.657  0.3167 -0.2123 -0.0750
 3868W        W 6068  14.942   6.416   3.006 -0.0170  0.0726  0.1652
 3869W        W 6069  20.319   0.487  27.304 -0.0611 -0.1898  0.1887
 3870W        W 6070   3.723   4.431   8.460 -0.0699 -0.1303 -0.0601
 3871W        W 6071  10.899   2.358  31.206 -0.3028  0.1432 -0.0197
 3872W        W 6072  19.778   4.220   6.847  0.1666 -0.0336 -0.2891
 3873W        W 6073  18.602   1.531  27.474  0.0137  0.0489  0.3978
 3874W        W 6074  17.760   4.006   3.695 -0.0224 -0.0339  0.1434
 3875W        W 6075  21.582   2.282  29.649 -0.2758  0.4487  0.2520
 3876W        W 6076  20.652   0.246  31.045 -0.0398  0.2145 -0.2280
 3877W        W 6077   1.566   4.983  27.684 -0.0062  0.1245  0.4520
 3878W        W 6078  11.013   5.921  26.295 -0.0829 -0.0320  0.0936
 3879W        W 6079  23.086   7.412   6.400  0.0917  0.1112 -0.0136
 3880W        W 6080  22.043   2.030  13.326 -0.1160  0.1109  0.1510
 3881W        W 6081   9.875   0.732   3.814 -0.0677  0.0487 -0.0555
 3882W        W 6082  16.570   3.799  16.034  0.0665 -0.1222  0.2266
 3883W        W 6083  15.275   2.646  13.099  0.0633 -0.2874  0.3105
 3884W        W 6084   6.598   6.179  29.161 -0.0822 -0.0173  0.0796
 3885W        W 6085   8.121   6.664   7.943  0.1005  0.1943  0.0294
 3886W        W 6086  10.198   4.560   7.948 -0.0807  0.1230  0.0010
 3887W        W 6087  10.285   0.371  21.782  0.1716 -0.2587  0.0027
 3888W        W 6088   3.481   0.622  17.314  0.2013  0.0114  0.2951
 3889W        W 6089  15.707   0.313  11.092  0.0133  0.2908  0.1711
 3890W        W 6090  16.954   1.381  25.637 -0.1446  0.0224 -0.0298
 3891W        W 6091  22.138   6.153   2.221 -0.0620 -0.1250  0.2474
 3892W        W 6092   5.395   0.933  28.243 -0.1943  0.0289  0.0437
 3893W        W 6093   6.144   1.010   1.920 -0.0526 -0.0859  0.0201
 3894W        W 6094   1.271   6.727  18.780 -0.0089  0.1756  0.0200
 3895W        W 6095   2.021   1.182  28.392  0.0418  0.0444 -0.0913
 3896W        W 6096   0.496   2.118  23.425 -0.3720 -0.0652 -0.2930
 3897W        W 6097   0.653   2.054  31.795  0.0863  0.0609 -0.1037
 3898W        W 6098  20.604   0.705   9.872  0.1229 -0.0139  0.3594
 3899W        W 6099  24.987   7.570   4.594 -0.0753  0.0094 -0.1037
 3900W        W 6100   6.364   6.095   4.598 -0.1705 -0.0556  0.0145
 3901W        W 6101   1.723   4.717  25.834 -0.4418  0.1025  0.1912
 3902W        W 6102  23.888   6.808  23.520  0.1113 -0.1173 -0.3782
 3903W        W 6103   5.156   5.723  23.610 -0.1764  0.1110  0.3650
 3904W        W 6104  22.338   1.942  25.521 -0.1313 -0.1284 -0.1093
 3905W        W 6105   4.331   6.584  18.061 -0.0746 -0.2489 -0.3203
 3906W        W 6106  16.464   6.872   7.820 -0.3310  0.2042  0.1028
 3907W        W 6107  24.816   2.263   4.431  0.0964 -0.1642 -0.2104
 3908W        W 6108  22.137   4.285   1.680 -0.0214 -0.1468 -0.0632
 3909W        W 6109  13.115   6.043  25.825  0.2456 -0.1015  0.0878
 3910W        W 6110  19.177   1.276  28.390 -0.0249  0.1276 -0.2339
 3911W        W 6111   9.910   3.627   7.986 -0.1129 -0.0476 -0.1493
 3912W        W 6112  14.820   0.917  26.627 -0.0930  0.0677  0.1882
 3913W        W 6113   9.534   4.603  28.250 -0.2689  0.0831 -0.2149
 3914W        W 6114   1.106   4.065  22.121  0.4139 -0.1387 -0.1107
 3915W        W 6115   8.184   2.830  15.874 -0.0960 -0.1829 -0.0826
 3916W        W 6116   7.150   1.131  14.649 -0.1069 -0.2115 -0.2430
 3917W        W 6117  24.110   3.030  10.875 -0.1760 -0.0993 -0.2179
 3918W        W 6118  19.774   4.244   0.831  0.0738 -0.3893  0.1702
 3919W        W 6119   0.816   2.968  13.105  0.3480 -0.0387  0.2427
 3920W        W 6120   3.040   7.181  21.758  0.0562 -0.0707 -0.0168
 3921W        W 6121  13.144   3.373  20.242 -0.0318  0.0811  0.0277
 3922W        W 6122   1.099   4.572  20.711 -0.0594  0.0600  0.1566
 3923W        W 6123   9.004   3.866  23.460  0.0957  0.0721 -0.2108
 3924W        W 6124  17.154   5.247  23.415  0.2824  0.0485 -0.1428
 3925W        W 6125  16.664   1.283  30.949 -0.2057  0.1862  0.0893
 3926W        W 6126  12.512   3.250  25.651  0.0533 -0.0057 -0.0973
 3927W        W 6127   0.746   3.672   3.966 -0.2983  0.1386  0.2907
 3928W        W 6128   0.784   2.422  19.610 -0.0865  0.2661  0.2727
 3929W        W 6129  19.741   6.512  15.161  0.0356 -0.0095  0.0897
 3930W        W 6130   6.303   5.698  27.345 -0.5285 -0.1824  0.0097
 3931W        W 6131   6.483   6.933  24.044  0.1667 -0.1696 -0.2365
 3932W        W 6132  20.388   4.128  31.131  0.0208 -0.0005 -0.2356
 3933W        W 6133   8.945   5.707  23.184  0.1642  0.1470 -0.0217
 3934W        W 6134  16.994   0.327   9.012 -0.3005  0.1020 -0.0377
 3935W        W 6135  19.217   7.252  13.269  0.1263 -0.0723 -0.0194
 3936W        W 6136  11.987   1.846   4.455 -0.2881 -0.2421 -0.0028
 3937W        W 6137  21.773   7.849  27.928 -0.0708 -0.2411  0.2838
 3938W        W 6138   0.498   7.736   9.792 -0.2218  0.4541  0.2155
 3939W        W 6139  19.428   5.596   6.325  0.2202  0.1595 -0.0298
 3940W        W 6140  12.841   4.917  28.591 -0.3608  0.1032  0.0151
 3941W        W 6141  11.253   3.976   2.135 -0.1231  0.0472  0.0481
 3942W        W 6142  17.395   5.719   1.023  0.0794  0.2162 -0.1426
 3943W        W 6143  10.751   2.880  28.416 -0.0178  0.0585  0.0028
 3944W        W 6144   0.827   3.598  32.217  0.1250 -0.2106 -0.0128
 3945W        W 6145  10.176   5.782   3.874  0.2288 -0.1208  0.1823
 3946W        W 6146  24.310   7.328  13.194 -0.1967  0.0205  0.1092
 3947W        W 6147  19.663   3.565   7.342 -0.2152  0.0679  0.3496
 3948W        W 6148   8.425   6.793   3.038  0.0499  0.1103 -0.1925
 3949W        W 6149  23.502   3.930  14.798  0.2024  0.0375 -0.3651
 3950W        W 6150   3.265   1.085  27.371  0.2829  0.1317 -0.3382
 3951W        W 6151   1.838   2.851   4.721 -0.0358 -0.0940 -0.0687
 3952W        W 6152  10.862   4.211  28.707 -0.2076  0.0783  0.2626
 3953W        W 6153   3.114   5.321   5.667  0.2436  0.0703  0.2450
 3954W        W 6154   6.368   2.569  27.893  0.1109 -0.0427 -0.1428
 3955W        W 6155   0.031   0.720  24.198  0.1462  0.1778 -0.1426
 3956W        W 6156  14.296   7.364  10.242 -0.1382 -0.1774  0.0413
 3957W        W 6157  16.037   6.416  25.265 -0.1852 -0.2938 -0.1021
 3958W        W 6158   3.113   1.375  16.629 -0.4036 -0.1462  0.1440
 3959W        W 6159  13.351   1.427   4.896 -0.1886  0.2579 -0.1561
 3960W        W 6160  11.077   7.548   7.636 -0.1342 -0.0955 -0.1094
 3961W        W 6161  17.281   6.047  30.576  0.0243 -0.2369 -0.0991
 3962W        W 6162   8.424   2.928  22.077 -0.0799 -0.1943  0.1490
 3963W        W 6163  17.146   1.558  12.298 -0.1838  0.2494  0.2034
 3964W        W 6164  12.102   1.000  25.844 -0.0261  0.0061 -0.0790
 3965W        W 6165  24.646   2.921   0.479 -0.0075  0.3775  0.1496
 3966W        W 6166   0.466   3.466  28.977 -0.0235  0.0806 -0.0117
 3967W        W 6167  17.771   4.283  24.263  0.1236 -0.1620  0.0589
 3968W        W 6168  11.839   1.483   1.068 -0.2318  0.1222 -0.0769
 3969W        W 6169   6.595   5.441  18.795  0.1177 -0.1287 -0.0870
 3970W        W 6170   9.319   3.767  25.135 -0.3915  0.0426 -0.4285
 3971W        W 6171  17.156   1.777  22.506 -0.1439  0.0656 -0.1125
 3972W        W 6172  21.771   4.935   4.969  0.2791  0.0371  0.0839
 3973W        W 6173  22.998   7.690  14.880 -0.0396  0.1651  0.1408
 3974W        W 6174  21.492   6.219  22.025  0.1502  0.4613 -0.1004
 3975W        W 6175   7.373   2.787   5.068 -0.1194  0.0185 -0.0502
 3976W        W 6176  24.569   4.582  13.395 -0.2315 -0.1920 -0.1094
 3977W        W 6177   8.926   2.237   4.034  0.2940 -0.3107  0.0534
 3978W        W 6178  21.474   3.316  23.809 -0.0417  0.0431  0.0635
 3979W        W 6179   9.847   6.293  20.132 -0.5413 -0.0180  0.2007
 3980W        W 6180   5.658   3.448  18.779  0.2195 -0.0679 -0.4270
 3981W        W 6181   5.259   3.689   5.778 -0.2175 -0.0701 -0.1323
 3982W        W 6182   7.993   1.099  22.805 -0.1043 -0.0483  0.1778
 3983W        W 6183  18.409   6.039  32.572 -0.1476 -0.5095 -0.0846
 3984W        W 6184  14.996   6.975  11.961  0.0543 -0.0265 -0.2511
 3985W        W 6185  11.059   3.450   8.893  0.2151  0.0464  0.2474
 3986W        W 6186  17.238   1.026  25.929  0.2604  0.2102  0.0089
 3987W        W 6187   8.544   2.352   6.475 -0.2033  0.0031 -0.0995
 3988W        W 6188  13.791   0.912   4.907 -0.2974 -0.0013  0.0650
 3989W        W 6189   0.604   5.155   6.564 -0.0315  0.2388  0.2596
 3990W        W 6190  11.850   1.455  32.232  0.2285 -0.2361  0.0349
 3991W        W 6191  24.245   2.406  26.660 -0.0639 -0.1490 -0.1900
 3992W        W 6192  24.830   4.963   8.799 -0.0160 -0.2022 -0.1667
 3993W        W 6193   4.806   2.533  28.590  0.0790  0.2956 -0.3853
 3994W        W 6194   9.492   2.089   5.244 -0.3594  0.1191 -0.0507
 3995W        W 6195  24.036   3.684  24.062 -0.1666 -0.1269 -0.0676
 3996W        W 6196   9.343   5.159  27.345  0.1122  0.0725  0.1842
 3997W        W 6197   6.924   1.240  31.806  0.0853  0.0456  0.3502
 3998W        W 6198  15.950   5.447  24.007 -0.1812  0.0864  0.1925
 3999W        W 6199   5.572   5.929  22.369  0.1652  0.0492  0.0807
 4000W        W 6200  21.051   6.634  16.664 -0.0403 -0.1003 -0.1021
 4001W        W 6201  16.830   0.670   1.640  0.0914  0.0249 -0.2243
 4002W        W 6202  13.257   4.570  25.888  0.2402 -0.0849  0.1483
 4003W        W 6203   9.469   5.844  15.709  0.0874  0.1410  0.2218
 4004W        W 6204  24.641   2.364  19.602  0.3522 -0.1453 -0.2289
 4005W        W 6205   5.432   1.775  30.241 -0.4353 -0.0349  0.2917
 4006W        W 6206  24.673   4.424  31.969 -0.1530  0.0449  0.3320
 4007W        W 6207  21.784   7.616  29.395 -0.0043  0.1261 -0.0242
 4008W        W 6208   6.596   6.958  23.511 -0.0113 -0.0983  0.1514
 4009W        W 6209  23.310   0.774   4.097 -0.0589 -0.1044 -0.2932
 4010W        W 6210   9.929   3.117  15.882  0.3027 -0.0172  0.1463
 4011W        W 6211   0.098   3.878  29.054  0.2374  0.2030 -0.3112
 4012W        W 6212  11.524   7.176   6.076  0.0984 -0.2647 -0.0458
 4013W        W 6213  14.672   2.601  26.465  0.1376 -0.0676  0.1205
 4014W        W 6214  14.330   1.724  22.832 -0.0992 -0.2838  0.0894
 4015W        W 6215  16.333   1.742  15.794 -0.0465 -0.0811  0.4655
 4016W        W 6216  15.674   1.947   3.985  0.0731  0.2476  0.1874
 4017W        W 6217  17.994   6.798  32.049 -0.0487 -0.1512 -0.0769
 4018W        W 6218   4.331   6.245  29.283 -0.3323  0.2418 -0.0041
 4019W        W 6219  18.963   3.362   2.435 -0.0001  0.1341 -0.0108
 4020W        W 6220  23.429   7.830  30.590  0.0471 -0.1392  0.0671
 4021W        W 6221   1.626   1.220  28.751 -0.1856 -0.0827  0.3873
 4022W        W 6222   8.166   0.547  26.731 -0.0661 -0.0427 -0.1028
 4023W        W 6223  13.431   0.970   0.669 -0.0367  0.1861  0.1510
 4024W        W 6224   8.557   3.230  23.461  0.0179  0.0263 -0.1949
 4025W        W 6225  24.650   4.862   0.321 -0.0550  0.2425 -0.0497
 4026W        W 6226  16.947   4.249   1.962  0.0754  0.0335 -0.2056
 4027W        W 6227  23.856   0.733  12.702  0.1889  0.0947 -0.3894
 4028W        W 6228  19.569   5.480  13.629  0.0567 -0.2210  0.1098
 4029W        W 6229  22.834   0.095  26.177  0.0618 -0.1838 -0.1445
 4030W        W 6230   4.788   6.565  18.337 -0.2432 -0.4292 -0.0412
 4031W        W 6231   4.684   5.601  27.313  0.2190 -0.2275  0.0916
 4032W        W 6232   0.329   5.575  29.569 -0.3231 -0.0490 -0.1093
 4033W        W 6233  19.705   0.558  25.590  0.1980  0.2668  0.0326
 4034W        W 6234   9.214   6.602  30.655 -0.1895 -0.1801 -0.0574
 4035W        W 6235  17.273   4.598  28.956 -0.0843  0.2040  0.0129
 4036W        W 6236  20.338   0.652  24.887  0.1088 -0.0194 -0.2188
 4037W        W 6237  19.228   3.263  11.530  0.2012  0.0999 -0.3180
 4038W        W 6238   8.249   2.615  29.582  0.0418  0.1149 -0.2376
 4039W        W 6239   5.756   6.129  20.643  0.0537  0.0401  0.1352
 4040W        W 6240   6.426   2.484  21.245 -0.1375 -0.3288 -0.0306
 4041W        W 6241   2.222   7.665   6.847  0.0781 -0.1920 -0.0691
 4042W        W 6242  14.303   4.364   1.052  0.1452 -0.0303  0.1421
 4043W        W 6243   2.733   5.149   6.967 -0.1226 -0.3546  0.0355
 4044W        W 6244   8.995   7.768  22.425 -0.0142 -0.3370 -0.2605
 4045W        W 6245  13.656   5.104  26.424  0.2587  0.0026 -0.2838
 4046W        W 6246  13.490   5.717  24.315  0.2475  0.4466  0.0245
 4047W        W 6247   5.565   0.333  14.838  0.2047  0.1831 -0.3080
 4048W        W 6248   5.197   2.638   7.496  0.1135 -0.2684  0.4534
 4049W        W 6249   2.464   4.646  28.875 -0.0503  0.0976 -0.1970
 4050W        W 6250   6.614   2.705  23.064 -0.1299  0.1210 -0.0477
 4051W        W 6251  10.563   6.539  18.280  0.2296  0.1001 -0.3459
 4052W        W 6252   4.694   2.084  17.777 -0.1704  0.1321 -0.0103
 4053W        W 6253   3.447   0.750  18.768  0.1352  0.2003 -0.1504
 4054W        W 6254   2.835   0.277   1.708 -0.2213 -0.2168  0.0678
 4055W        W 6255  18.570   6.542   8.102  0.1874 -0.0666  0.3201
 4056W        W 6256  18.161   7.025  10.909  0.1100 -0.0159 -0.2562
 4057W        W 6257  19.890   5.524   0.161 -0.0031  0.1749  0.2369
 4058W        W 6258  22.379   3.134  23.738 -0.0956  0.3409 -0.0901
 4059W        W 6259   4.329   2.352  23.231 -0.0393  0.2148 -0.0721
 4060W        W 6260  16.694   2.196   2.500 -0.1780  0.0885  0.0436
 4061W        W 6261   8.343   4.610   6.775 -0.0077 -0.1826 -0.0927
 4062W        W 6262  12.371   1.734   7.698 -0.4849 -0.2947  0.2726
 4063W        W 6263  21.352   1.892   1.633 -0.0968 -0.0763  0.0675
 4064W        W 6264   2.070   2.356  31.224  0.2092  0.1409 -0.2063
 4065W        W 6265  20.077   3.593  27.020 -0.3952 -0.0365 -0.0028
 4066W        W 6266   5.426   2.996  17.131  0.1398  0.0633  0.0694
 4067W        W 6267   5.814   5.417  15.067 -0.1071  0.1647  0.0650
 4068W        W 6268  17.807   0.067  15.640 -0.2081 -0.3630 -0.0634
 4069W        W 6269   7.350   1.036   5.372  0.0470  0.1654 -0.0182
 4070W        W 6270  15.013   7.549  13.087  0.4136 -0.0170 -0.0889
 4071W        W 6271  24.943   1.440  25.669 -0.1820 -0.3591  0.1658
 4072W        W 6272  23.092   0.059  32.046 -0.0912 -0.1861  0.0792
 4073W        W 6273  10.838   6.162   3.332  0.1502 -0.0008 -0.2415
 4074W        W 6274  18.288   5.985  10.054 -0.4391  0.1659  0.0110
 4075W        W 6275  10.733   1.387  31.248 -0.0528  0.1071 -0.2344
 4076W        W 6276   0.738   0.316  22.394 -0.1067  0.0971  0.1708
 4077W        W 6277  21.675   7.020  23.157  0.1971 -0.1546  0.1792
 4078W        W 6278   2.532   2.846  10.024 -0.2190  0.1402  0.0188
 4079W        W 6279  23.360   6.285  24.747 -0.1616  0.2175 -0.0144
 4080W        W 6280   4.158   6.481  30.770 -0.0605  0.2892 -0.0291
 4081W        W 6281   4.262   0.198  16.424  0.2326  0.0187  0.1889
 4082W        W 6282  10.985   0.483  21.065  0.0492  0.0377  0.0105
 4083W        W 6283  22.474   2.939  28.596 -0.2396 -0.0493 -0.2477
 4084W        W 6284   0.794   0.720  30.346 -0.0448 -0.0061  0.0791
 4085W        W 6285  19.085   3.459  11.023  0.1136  0.2141 -0.3010
 4086W        W 6286  18.541   3.568  29.007  0.1368  0.1139 -0.0032
 4087W        W 6287  21.723   7.137  14.783  0.0093  0.2344 -0.3939
 4088W        W 6288  16.845   0.267  25.946  0.0952 -0.0294 -0.0933
 4089W        W 6289  18.718   0.717  30.198 -0.2473 -0.1031 -0.1390
 4090W        W 6290   1.200   7.305  23.229  0.0821  0.0784 -0.0098
 4091W        W 6291  15.225   0.109  27.644 -0.2770 -0.0515 -0.0354
 4092W        W 6292   5.831   2.097   7.341  0.1648 -0.3273 -0.1297
 4093W        W 6293   2.273   0.317   1.275 -0.0809 -0.0310  0.0028
 4094W        W 6294  12.375   2.347   6.164 -0.0018 -0.1843  0.2720
 4095W        W 6295   8.592   6.332   1.013 -0.0983 -0.1401  0.0263
 4096W        W 6296  21.395   2.281  27.152 -0.0604 -0.1564 -0.1053
 4097W        W 6297  21.089   3.769   5.686 -0.0134  0.5231 -0.0695
 4098W        W 6298  12.375   1.372  28.651 -0.0950 -0.3933 -0.0533
 4099W        W 6299  12.696   1.935  29.092 -0.0574 -0.0781  0.3728
 4100W        W 6300   2.897   0.368   0.308  0.4314 -0.2346 -0.3253
 4101W        W 6301   2.077   1.034  19.890  0.0533  0.0000 -0.2053
 4102W        W 6302  23.401   1.780   5.358 -0.3169 -0.0011  0.0576
 4103W        W 6303  12.291   3.716   4.499  0.4281  0.0706  0.1663
 4104W        W 6304  18.805   6.136  10.908 -0.1837  0.0056  0.2597
 4105W        W 6305  14.661   1.510  32.408 -0.1342 -0.0896  0.2438
 4106W        W 6306  22.235   6.052   1.717 -0.1247 -0.1437  0.1743
 4107W        W 6307   9.406   0.036  20.904  0.0118 -0.1334  0.0302
 4108W        W 6308  16.531   2.365  14.180 -0.0109  0.2195  0.2802
 4109W        W 6309   4.114   5.139   8.176  0.1754  0.0399 -0.0625
 4110W        W 6310   5.077   6.795  23.288 -0.1084 -0.2575  0.2692
 4111W        W 6311   4.561   6.415  24.476  0.2276  0.0114  0.2598
 4112W        W 6312  19.796   4.155  18.350  0.5123  0.3661 -0.0145
 4113W        W 6313  10.033   0.480  20.410  0.1949  0.1409 -0.0631
 4114W        W 6314  19.733   6.713  24.602  0.1400  0.3333  0.3215
 4115W        W 6315   6.677   5.455   6.565  0.2132 -0.0205  0.0947
 4116W        W 6316  22.489   5.983   9.714 -0.0691  0.3099 -0.1856
 4117W        W 6317  20.632   4.961   0.244 -0.1871  0.0721  0.0013
 4118W        W 6318  23.573   2.376   1.791 -0.3373  0.0210  0.2090
 4119W        W 6319   7.857   1.281   7.337  0.2677 -0.1639 -0.1425
 4120W        W 6320   4.986   6.909  25.051 -0.0212  0.3128  0.0111
 4121W        W 6321   2.753   2.553   0.010 -0.0074  0.3191  0.1767
 4122W        W 6322  12.501   3.476  29.233  0.0488 -0.2329 -0.0916
 4123W        W 6323  18.442   1.822  17.542  0.1711 -0.1859  0.3062
 4124W        W 6324  13.815   5.204  11.432 -0.0361 -0.0273  0.2434
 4125W        W 6325   4.606   4.611  32.420 -0.1229  0.2965 -0.0150
 4126W        W 6326  20.495   4.327  26.935 -0.0654  0.1195  0.3041
 4127W        W 6327  18.238   6.070   9.582 -0.1827  0.1889  0.1415
 4128W        W 6328   0.360   7.501   4.650  0.1616 -0.2740 -0.0065
 4129W        W 6329  19.767   1.100  11.943  0.4261  0.0432 -0.0806
 4130W        W 6330   6.106   4.265  28.899 -0.2392 -0.0962  0.0759
 4131W        W 6331  18.954   7.396   3.359 -0.0635  0.2265 -0.1237
 4132W        W 6332  10.475   2.729  10.208 -0.1546 -0.1164 -0.0196
 4133W        W 6333   3.116   5.170  25.381 -0.0250 -0.0872 -0.2265
 4134W        W 6334  11.221   4.758  22.763  0.1464  0.1754 -0.1833
 4135W        W 6335  15.055   3.514  11.194 -0.2162  0.1881 -0.0900
 4136W        W 6336  18.589   2.972  16.442  0.1020  0.3790  0.2544
 4137W        W 6337  21.244   2.278   1.273  0.2032 -0.2349 -0.0854
 4138W        W 6338   8.157   6.434   0.776 -0.2455  0.1304  0.0620
 4139W        W 6339  18.192   7.822  11.987 -0.1086 -0.0685 -0.0807
 4140W        W 6340  11.027   1.565  23.317 -0.2021 -0.0130  0.0762
 4141W        W 6341  12.840   2.138   2.388  0.2312  0.2831 -0.1907
 4142W        W 6342  20.507   6.061  10.605  0.0916 -0.0055 -0.3499
 4143W        W 6343  19.238   0.654   5.879  0.0198  0.1673 -0.1952
 4144W        W 6344  11.306   2.270  32.104 -0.1731  0.1696  0.2539
 4145W        W 6345  21.756   2.626   7.738  0.1339  0.1774  0.0680
 4146W        W 6346   9.391   2.544   2.253 -0.1264 -0.0467  0.0356
 4147W        W 6347   1.824   4.587  30.774 -0.1706  0.3272  0.0257
 4148W        W 6348   1.746   7.304   8.811 -0.1154  0.1300  0.2399
 4149W        W 6349  12.821   4.857   2.976  0.0461 -0.0227  0.1878
 4150W        W 6350  20.454   6.133   4.342  0.0094  0.0068  0.0556
 4151W        W 6351   6.277   3.037  30.374  0.0767 -0.0220  0.1808
 4152W        W 6352   2.535   3.795  24.491  0.0427  0.2968  0.1571
 4153W        W 6353   0.352   4.342  24.980 -0.2706 -0.1980  0.1150
 4154W        W 6354  10.204   7.482  29.264 -0.1477 -0.0242  0.0499
 4155W        W 6355  21.082   2.212  29.744  0.1236 -0.2202 -0.0756
 4156W        W 6356  18.562   7.592  29.031 -0.2772 -0.2012  0.1984
 4157W        W 6357   5.613   7.275  19.933 -0.3894  0.2575  0.1448
 4158W        W 6358   8.018   5.425  31.894  0.0509  0.0408  0.0288
 4159W        W 6359   4.383   3.478  16.441 -0.2765  0.0788  0.0098
 4160W        W 6360  11.427   4.943   2.518 -0.2099  0.0159  0.3427
 4161W        W 6361  10.524   4.854  31.800  0.1679  0.0464 -0.0538
 4162W        W 6362   8.574   2.286   1.291 -0.2066  0.2382 -0.1490
 4163W        W 6363  24.943   5.692   5.498  0.0959 -0.2115 -0.0839
 4164W        W 6364  13.130   5.710   1.968 -0.0069 -0.0367  0.2714
 4165W        W 6365  14.466   6.183   0.208 -0.1194  0.0290 -0.1182
 4166W        W 6366   9.262   4.728   9.913  0.1931 -0.0361 -0.2454
 4167W        W 6367   5.848   7.843  30.576  0.1063  0.1540  0.0120
 4168W        W 6368  11.576   0.303  20.099  0.2842 -0.1301  0.1585
 4169W        W 6369   4.890   4.546   4.236 -0.1746  0.0730 -0.1131
 4170W        W 6370  21.687   0.060   4.585 -0.0574 -0.3338  0.0716
 4171W        W 6371   5.586   0.713  21.857  0.1261 -0.1349  0.4182
 4172W        W 6372  21.737   6.996  22.305  0.0535  0.2343 -0.2425
 4173W        W 6373  20.660   1.875  21.628 -0.0403  0.0727 -0.0892
 4174W        W 6374   5.144   6.522   0.486 -0.1242  0.1085 -0.1637
 4175W        W 6375   8.930   5.789   0.426  0.0820 -0.0060  0.1841
 4176W        W 6376   0.998   1.523  30.738  0.1270 -0.1443 -0.1217
 4177W        W 6377  18.741   6.026  28.981 -0.1935  0.0444 -0.1157
 4178W        W 6378  21.031   7.403  28.580  0.0283  0.0956  0.1221
 4179W        W 6379  11.300   1.422  28.640 -0.2741 -0.0214  0.2104
 4180W        W 6380   8.970   7.446   8.522 -0.1385 -0.1045 -0.1341
 4181W        W 6381   4.333   3.982  29.113  0.1104  0.0136 -0.0750
 4182W        W 6382   5.977   2.677  30.624  0.1715 -0.1382  0.0664
 4183W        W 6383   3.652   4.048  30.054  0.2563 -0.0601 -0.0190
 4184W        W 6384  20.775   5.004  28.421 -0.0387 -0.1746 -0.0621
 4185W        W 6385   9.396   2.502  10.517  0.1230 -0.2368 -0.1600
 4186W        W 6386   1.610   6.274   6.153  0.1134  0.1034  0.4844
 4187W        W 6387  14.696   2.258  31.032 -0.2943  0.0428  0.1443
 4188W        W 6388  22.147   5.438   1.056 -0.2861  0.0803 -0.1561
 4189W        W 6389   2.378   2.481  29.056  0.0580 -0.1623  0.1466
 4190W        W 6390   0.818   6.840  28.130  0.1005  0.2557  0.0086
 4191W        W 6391  15.582   3.569  22.772  0.3748  0.0452  0.3373
 4192W        W 6392  19.747   2.811   5.327  0.1169 -0.2130  0.0417
 4193W        W 6393  21.873   3.124   4.158  0.1114 -0.0585 -0.3504
 4194W        W 6394  20.283   0.368   9.990 -0.2702  0.0441  0.1781
 4195W        W 6395   7.533   1.586  31.026 -0.1851  0.2067 -0.3255
 4196W        W 6396  16.091   4.447  27.230 -0.2489 -0.1457 -0.1702
 4197W        W 6397  15.517   5.133   4.599  0.2183  0.0601 -0.0835
 4198W        W 6398   3.088   5.827   9.540 -0.3324 -0.0788 -0.1091
 4199W        W 6399  10.495   3.355  22.404 -0.0022 -0.1500 -0.0467
 4200W        W 6400  12.869   2.896  29.708  0.1753 -0.1685  0.0485
 4201W        W 6401   4.770   3.728  19.163  0.2156 -0.0294 -0.0458
 4202W        W 6402  25.051   1.387   5.253 -0.0751  0.0333 -0.1271
 4203W        W 6403   5.002   0.671  23.990  0.1297 -0.2023 -0.0469
 4204W        W 6404  21.745   2.148  29.154 -0.0253 -0.1868  0.0729
 4205W        W 6405  12.351   5.942  25.500  0.1731  0.0207 -0.1406
 4206W        W 6406  18.833   1.178   3.837 -0.1571  0.1732  0.1747
 4207W        W 6407  16.222   3.803   5.929  0.0763 -0.1226  0.2057
 4208W        W 6408   4.979   1.263  24.061 -0.0288  0.1684 -0.2417
 4209W        W 6409  24.020   1.945  31.090  0.0896  0.0690  0.0760
 4210W        W 6410  19.892   6.161   8.848 -0.1125  0.1787 -0.3239
 4211W        W 6411   3.733   4.606  18.042  0.1349 -0.2026 -0.1390
 4212W        W 6412   5.268   7.185  19.582  0.0909 -0.0904  0.1175
 4213W        W 6413  24.099   5.282  25.098 -0.1315  0.0629  0.2385
 4214W        W 6414   8.176   2.293   9.709  0.2474  0.0298 -0.1851
 4215W        W 6415  16.966   4.918  23.015  0.0267  0.1504 -0.3215
 4216W        W 6416   9.439   2.779  17.038 -0.1191 -0.3408 -0.1362
 4217W        W 6417  10.576   1.696  18.516  0.1670 -0.1889 -0.2084
 4218W        W 6418   1.805   0.515  21.117  0.1538  0.3511 -0.3631
 4219W        W 6419   5.112   4.511  30.213  0.2263 -0.0404  0.3522
 4220W        W 6420  21.972   3.761   6.313 -0.0071  0.0417  0.2634
 4221W        W 6421   0.485   1.044  12.285 -0.2129  0.2997 -0.1215
 4222W        W 6422   7.202   5.875  30.832 -0.0254 -0.3895 -0.0377
 4223W        W 6423  21.901   2.570  32.277  0.4635  0.0793  0.0071
 4224W        W 6424  18.697   6.129  23.340 -0.0626 -0.0559 -0.0203
 4225W        W 6425   5.643   7.438   7.119 -0.0673  0.0836 -0.2314
 4226W        W 6426  11.622   6.106   3.323  0.2211 -0.0450  0.0399
 4227W        W 6427  16.365   7.380   3.523  0.1687  0.0724  0.0565
 4228W        W 6428  20.720   7.296   4.812 -0.0199 -0.1010  0.1485
 4229W        W 6429   7.173   4.018  30.630  0.1703 -0.4001 -0.2141
 4230W        W 6430   9.535   1.580   7.570 -0.2972 -0.0980  0.2084
 4231W        W 6431  19.898   0.078  16.226  0.1627  0.0801  0.1691
 4232W        W 6432  14.412   7.763   3.508 -0.1425  0.1162 -0.1196
 4233W        W 6433  18.774   0.873   6.863  0.2606 -0.4561 -0.0308
 4234W        W 6434  22.061   2.196  29.568  0.0843 -0.0316  0.0111
 4235W        W 6435  10.129   4.114  30.342  0.1649 -0.1690 -0.0961
 4236W        W 6436  19.973   4.664   6.717 -0.4634 -0.1466 -0.0549
 4237W        W 6437   6.637   2.716  15.201  0.0310  0.1574 -0.0510
 4238W        W 6438   4.169   6.545   2.266 -0.1427 -0.0579  0.0654
 4239W        W 6439  12.205   4.690  26.684 -0.0410  0.2191 -0.1209
 4240W        W 6440  18.397   0.594  11.266  0.4489  0.1779  0.2411
 4241W        W 6441   6.266   3.416  17.680 -0.0789  0.0383  0.0593
 4242W        W 6442  21.391   5.851  10.789  0.0397 -0.0973 -0.0289
 4243W        W 6443  24.485   6.839  22.480  0.0863 -0.0884 -0.1990
 4244W        W 6444  14.613   5.196  15.401 -0.1445  0.0796  0.2578
 4245W        W 6445   2.156   1.520   0.355  0.0149 -0.0767  0.2104
 4246W        W 6446  10.354   6.207   3.445 -0.2568 -0.2170  0.0643
 4247W        W 6447  16.404   2.210   6.397 -0.0267  0.0394 -0.2848
 4248W        W 6448  24.085   1.405  28.127 -0.0946  0.1536 -0.1871
 4249W        W 6449  19.812   2.087   9.173 -0.0816 -0.0594 -0.0475
 4250W        W 6450   5.924   1.424  30.987 -0.1608 -0.3085 -0.0334
 4251W        W 6451   6.706   6.539   3.027 -0.2004  0.1009  0.3129
 4252W        W 6452   1.519   6.722  12.525 -0.0620 -0.0864  0.1310
 4253W        W 6453  17.829   2.012  10.229  0.2165  0.1785  0.0161
 4254W        W 6454  11.211   4.403   7.354 -0.3733 -0.2623  0.0038
 4255W        W 6455   8.506   4.938  19.408 -0.0352  0.1341  0.0432
 4256W        W 6456  18.545   0.167  12.470  0.2390 -0.1260  0.0037
 4257W        W 6457  24.214   7.559  12.790  0.0460 -0.0425 -0.0325
 4258W        W 6458   9.395   5.379  31.913  0.0599 -0.1274  0.2591
 4259W        W 6459   5.075   5.473  27.036  0.0850 -0.2433 -0.2772
 4260W        W 6460  21.687   3.099  24.254  0.2929  0.2984  0.3427
 4261W        W 6461  12.008   0.465  23.709 -0.1789 -0.0640 -0.4972
 4262W        W 6462   7.924   3.008  26.440 -0.0618 -0.0648  0.5522
 4263W        W 6463   1.007   1.072   9.005 -0.1814 -0.1873 -0.0619
 4264W        W 6464   2.400   4.689  18.414  0.0477  0.0210  0.0858
 4265W        W 6465  12.108   3.866  29.320  0.2340  0.1574 -0.0291
 4266W        W 6466   4.439   3.498   6.574 -0.0513 -0.3401 -0.0148
 4267W        W 6467   0.966   3.830   3.179  0.2122 -0.1754  0.1617
 4268W        W 6468  11.194   6.752   5.977  0.1794 -0.2221 -0.0551
 4269W        W 6469  24.984   3.837   8.565 -0.0458 -0.1253 -0.1334
 4270W        W 6470   2.386   6.799  17.400 -0.0653 -0.0373 -0.2097
 4271W        W 6471  18.332   0.200  26.483  0.2524 -0.1053  0.1705
 4272W        W 6472  14.285   6.138  24.110 -0.0471  0.0481  0.2349
 4273W        W 6473   5.570   5.660  17.510 -0.0157  0.1852 -0.0605
 4274W        W 6474  22.645   2.679   8.802 -0.2174  0.2159  0.0691
 4275W        W 6475  11.185   1.054  22.181  0.0830  0.3208  0.4852
 4276W        W 6476   6.099   3.397   1.488 -0.3675 -0.4358 -0.0382
 4277W        W 6477  14.984   3.340  23.505  0.1871  0.3288  0.0449
 4278W        W 6478  18.913   2.512  25.316 -0.1107  0.1698  0.2029
 4279W        W 6479  15.291   6.666   7.270 -0.2451  0.1240  0.2018
 4280W        W 6480  16.156   5.514   3.772  0.3630  0.1296 -0.0282
 4281W        W 6481  18.543   2.978  22.944  0.3320 -0.2162  0.1546
 4282W        W 6482   3.685   0.948  30.781 -0.0439  0.0957  0.0930
 4283W        W 6483  14.559   0.488   9.449  0.2098  0.3747 -0.3781
 4284W        W 6484  17.837   5.026  27.525  0.1828  0.2132  0.3902
 4285W        W 6485   0.228   1.022  23.819 -0.1911 -0.3022  0.1020
 4286W        W 6486  12.095   6.792  20.796  0.0412 -0.4400  0.0299
 4287W        W 6487   2.741   3.664   6.529  0.2162  0.2630 -0.2016
 4288W        W 6488   5.611   1.248  23.716 -0.1718 -0.0073 -0.0020
 4289W        W 6489  22.388   4.925  26.775 -0.0379  0.1775  0.3003
 4290W        W 6490  14.025   7.183  30.549  0.2259 -0.1417  0.1881
 4291W        W 6491  24.370   0.384   9.611  0.0006 -0.0952 -0.0519
 4292W        W 6492  14.345   7.817   4.882  0.3211 -0.0428  0.1352
 4293W        W 6493  19.847   6.725  31.852  0.1284  0.1922  0.0392
 4294W        W 6494   3.455   1.414  27.649 -0.2217 -0.0786  0.1414
 4295W        W 6495  19.391   1.603   4.345 -0.2510  0.0339 -0.2371
 4296W        W 6496   3.096   3.973  30.766 -0.2124  0.2003 -0.1079
 4297W        W 6497  12.382   5.552  29.220 -0.2595 -0.0950 -0.0142
 4298W        W 6498  19.962   6.339   7.328 -0.0652 -0.0462  0.0807
 4299W        W 6499   7.509   7.063  27.501 -0.0542  0.0508 -0.2649
 4300W        W 6500   3.849   7.448  23.182  0.2239 -0.0383 -0.0330
 4301W        W 6501   5.570   4.573  26.067  0.1037 -0.0974  0.0370
 4302W        W 6502  11.090   3.295  20.019  0.1989 -0.2074 -0.1336
 4303W        W 6503   6.524   4.025  23.648 -0.1146  0.3089 -0.0070
 4304W        W 6504  12.941   7.415  24.863  0.1213 -0.1235 -0.0440
 4305W        W 6505   1.919   0.981  22.018  0.0625  0.1640 -0.0322
 4306W        W 6506  23.198   3.535   8.770 -0.0130  0.2108 -0.0508
 4307W        W 6507  23.896   3.283  12.854 -0.0876  0.0870 -0.1937
 4308W        W 6508   6.757   3.535  22.678 -0.2478  0.0801 -0.1000
 4309W        W 6509  19.182   2.572  24.325  0.1004 -0.0840  0.0410
 4310W        W 6510   9.323   3.327  24.955  0.0055 -0.1484  0.2704
 4311W        W 6511  18.674   3.437  25.204  0.0715 -0.0156 -0.2871
 4312W        W 6512  20.997   2.794   2.088  0.2529 -0.1352  0.1541
 4313W        W 6513  15.836   7.175  10.746  0.0489  0.1067 -0.1382
 4314W        W 6514  12.889   0.766  22.316  0.0402  0.0518  0.1661
 4315W        W 6515   0.156   7.449  23.251 -0.0772  0.4474  0.0110
 4316W        W 6516  11.577   6.512  19.816 -0.1751 -0.1252 -0.0691
 4317W        W 6517  21.185   1.452  30.625 -0.1814 -0.1382 -0.1203
 4318W        W 6518   1.695   3.385  31.248  0.0092 -0.1043 -0.1181
 4319W        W 6519  16.027   6.189   7.943 -0.1742  0.5198  0.0848
 4320W        W 6520  20.911   2.408  23.796  0.0732  0.0477 -0.0370
 4321W        W 6521  18.937   0.973  13.531  0.0557  0.1934 -0.0354
 4322W        W 6522   6.630   4.736  17.137 -0.0671 -0.2037 -0.0128
 4323W        W 6523  24.822   6.701   3.659  0.2511 -0.0606 -0.0752
 4324W        W 6524   5.586   3.082   9.027 -0.2421 -0.0886 -0.1005
 4325W        W 6525  19.650   6.443  32.471 -0.0373 -0.0199 -0.1660
 4326W        W 6526  18.885   2.636   4.233  0.1874  0.0101 -0.1989
 4327W        W 6527   8.361   0.617  19.224 -0.1500  0.0097 -0.2438
 4328W        W 6528  14.193   0.719  20.486  0.1169 -0.0871 -0.3476
 4329W        W 6529   7.909   4.920   0.673 -0.1341  0.1526  0.0683
 4330W        W 6530  14.215   5.705   5.567 -0.1588  0.0260  0.0141
 4331W        W 6531  17.844   2.023  15.094  0.1009 -0.2271 -0.1373
 4332W        W 6532   7.432   0.302   4.231  0.1034 -0.1300 -0.1266
 4333W        W 6533  24.586   5.800  24.378  0.0239  0.0666  0.2983
 4334W        W 6534   6.359   0.960  29.679 -0.1319 -0.2197 -0.4428
 4335W        W 6535  11.068   2.891  26.662 -0.0349 -0.2474 -0.0689
 4336W        W 6536  19.261   3.011   0.862 -0.0420  0.1192  0.0046
 4337W        W 6537  20.051   6.030  22.393 -0.0148  0.2351 -0.0425
 4338W        W 6538  15.334   5.238  30.368 -0.2012 -0.1429 -0.3766
 4339W        W 6539   7.922   6.337  32.495 -0.0879 -0.1341 -0.1104
 4340W        W 6540  17.204   4.388  15.422 -0.0141 -0.5298  0.0964
 4341W        W 6541  12.202   0.179  30.451  0.2819  0.1849 -0.0370
 4342W        W 6542  18.629   0.195  25.608  0.0577 -0.1045 -0.0545
 4343W        W 6543   3.038   1.714  29.793 -0.3497 -0.0319 -0.1081
 4344W        W 6544   5.464   4.389  18.392 -0.0274  0.1534 -0.0662
 4345W        W 6545   2.276   0.683  22.533 -0.1433  0.1524 -0.2111
 4346W        W 6546   1.136   4.248  28.575  0.0876  0.2077 -0.0304
 4347W        W 6547  19.875   1.761   5.263 -0.1211 -0.1364 -0.0571
 4348W        W 6548   6.169   2.948  28.733  0.1115 -0.0568 -0.0036
 4349W        W 6549  23.962   7.250  13.857  0.0321  0.2397 -0.2134
 4350W        W 6550  23.174   2.357  21.427  0.0226 -0.2444 -0.1608
 4351W        W 6551   3.974   2.141  19.038  0.0108  0.2419  0.0152
 4352W        W 6552  19.169   1.933   6.123 -0.0330  0.0994 -0.2185
 4353W        W 6553   2.776   1.541  17.944 -0.1223 -0.0246  0.1484
 4354W        W 6554   1.665   2.318  23.117 -0.0663  0.2002  0.0916
 4355W        W 6555   5.519   2.870  25.027  0.0592  0.1736 -0.3546
 4356W        W 6556  21.437   6.967  31.109 -0.0307 -0.0869 -0.3442
 4357W        W 6557   4.430   3.787  27.583  0.1776 -0.2119  0.4148
 4358W        W 6558   5.674   0.255   5.735  0.2528 -0.0192  0.1130
 4359W        W 6559  11.447   6.332   2.553  0.1616 -0.1152  0.0108
 4360W        W 6560  18.955   3.778  11.512 -0.1710 -0.1708 -0.1074
 4361W        W 6561  16.639   7.005  16.138 -0.0409 -0.0601 -0.3822
 4362W        W 6562   6.704   1.845  22.728 -0.0165  0.3455 -0.1877
 4363W        W 6563   2.659   4.959   1.272  0.1393 -0.0607  0.2181
 4364W        W 6564   2.013   0.182   0.311  0.2567  0.2348 -0.3531
 4365W        W 6565  17.731   3.974  26.052  0.0227 -0.3280 -0.1049
 4366W        W 6566  16.956   4.920   7.641  0.0789 -0.0154 -0.0532
 4367W        W 6567   1.580   7.044  24.924  0.0254 -0.0844 -0.0344
 4368W        W 6568  12.167   5.361   9.536  0.1940 -0.1143 -0.2115
 4369W        W 6569   2.547   0.289   2.674  0.0600 -0.2272  0.2425
 4370W        W 6570  11.444   6.908  30.215 -0.2378 -0.4248 -0.0312
 4371W        W 6571  12.658   2.811   8.391  0.0084 -0.2847  0.0001
 4372W        W 6572  22.667   7.422  13.278  0.1504  0.2090  0.0192
 4373W        W 6573   6.960   1.111   0.318  0.0372  0.0309  0.0723
 4374W        W 6574  10.839   0.749  18.758 -0.0597 -0.0851  0.0259
 4375W        W 6575  10.890   5.017   2.171 -0.0123 -0.2613 -0.2723
 4376W        W 6576  14.989   2.053  12.443  0.0157 -0.0524  0.0149
 4377W        W 6577  12.556   2.198  11.259  0.0313  0.1530  0.0065
 4378W        W 6578  11.747   2.491   4.844 -0.0294  0.0718 -0.1655
 4379W        W 6579   6.551   3.866  21.768 -0.1812  0.2213  0.3785
 4380W        W 6580  16.267   2.671  22.192  0.2399  0.3193 -0.1554
 4381W        W 6581  21.347   1.873   5.702  0.3545 -0.2696 -0.1562
 4382W        W 6582  15.070   4.491   2.859 -0.0960 -0.0039  0.1088
 4383W        W 6583   7.481   4.354  14.086  0.1063  0.1333  0.1330
 4384W        W 6584   5.760   5.564   7.484  0.0012  0.0470  0.1201
 4385W        W 6585  13.239   7.734  26.436 -0.0179  0.0824 -0.2885
 4386W        W 6586   2.809   4.082  20.741  0.1202 -0.0733 -0.0766
 4387W        W 6587  23.879   6.688  14.412  0.0415 -0.3918  0.1538
 4388W        W 6588  10.430   5.880  21.533  0.4425  0.2181 -0.0647
 4389W        W 6589  18.674   3.541   2.023 -0.3339  0.1961 -0.0993
 4390W        W 6590   4.386   7.511   4.618  0.1152 -0.1600 -0.0158
 4391W        W 6591  21.539   3.503  15.618 -0.1687 -0.1174  0.1233
 4392W        W 6592  16.020   6.837   1.048  0.2818  0.2045  0.1498
 4393W        W 6593   8.871   3.459   3.093  0.0050 -0.2229 -0.1293
 4394W        W 6594  20.650   2.846   0.565  0.1458  0.3879 -0.0879
 4395W        W 6595  23.304   4.346  28.500 -0.0322  0.1142  0.0968
 4396W        W 6596  18.441   6.523   5.837  0.0417  0.0764  0.1900
 4397W        W 6597  13.658   1.223  12.334 -0.1862 -0.0815 -0.0903
 4398W        W 6598   7.374   1.844  23.549 -0.1209  0.1549  0.3270
 4399W        W 6599  18.863   1.962   8.062 -0.2280 -0.0600 -0.1944
 4400W        W 6600   0.335   4.846   7.925  0.1091 -0.0512 -0.3971
 4401W        W 6601   9.720   5.736   1.277 -0.1240  0.2814  0.1819
 4402W        W 6602   6.537   3.230  21.861 -0.1520 -0.1343  0.3019
 4403W        W 6603  21.282   6.519  29.830 -0.2202  0.1993 -0.0119
 4404W        W 6604  21.723   6.548   7.920 -0.2174 -0.0227 -0.3877
 4405W        W 6605  24.516   5.816   3.149  0.1580  0.2364 -0.1873
 4406W        W 6606  23.672   1.772  14.297 -0.0665  0.1439 -0.1370
 4407W        W 6607  13.407   1.905  31.820 -0.0930 -0.4908 -0.1152
 4408W        W 6608  17.122   4.731  17.493  0.1432 -0.2003  0.1289
 4409W        W 6609  17.154   5.479   4.723  0.0258  0.1332 -0.0885
 4410W        W 6610   9.157   5.803   9.699  0.0618 -0.0134  0.0917
 4411W        W 6611  15.801   1.041   4.998 -0.0380 -0.0763 -0.1368
 4412W        W 6612   1.997   0.364  26.660 -0.1969  0.1452 -0.0967
 4413W        W 6613  13.244   2.471  31.036 -0.2392  0.0558  0.0399
 4414W        W 6614   8.463   2.545  16.323 -0.0895 -0.0746  0.0116
 4415W        W 6615  24.856   2.197   2.237 -0.2539 -0.2768 -0.0178
 4416W        W 6616  19.676   7.136  12.666 -0.1317 -0.1158 -0.1999
 4417W        W 6617  21.426   0.218  10.540  0.3239  0.2274 -0.3088
 4418W        W 6618  16.223   4.897  28.017  0.1407 -0.0372  0.2698
 4419W        W 6619   5.085   0.000   8.365 -0.2389 -0.0789 -0.1400
 4420W        W 6620   7.160   2.658  27.447  0.0409 -0.2734 -0.1147
 4421W        W 6621  25.070   6.267   3.554  0.1132  0.0442 -0.0527
 4422W        W 6622  15.878   6.501   4.560  0.0033 -0.1981  0.0010
 4423W        W 6623  19.025   6.346  28.651 -0.0620 -0.1375 -0.5091
 4424W        W 6624   6.067   7.476  18.506  0.0382 -0.1624  0.0697
 4425W        W 6625  22.879   6.741  31.183 -0.0978 -0.0576  0.2601
 4426W        W 6626   2.398   7.444   1.942 -0.1371  0.1031 -0.3324
 4427W        W 6627  15.797   1.786  30.970 -0.0214  0.0203  0.2443
 4428W        W 6628  12.632   0.140   3.756 -0.1706 -0.1346  0.0550
 4429W        W 6629   7.116   0.912  25.461  0.1294 -0.0818  0.0567
 4430W        W 6630   1.970   6.026  28.909  0.0186 -0.0285  0.1783
 4431W        W 6631   5.609   6.706   4.361 -0.0715  0.2701 -0.2752
 4432W        W 6632  23.630   1.351   8.336 -0.0139 -0.1660  0.1109
 4433W        W 6633   1.051   1.690   3.772  0.0267 -0.2809 -0.2942
 4434W        W 6634  16.151   3.853  13.626 -0.1375  0.0629  0.1433
 4435W        W 6635   1.066   3.837  18.959 -0.1294 -0.0895  0.0318
 4436W        W 6636  18.310   1.525  26.049 -0.0309 -0.1413  0.0783
 4437W        W 6637  22.943   1.035   3.311 -0.1723  0.1072 -0.1352
 4438W        W 6638  13.166   6.510   7.595  0.1883  0.1546  0.0182
 4439W        W 6639  19.121   3.969   5.972  0.1652 -0.1746  0.4297
 4440W        W 6640   4.809   3.766  27.267 -0.0560 -0.3029  0.0114
 4441W        W 6641   1.975   7.771   8.611  0.0342  0.0284  0.0916
 4442W        W 6642  20.922   7.716  15.436  0.0649 -0.0976 -0.1330
 4443W        W 6643   8.041   3.399  25.582 -0.1324 -0.2377 -0.1485
 4444W        W 6644   6.073   4.669   7.594 -0.1645 -0.0669 -0.0777
 4445W        W 6645  15.734   3.700  11.017  0.3459 -0.2081  0.1689
 4446W        W 6646   9.366   4.564   9.068 -0.0621 -0.1237 -0.0381
 4447W        W 6647  22.856   6.355  22.655  0.1872  0.0192  0.0314
 4448W        W 6648  17.618   4.145   7.971 -0.0398  0.3200  0.0508
 4449W        W 6649   1.400   0.117  20.578 -0.1014 -0.0211 -0.2878
 4450W        W 6650   6.450   3.899  17.567 -0.0320  0.0734 -0.1463
 4451W        W 6651   3.062   1.706  21.528 -0.1073 -0.2059 -0.1976
 4452W        W 6652  24.346   1.759  30.778  0.0186 -0.2047 -0.1059
 4453W        W 6653  13.986   1.610   0.998  0.0786  0.0281  0.2757
 4454W        W 6654   1.395   3.375   8.215 -0.2061  0.0458 -0.3157
 4455W        W 6655   9.517   2.452   1.702 -0.2681 -0.1484  0.0057
 4456W        W 6656   5.818   1.587  21.851 -0.1322  0.0352  0.1870
 4457W        W 6657  18.035   2.061  26.165  0.0478 -0.1131  0.1383
 4458W        W 6658   0.955   0.803  27.764  0.2081 -0.0382 -0.1221
 4459W        W 6659  22.006   2.041   2.662 -0.2114  0.2524  0.0457
 4460W        W 6660  12.217   5.387  30.791  0.0148 -0.2300  0.1144
 4461W        W 6661  14.159   6.596  14.123  0.3329  0.0522  0.0156
 4462W        W 6662  14.825   6.472  12.049 -0.0088 -0.0538 -0.1439
 4463W        W 6663  12.943   6.972  10.048 -0.1877  0.0941  0.1626
 4464W        W 6664   7.546   6.794  26.645 -0.0172 -0.0480  0.1512
 4465W        W 6665  24.394   6.600  24.662 -0.1844 -0.3183 -0.3825
 4466W        W 6666  17.036   3.769  29.083  0.1145 -0.0789  0.0331
 4467W        W 6667   9.767   0.813  27.385  0.2069  0.1983 -0.1567
 4468W        W 6668   9.045   2.317   7.337 -0.0302 -0.5622 -0.1706
 4469W        W 6669  25.127   1.372   0.977 -0.0120 -0.0790  0.1992
 4470W        W 6670   5.025   4.468  30.971  0.2646  0.1301 -0.0451
 4471W        W 6671   8.526   1.815  26.557 -0.2085 -0.2238 -0.0460
 4472W        W 6672  11.316   5.108   7.794 -0.0130 -0.0570 -0.0231
 4473W        W 6673  23.709   6.482  22.447 -0.0173  0.0509 -0.0319
 4474W        W 6674   4.561   7.237  30.491  0.3256  0.1510 -0.1843
 4475W        W 6675  11.807   6.062  25.637  0.1437 -0.0851  0.0581
 4476W        W 6676  16.747   4.039  12.145 -0.0054 -0.2897  0.0750
 4477W        W 6677   4.060   1.449  26.294  0.0931 -0.4062 -0.0813
 4478W        W 6678   3.302   6.141   2.349 -0.1755  0.2280 -0.1167
 4479W        W 6679   3.023   5.954  21.734  0.0404 -0.1483 -0.1426
 4480W        W 6680  12.192   3.998  22.140 -0.0207  0.1566 -0.4122
 4481W        W 6681  17.308   6.352  24.206 -0.2523 -0.1132 -0.0504
 4482W        W 6682  24.049   1.381  10.655  0.0393  0.1404  0.0817
 4483W        W 6683   9.840   7.236  17.535  0.0662 -0.0312  0.0135
 4484W        W 6684  22.473   3.969   6.426 -0.1053 -0.0690  0.1955
 4485W        W 6685  23.767   7.436   9.745  0.3471 -0.0001  0.1358
 4486W        W 6686   5.409   5.242  16.002  0.2122  0.0149  0.1958
 4487W        W 6687   1.339   6.105   8.423  0.1730 -0.1929  0.1822
 4488W        W 6688   7.320   7.749  28.856 -0.1617 -0.0388 -0.0961
 4489W        W 6689   7.440   7.421  21.437 -0.0629 -0.1211  0.2099
 4490W        W 6690   8.689   7.251   3.975 -0.2790  0.2848  0.0640
 4491W        W 6691  14.742   5.447   5.222 -0.2538 -0.1204 -0.0739
 4492W        W 6692   3.000   3.702  22.035 -0.2882 -0.1260 -0.1032
 4493W        W 6693  14.155   7.305   8.233 -0.1610  0.0790  0.0779
 4494W        W 6694  21.508   1.542   2.043 -0.0400 -0.0078  0.1604
 4495W        W 6695  15.711   0.502  26.828 -0.2272 -0.1741 -0.0196
 4496W        W 6696  21.258   2.872  22.544  0.0552  0.1769  0.0472
 4497W        W 6697   7.238   2.721   6.734 -0.1308  0.1849 -0.2796
 4498W        W 6698  12.760   4.289   5.481  0.0308  0.0794 -0.0193
 4499W        W 6699  19.746   1.101  10.399 -0.0643  0.2242  0.2125
 4500W        W 6700  18.338   2.836  28.282  0.0444  0.2883  0.0021
 4501W        W 6701  17.989   6.446  27.007 -0.1750  0.1436 -0.0817
 4502W        W 6702  20.124   4.105   4.817 -0.0085  0.1820  0.0943
 4503W        W 6703  16.785   4.690  32.492  0.0686  0.0174  0.2403
 4504W        W 6704  17.681   6.851   2.192  0.2041 -0.2443 -0.0766
 4505W        W 6705   7.592   1.521  22.264 -0.0156  0.0243 -0.0303
 4506W        W 6706  16.529   0.392   1.865  0.2546 -0.2760 -0.1479
 4507W        W 6707  22.862   2.126   4.909  0.1119  0.1089 -0.1105
 4508W        W 6708  12.934   3.838  11.152 -0.2897 -0.1806 -0.1276
 4509W        W 6709  15.202   7.121  31.403  0.2690  0.0356  0.2409
 4510W        W 6710   5.468   2.554  18.947 -0.0438 -0.2744 -0.0783
 4511W        W 6711   5.654   1.960  24.073 -0.0948 -0.0697  0.1320
 4512W        W 6712  11.683   7.530  20.877  0.3075 -0.0552  0.0943
 4513W        W 6713  17.127   6.953   9.863 -0.1328 -0.0140  0.3249
 4514W        W 6714  13.033   1.147  24.060  0.1989 -0.2554 -0.2170
 4515W        W 6715  16.674   5.454   1.098 -0.1976 -0.1975  0.0059
 4516W        W 6716   3.013   7.299  16.140 -0.1376  0.2824  0.0301
 4517W        W 6717   9.298   4.031  21.427 -0.3235 -0.0297  0.2254
 4518W        W 6718  20.833   3.582  28.126  0.0396  0.2083 -0.2266
 4519W        W 6719   9.013   5.585  26.295  0.2718  0.2133 -0.1676
 4520W        W 6720  16.012   7.561  11.696  0.0901 -0.2460 -0.2374
 4521W        W 6721   6.537   2.134   4.827 -0.2819 -0.0104  0.2252
 4522W        W 6722   7.194   7.126   4.921  0.0187  0.0865 -0.3444
 4523W        W 6723  13.243   5.010  28.862  0.1345 -0.0747  0.2216
 4524W        W 6724   7.429   2.762  17.190 -0.1793 -0.1686 -0.1319
 4525W        W 6725   4.831   7.808  30.261  0.2276  0.3068  0.0582
 4526W        W 6726  15.860   1.719   8.716  0.0785 -0.0336  0.0377
 4527W        W 6727  17.481   4.881  23.257 -0.2490 -0.0317  0.1921
 4528W        W 6728  24.752   7.428  25.771  0.5316 -0.0316  0.1404
 4529W        W 6729  12.759   2.869   4.905 -0.2321 -0.0310 -0.1062
 4530W        W 6730  21.859   5.017  25.511  0.3530  0.0208 -0.2390
 4531W        W 6731  16.791   3.304  26.628 -0.0884  0.0446 -0.1738
 4532W        W 6732   4.967   3.267  23.512  0.0333 -0.0029  0.1038
 4533W        W 6733  22.968   4.809  20.929  0.1121 -0.1632 -0.1682
 4534W        W 6734   2.579   4.034  22.043 -0.1018 -0.1826 -0.0473
 4535W        W 6735   6.175   3.015  30.980  0.0732 -0.0720  0.1400
 4536W        W 6736   0.676   7.132   1.410 -0.1668  0.1580  0.4014
 4537W        W 6737  14.765   2.050   4.979 -0.0447 -0.1421 -0.0908
 4538W        W 6738   4.957   1.874  27.830 -0.0096 -0.0728 -0.0514
 4539W        W 6739   7.144   5.994  20.990 -0.2134  0.0076 -0.2350
 4540W        W 6740  13.395   6.633   7.163 -0.1217  0.0095 -0.1049
 4541W        W 6741  17.058   0.425  28.833  0.2316 -0.0499  0.1877
 4542W        W 6742  16.746   3.244  12.762 -0.0334  0.0076 -0.4108
 4543W        W 6743  23.743   0.078  13.298  0.3451 -0.0079  0.1006
 4544W        W 6744   0.709   6.907   7.555  0.2001  0.0039 -0.0599
 4545W        W 6745   3.065   3.601  19.548 -0.1307 -0.2556 -0.2640
 4546W        W 6746  13.405   3.900   1.882  0.0168 -0.0859  0.1097
 4547W        W 6747   4.477   6.921  26.994 -0.0445 -0.0408 -0.1336
 4548W        W 6748   0.483   5.021   4.614 -0.2981 -0.0201  0.2976
 4549W        W 6749  12.781   5.077  31.230 -0.0509 -0.0262  0.2479
 4550W        W 6750  20.232   2.567  25.369  0.3163  0.3875  0.0668
 4551W        W 6751   1.943   3.973   2.038  0.0294  0.0819 -0.0262
 4552W        W 6752  16.595   6.562  11.121 -0.0340  0.0521  0.0807
 4553W        W 6753  12.773   0.745  31.702 -0.2262  0.0599  0.0099
 4554W        W 6754   0.510   6.863  23.213 -0.0219 -0.0488 -0.0093
 4555W        W 6755  22.413   6.647   2.739 -0.0649  0.2715 -0.0063
 4556W        W 6756   1.638   5.398  24.311  0.0006  0.1084  0.1240
 4557W        W 6757  16.516   7.293  12.336  0.1480 -0.1511  0.0300
 4558W        W 6758  15.540   7.598   8.330 -0.2546 -0.0306  0.1163
 4559W        W 6759  21.407   3.281   0.381  0.1364  0.0649 -0.3759
 4560W        W 6760  15.585   3.563   5.181  0.0532 -0.2126 -0.0124
 4561W        W 6761   5.266   1.871  30.735  0.1957 -0.2175  0.3361
 4562W        W 6762  12.729   6.446   9.782  0.0673 -0.3423  0.1846
 4563W        W 6763   5.457   3.085  18.135  0.2725  0.1179 -0.0580
 4564W        W 6764  11.296   1.082   2.982 -0.2405 -0.0599 -0.1699
 4565W        W 6765  10.603   7.152  31.214  0.2849  0.0618  0.1570
 4566W        W 6766   8.704   0.145  16.259 -0.3602 -0.0177 -0.3206
 4567W        W 6767  20.200   2.858  31.797  0.2541 -0.0136 -0.3090
 4568W        W 6768  14.428   6.917  11.991  0.0540  0.3905  0.1230
 4569W        W 6769  22.048   4.153  22.939 -0.1869  0.0816  0.2103
 4570W        W 6770   6.645   4.314   0.149  0.2186  0.1129 -0.0054
 4571W        W 6771   3.366   1.495   6.829  0.0232  0.2132 -0.0976
 4572W        W 6772   2.411   5.949   7.013  0.1036  0.2380 -0.0299
 4573W        W 6773  24.181   1.162  21.943  0.1849 -0.1539 -0.0436
 4574W        W 6774  10.697   3.463  30.283  0.0006  0.1299  0.3151
 4575W        W 6775  16.603   5.069  14.042  0.1526  0.1606  0.0903
 4576W        W 6776  17.456   4.946  27.034 -0.2514 -0.0469  0.3409
 4577W        W 6777  11.646   7.136   6.696  0.1710  0.2349 -0.3532
 4578W        W 6778  22.632   4.758   7.069 -0.1947 -0.0429 -0.0700
 4579W        W 6779   3.909   0.060  27.718 -0.0677  0.2491  0.2772
 4580W        W 6780  10.569   4.159  23.863  0.1316 -0.3240 -0.0690
 4581W        W 6781  16.041   6.653   7.482  0.1270 -0.0312  0.1249
 4582W        W 6782   5.877   4.438  32.146  0.2764 -0.1945 -0.0640
 4583W        W 6783   2.696   3.164  10.704  0.1368 -0.2310 -0.0710
 4584W        W 6784  18.233   6.594  10.001 -0.2554 -0.1304 -0.0821
 4585W        W 6785   9.409   4.467  18.418  0.0084 -0.1006 -0.1771
 4586W        W 6786  13.867   6.928   3.569 -0.0791  0.1645 -0.0437
 4587W        W 6787   2.072   7.454   9.111 -0.0343 -0.0377  0.3247
 4588W        W 6788  25.144   1.213  29.395  0.0654  0.4281 -0.0324
 4589W        W 6789  11.415   1.391   0.692  0.0246  0.1099  0.3803
 4590W        W 6790  20.233   2.400  23.306  0.0756 -0.1723  0.2108
 4591W        W 6791   5.409   0.866   2.352 -0.0084 -0.2945 -0.0875
 4592W        W 6792   3.701   3.481  32.268  0.2362  0.1823 -0.0362
 4593W        W 6793  16.476   0.888  31.383 -0.1282 -0.1610  0.4766
 4594W        W 6794  11.356   3.893   4.738  0.2611 -0.0388  0.2411
 4595W        W 6795  22.863   4.986   9.248  0.0809  0.0370 -0.1515
 4596W        W 6796  13.563   5.514  20.946  0.2781  0.0542 -0.0975
 4597W        W 6797  14.632   5.433  21.500 -0.4266  0.2199 -0.1496
 4598W        W 6798  13.391   3.680  13.875  0.2673  0.1751  0.1044
 4599W        W 6799  23.253   1.037  10.645  0.3519  0.0317 -0.2157
 4600W        W 6800   8.102   3.314  17.199 -0.1604 -0.1783 -0.0404
 4601W        W 6801   5.268   0.965   5.133  0.2679 -0.0830  0.0062
 4602W        W 6802  19.271   0.309  28.919 -0.2518  0.0895  0.0007
 4603W        W 6803   1.546   3.694  23.041 -0.2199 -0.1780  0.2307
 4604W        W 6804  24.538   6.941   9.421 -0.4458 -0.0060 -0.1038
 4605W        W 6805   0.045   6.317   3.092 -0.0054 -0.0677 -0.2758
 4606W        W 6806  14.492   6.042  30.817 -0.1903  0.0869 -0.0107
 4607W        W 6807  11.371   6.248   1.570 -0.0638 -0.0723 -0.0287
 4608W        W 6808   7.149   6.309  29.220 -0.1435 -0.2093  0.3683
 4609W        W 6809  20.044   5.362  28.257  0.0841 -0.0010  0.2075
 4610W        W 6810  11.388   5.910   7.679  0.0850  0.1344 -0.0926
 4611W        W 6811  10.068   7.328   8.636 -0.0218 -0.0932 -0.3637
 4612W        W 6812   0.984   1.896  31.061 -0.3907 -0.0504 -0.1208
 4613W        W 6813  12.645   5.990  22.841  0.2390  0.2723  0.0507
 4614W        W 6814  10.875   4.342  16.991 -0.1025 -0.0748  0.1018
 4615W        W 6815   9.485   4.137   5.313 -0.1317  0.1567 -0.1904
 4616W        W 6816  17.052   7.141   7.373 -0.1498  0.0098  0.1226
 4617W        W 6817   0.563   6.830  19.420  0.0160  0.0403  0.0112
 4618W        W 6818  12.823   6.376  29.358 -0.1978  0.0947 -0.0878
 4619W        W 6819  16.331   1.884   5.126 -0.2813  0.0547 -0.1374
 4620W        W 6820   5.417   6.988  30.803 -0.2095 -0.0811  0.3595
 4621W        W 6821   5.420   3.368   2.882 -0.1236  0.1916  0.2143
 4622W        W 6822  17.236   2.941  24.682  0.0074  0.0755  0.0360
 4623W        W 6823  11.950   1.973  20.763  0.2607 -0.2326 -0.4458
 4624W        W 6824  24.139   1.191   2.947  0.1135  0.0034  0.3152
 4625W        W 6825  23.136   6.572   7.054 -0.0281 -0.1297  0.2873
 4626W        W 6826   7.470   5.614   0.416 -0.4855 -0.0188 -0.1849
 4627W        W 6827   4.649   7.236   7.689 -0.0108 -0.2516  0.0697
 4628W        W 6828  13.642   2.619  31.360  0.1399 -0.0980  0.2124
 4629W        W 6829   5.153   2.987  19.613 -0.0870  0.1232  0.1267
 4630W        W 6830   9.920   1.769  21.505  0.1394  0.1783  0.2306
 4631W        W 6831  12.581   2.428   4.778  0.1666 -0.0077  0.0011
 4632W        W 6832   8.616   0.161   3.614 -0.3549  0.2264  0.4270
 4633W        W 6833   7.501   4.740  23.159  0.0077  0.0801  0.0797
 4634W        W 6834  14.333   0.734  29.999  0.3446 -0.0899 -0.2059
 4635W        W 6835  10.469   6.917  31.644 -0.0880  0.1406 -0.0103
 4636W        W 6836   5.224   0.183   4.345 -0.0291 -0.4836 -0.2141
 4637W        W 6837  12.392   1.302   6.777  0.1262 -0.0384  0.0789
 4638W        W 6838  12.475   6.986   3.851  0.0715  0.1130 -0.1838
 4639W        W 6839  20.378   1.129   1.022  0.1660 -0.1053 -0.0297
 4640W        W 6840  20.631   5.103   7.945 -0.0101  0.0103  0.3715
 4641W        W 6841   2.186   7.301   4.905 -0.0445  0.0951 -0.1485
 4642W        W 6842   9.973   3.674   1.078 -0.0503 -0.1814 -0.2780
 4643W        W 6843  12.075   2.828  10.565 -0.0291 -0.2633  0.0008
 4644W        W 6844  23.204   6.730  25.963  0.0121  0.0231  0.1639
 4645W        W 6845  15.799   1.559  15.010 -0.1989 -0.1994  0.0980
 4646W        W 6846   3.348   0.093   1.624  0.4637  0.0850 -0.1475
 4647W        W 6847  10.568   6.633  30.513  0.2375  0.2712 -0.1950
 4648W        W 6848   3.933   2.345   8.403 -0.2465  0.0592  0.4511
 4649W        W 6849  21.404   3.168  16.673 -0.1882  0.2323  0.1419
 4650W        W 6850  20.615   1.103   0.566 -0.1575  0.0136  0.2787
 4651W        W 6851  19.873   0.169  32.070 -0.0273 -0.0071 -0.0802
 4652W        W 6852   7.534   1.859  25.018  0.0760  0.2358 -0.1545
 4653W        W 6853  20.752   4.703  14.627  0.1537 -0.0181 -0.0211
 4654W        W 6854   4.487   6.661  25.885  0.1221 -0.0169 -0.1030
 4655W        W 6855  14.875   4.137   8.180 -0.1872 -0.2029  0.0738
 4656W        W 6856  11.487   6.344   3.798  0.0122 -0.1452 -0.0820
 4657W        W 6857   0.637   4.861  29.404  0.2171  0.1730  0.1297
 4658W        W 6858  20.011   3.892  17.499 -0.0877  0.0718  0.0100
 4659W        W 6859   6.301   0.514  23.210 -0.4168  0.1143 -0.1347
 4660W        W 6860   4.497   7.853  19.249 -0.1267 -0.1772 -0.1324
 4661W        W 6861   3.044   6.035  25.059 -0.0192 -0.2057  0.1058
 4662W        W 6862  14.951   5.415   0.691 -0.0408  0.2495  0.0431
 4663W        W 6863  18.692   6.009  30.268 -0.3283  0.0073 -0.1450
 4664W        W 6864  21.936   3.002  25.467  0.2609 -0.3708  0.0995
 4665W        W 6865  11.570   7.150  20.036  0.0380 -0.2134 -0.0288
 4666W        W 6866   2.614   2.412   7.741  0.0641  0.1269 -0.1703
 4667W        W 6867   9.204   0.331   2.694  0.0003  0.0655 -0.1517
 4668W        W 6868   0.800   1.017  11.869 -0.1373 -0.0470  0.1170
 4669W        W 6869  10.529   0.690  26.779 -0.0686 -0.0716 -0.2703
 4670W        W 6870  14.381   2.064   4.543 -0.0200 -0.3114 -0.0043
 4671W        W 6871  17.264   7.831  22.602 -0.0485 -0.1323 -0.2119
 4672W        W 6872   4.150   3.703  30.830 -0.0903 -0.0835 -0.2631
 4673W        W 6873   9.732   5.287  27.111 -0.1984  0.0830 -0.0806
 4674W        W 6874   0.262   3.924  25.479 -0.1100 -0.0758 -0.0447
 4675W        W 6875  15.107   6.772  22.779  0.0549 -0.0673 -0.2459
 4676W        W 6876  11.228   2.745  24.233 -0.3675 -0.2759 -0.0335
 4677W        W 6877  15.175   0.365  11.255 -0.0124 -0.1274  0.1240
 4678W        W 6878  13.049   0.239   3.471  0.1665 -0.1680  0.0107
 4679W        W 6879  21.270   7.137  26.976 -0.1851  0.1873 -0.3159
 4680W        W 6880   2.698   5.619   9.300  0.0695  0.0454 -0.0034
 4681W        W 6881  12.441   5.825  31.740 -0.1227  0.3215 -0.0565
 4682W        W 6882  16.353   3.689   8.094  0.0777 -0.2599  0.2562
 4683W        W 6883  14.464   3.094   8.323 -0.1020  0.0512 -0.0926
 4684W        W 6884  23.967   0.298  31.121 -0.0035  0.1194  0.1773
 4685W        W 6885   6.384   1.638   4.853  0.0467 -0.3273  0.1323
 4686W        W 6886  21.478   4.021  15.683  0.1336  0.1354  0.0173
 4687W        W 6887  12.182   0.985   6.011 -0.1032 -0.1164 -0.0358
 4688W        W 6888  14.333   2.922  13.971  0.3130  0.0133 -0.1180
 4689W        W 6889  16.913   5.023  27.094  0.0541  0.3804 -0.1966
 4690W        W 6890   9.999   6.691  31.841 -0.3757 -0.2260  0.1693
 4691W        W 6891  10.693   2.392   4.739 -0.3381 -0.0705  0.1012
 4692W        W 6892  17.203   2.525  17.249 -0.2282 -0.3351  0.0178
 4693W        W 6893   5.841   4.016  21.288  0.2015 -0.1622  0.1907
 4694W        W 6894  21.015   6.825   8.323 -0.0415  0.3982 -0.1282
 4695W        W 6895   2.670   7.394   4.683  0.1441  0.1571  0.0865
 4696W        W 6896  22.606   4.998  13.309 -0.1431  0.1321  0.0076
 4697W        W 6897  24.155   3.272  22.385  0.0884  0.3442 -0.0937
 4698W        W 6898  21.004   7.655  31.581  0.1825  0.2768  0.1119
 4699W        W 6899   7.132   5.345   8.883 -0.1613 -0.1271  0.0776
 4700W        W 6900   3.371   7.542  10.157  0.0864  0.1759 -0.3459
 4701W        W 6901   5.658   0.332  17.955  0.2859  0.1180  0.0412
 4702W        W 6902  24.086   4.451   9.744  0.3308 -0.3157 -0.0403
 4703W        W 6903  23.766   0.411  11.483  0.2345 -0.1132  0.3421
 4704W        W 6904  16.265   3.205   4.449  0.2200 -0.2637  0.1495
 4705W        W 6905  14.156   6.470  10.077  0.1643 -0.0987  0.1746
 4706W        W 6906   3.456   7.250  31.729  0.4466 -0.1263 -0.0997
 4707W        W 6907   3.170   1.815  19.778 -0.4642 -0.0076  0.0245
 4708W        W 6908   2.831   6.589   3.864  0.0580  0.1394  0.2447
 4709W        W 6909  17.732   6.464  28.625 -0.1058 -0.0186  0.0854
 4710W        W 6910   6.448   2.603   4.791  0.0182  0.3327 -0.0666
 4711W        W 6911   7.119   0.222   4.728 -0.3805 -0.3242 -0.1472
 4712W        W 6912  15.306   5.668  32.487 -0.4439  0.1990  0.0706
 4713W        W 6913   2.531   0.531   3.119  0.2062 -0.2913 -0.1625
 4714W        W 6914  19.787   2.787  28.145  0.2072  0.0905  0.3505
 4715W        W 6915   3.038   2.795   1.827 -0.0864 -0.1245 -0.0330
 4716W        W 6916   7.582   0.037  21.231  0.1966 -0.1143  0.0366
 4717W        W 6917   9.231   0.911  15.588 -0.3462  0.0284  0.1683
 4718W        W 6918  10.335   1.211  31.892 -0.4162  0.0229  0.1041
 4719W        W 6919  25.043   4.910  26.906  0.1533 -0.0870 -0.0138
 4720W        W 6920   9.018   0.009  29.153  0.2711 -0.0990 -0.3638
 4721W        W 6921   1.759   3.240  26.329  0.2673  0.3380  0.0676
 4722W        W 6922  20.230   4.902  30.503 -0.0136  0.0856 -0.0386
 4723W        W 6923  11.530   4.224   2.543 -0.0117 -0.0206 -0.0045
 4724W        W 6924   6.297   3.719  17.079 -0.0087 -0.0204 -0.0481
 4725W        W 6925   4.183   2.762  29.362  0.1894 -0.1532  0.3270
 4726W        W 6926   3.845   5.160  20.383 -0.2693  0.4284 -0.2650
 4727W        W 6927  22.725   1.883  10.503 -0.1410  0.0911 -0.1410
 4728W        W 6928  21.427   0.204   6.633 -0.0057  0.1609  0.2874
 4729W        W 6929   3.665   1.716   0.745  0.0281 -0.0802 -0.0589
 4730W        W 6930   2.986   6.243   8.216 -0.0235  0.0578 -0.0870
 4731W        W 6931  21.318   0.392   5.726  0.2092  0.1126  0.0543
 4732W        W 6932  17.911   6.672   3.453  0.0953  0.0778 -0.0640
 4733W        W 6933  12.399   2.525   0.286  0.2913  0.2399 -0.2901
 4734W        W 6934  11.925   5.944   6.776 -0.2548 -0.0677  0.1097
 4735W        W 6935  19.161   2.947   8.468 -0.3894  0.0334 -0.0217
 4736W        W 6936   4.548   6.044  18.931  0.1822 -0.1287  0.3372
 4737W        W 6937  21.165   0.734  13.471  0.0385 -0.3190 -0.0741
 4738W        W 6938   2.773   7.117   3.642 -0.1696  0.0034  0.1778
 4739W        W 6939  20.374   7.153  10.946 -0.1814 -0.1277 -0.5207
 4740W        W 6940  20.582   1.476  10.434 -0.0789 -0.1874 -0.0711
 4741W        W 6941   3.329   5.138  22.092  0.3533  0.0350  0.2846
 4742W        W 6942  13.077   1.985   0.626 -0.1621  0.1220  0.3160
 4743W        W 6943   5.063   2.872  23.872  0.0661  0.0363  0.0885
 4744W        W 6944  15.644   0.674  12.611 -0.0676  0.2205 -0.0783
 4745W        W 6945  16.369   2.435  15.114  0.0715 -0.3624  0.3033
 4746W        W 6946   9.359   5.178  22.067  0.0651  0.1133  0.0167
 4747W        W 6947  18.715   1.419  16.597  0.0909 -0.1305 -0.0013
 4748W        W 6948  12.190   6.582   0.338  0.0177 -0.1983  0.1387
 4749W        W 6949  18.321   5.282  30.495 -0.1642  0.1619 -0.0547
 4750W        W 6950  10.814   3.340   7.147 -0.1538  0.0235  0.0996
 4751W        W 6951  12.657   3.377  21.606  0.1834  0.1758 -0.0852
 4752W        W 6952   7.428   2.839  19.878  0.2687 -0.1511  0.0193
 4753W        W 6953  17.075   2.830  12.712 -0.0793  0.0509 -0.0148
 4754W        W 6954   2.360   7.358   0.711 -0.1511 -0.1718 -0.0904
 4755W        W 6955   1.902   2.557  32.031 -0.3082  0.3174 -0.3356
 4756W        W 6956  24.881   3.312  10.143  0.0992  0.3698 -0.3500
 4757W        W 6957   8.495   2.974  25.320 -0.1143 -0.0084 -0.0653
 4758W        W 6958   7.869   4.798  29.391  0.0704 -0.1576  0.0474
 4759W        W 6959  14.787   3.911  22.402  0.1286 -0.1931 -0.3346
 4760W        W 6960  12.633   4.509  31.250  0.1041  0.0880  0.0562
 4761W        W 6961   9.908   3.196  19.219 -0.1530 -0.1541  0.0162
 4762W        W 6962  17.097   6.415  24.735  0.0635  0.0929 -0.3453
 4763W        W 6963   3.115   3.056   4.096  0.1846  0.3703 -0.0242
 4764W        W 6964  10.017   2.950  21.431 -0.1218  0.0100  0.1096
 4765W        W 6965  24.177   5.772  22.005 -0.0103 -0.2922 -0.0369
 4766W        W 6966   3.151   3.000   9.633  0.2004 -0.0150 -0.0707
 4767W        W 6967   8.458   4.855   4.337  0.0796 -0.2926 -0.0682
 4768W        W 6968  20.595   5.581   4.370  0.4164 -0.0025  0.0767
 4769W        W 6969   5.228   6.586   4.076 -0.2383 -0.3826 -0.1378
 4770W        W 6970  23.492   6.304   5.699 -0.1440 -0.1828  0.1810
 4771W        W 6971  12.000   4.634  20.384 -0.2865  0.0021 -0.3703
 4772W        W 6972  15.979   0.880  11.659  0.2620  0.0729  0.1934
 4773W        W 6973  22.723   4.494   4.386  0.3392 -0.0537  0.0241
 4774W        W 6974   9.742   7.317  26.374  0.2427  0.0166  0.0576
 4775W        W 6975  21.312   4.531   1.505  0.2179 -0.1738  0.3104
 4776W        W 6976  16.643   6.139   6.559  0.2471  0.0762  0.2752
 4777W        W 6977  16.928   0.544  27.262 -0.4838 -0.1354 -0.3300
 4778W        W 6978  21.417   7.801  13.133 -0.3283  0.2026 -0.0964
 4779W        W 6979  22.078   3.203  28.809 -0.0242 -0.1775  0.0726
 4780W        W 6980  19.787   7.781   6.870 -0.0634 -0.0187 -0.0549
 4781W        W 6981   1.087   7.297  20.539 -0.1390  0.1622  0.1453
 4782W        W 6982   3.684   5.825   8.436 -0.2466 -0.2531 -0.2921
 4783W        W 6983   5.944   6.752  14.954  0.0414 -0.1134 -0.3273
 4784W        W 6984  18.432   6.095  16.142  0.0838  0.3039  0.0166
 4785W        W 6985  12.462   7.163   7.846  0.0780  0.0198  0.1824
 4786W        W 6986   8.189   1.026  18.950  0.4051  0.0200  0.1862
 4787W        W 6987  24.083   7.623  13.545  0.0339 -0.0587 -0.0131
 4788W        W 6988  13.861   3.641  26.022 -0.1145  0.1793  0.1725
 4789W        W 6989  12.686   5.171  30.632 -0.1024 -0.1663  0.0701
 4790W        W 6990   5.475   6.365  30.816 -0.2596 -0.0326 -0.2436
 4791W        W 6991   2.877   1.014  25.953  0.4258  0.1073 -0.2852
 4792W        W 6992  15.511   2.816  12.207 -0.1119 -0.0392 -0.0416
 4793W        W 6993   3.073   0.676  26.287  0.2090  0.3504 -0.0349
 4794W        W 6994  21.094   1.683  24.970 -0.2389 -0.3236  0.2702
 4795W        W 6995   7.349   4.007  14.538  0.2686  0.0409  0.0180
 4796W        W 6996  20.907   2.404  15.120  0.2222 -0.0036  0.1599
 4797W        W 6997  23.195   4.366  22.915 -0.2722  0.1608 -0.0779
 4798W        W 6998  14.800   6.023   2.716  0.0114 -0.1202  0.3527
 4799W        W 6999   9.012   0.326  27.157 -0.0747 -0.2765  0.3071
 4800W        W 7000   8.395   4.457  31.689 -0.1619  0.2269  0.2882
 4801W        W 7001  12.047   1.238  20.676 -0.2659  0.0118 -0.0382
 4802W        W 7002  23.906   3.074  26.777  0.1591  0.0632 -0.1851
 4803W        W 7003  12.315   3.247   6.103  0.2072  0.3911  0.3649
 4804W        W 7004   4.293   6.600  25.421 -0.2460 -0.2908  0.3926
 4805W        W 7005  22.675   0.986  29.679  0.0234 -0.3054  0.0417
 4806W        W 7006   0.583   4.074   2.154  0.1307 -0.1524 -0.0167
 4807W        W 7007  20.363   2.607  28.849 -0.2164  0.0249  0.2068
 4808W        W 7008   6.250   5.453  22.637 -0.0672 -0.0351 -0.0283
 4809W        W 7009   0.294   0.349  24.423  0.1377  0.1559  0.5290
 4810W        W 7010  15.189   0.878   7.765  0.2220  0.0245 -0.0446
 4811W        W 7011   8.901   4.057  17.078  0.0901  0.3494 -0.0004
 4812W        W 7012  12.621   2.106   0.488  0.2065  0.1757 -0.1379
 4813W        W 7013   3.802   7.453  27.720  0.3586 -0.0085 -0.3458
 4814W        W 7014   0.859   1.441   5.028 -0.2078  0.2869  0.1235
 4815W        W 7015   3.701   4.151   5.007  0.0565 -0.0744 -0.2925
 4816W        W 7016   8.510   4.571  24.196 -0.1029 -0.2998  0.1311
 4817W        W 7017   3.486   3.421  17.642 -0.0577  0.0537 -0.1390
 4818W        W 7018  10.203   6.410  21.641  0.2264 -0.2387 -0.0507
 4819W        W 7019  24.200   2.671  20.015  0.0772  0.0048 -0.0623
 4820W        W 7020  10.617   2.145  22.825  0.0485 -0.3597  0.0385
 4821W        W 7021  11.909   0.648  27.156  0.0545 -0.0091 -0.3218
 4822W        W 7022  18.203   5.352   0.522  0.0741  0.0644  0.0359
 4823W        W 7023  24.873   0.447   8.200  0.1050 -0.1921 -0.0309
 4824W        W 7024  22.862   6.334   9.963  0.2150  0.0530 -0.1142
 4825W        W 7025  18.366   5.405   4.126 -0.1654 -0.1043 -0.1431
 4826W        W 7026   6.002   7.622  31.111 -0.1372  0.3497  0.1895
 4827W        W 7027   1.553   7.678   1.624 -0.2441  0.0776 -0.0659
 4828W        W 7028  17.103   1.031   8.076  0.1364  0.1711  0.0921
 4829W        W 7029   4.003   2.413  30.696  0.2538  0.0536  0.2163
 4830W        W 7030  13.870   2.902   9.740 -0.1411  0.0855  0.2369
 4831W        W 7031  10.775   0.130  23.363 -0.2011 -0.0576  0.2796
 4832W        W 7032  23.251   1.269   0.323  0.1797 -0.1721  0.0056
 4833W        W 7033   6.152   6.087  18.681 -0.0352 -0.1466  0.0467
 4834W        W 7034  20.140   6.022  12.404  0.3346  0.0038  0.0813
 4835W        W 7035  24.559   7.332   7.346  0.0330  0.0543  0.2568
 4836W        W 7036   1.376   0.698   8.926  0.0912  0.2115 -0.0462
 4837W        W 7037   7.920   7.032   1.468 -0.3047  0.2113 -0.1618
 4838W        W 7038   8.756   4.973  16.570 -0.3152 -0.0528 -0.0853
 4839W        W 7039   2.299   7.568   2.932  0.0621 -0.0802 -0.1297
 4840W        W 7040   9.366   3.539  23.855  0.1574 -0.3096 -0.1272
 4841W        W 7041  15.172   1.768   3.602 -0.1099  0.1211 -0.0934
 4842W        W 7042  15.884   6.477   2.225 -0.1199 -0.5467  0.0129
 4843W        W 7043  12.792   4.621  29.269  0.2279  0.4400  0.1921
 4844W        W 7044  24.355   0.381  25.263 -0.2404 -0.2334 -0.0535
 4845W        W 7045  22.384   0.154  25.075  0.1863  0.3153 -0.2568
 4846W        W 7046   7.997   4.343  29.962 -0.0746 -0.1070  0.1111
 4847W        W 7047   2.574   1.345   2.642 -0.0359  0.2217 -0.0292
 4848W        W 7048  10.283   0.831  10.255 -0.0557  0.0094 -0.3958
 4849W        W 7049   6.317   3.708  26.164  0.2569 -0.2650  0.0940
 4850W        W 7050  11.895   7.107  28.788 -0.1738 -0.1331 -0.0747
 4851W        W 7051  13.841   0.622  28.136 -0.0475  0.1351  0.3924
 4852W        W 7052   5.189   6.065  15.386 -0.2900 -0.2461 -0.2543
 4853W        W 7053  24.835   2.818  10.101 -0.0635 -0.2583 -0.0987
 4854W        W 7054   9.389   4.794  21.138  0.1483 -0.1973 -0.1216
 4855W        W 7055  20.400   6.439   5.403  0.3661 -0.0891 -0.1065
 4856W        W 7056   9.561   5.512   6.446  0.1696 -0.0386  0.2000
 4857W        W 7057   6.490   6.909   7.748  0.1299  0.3866 -0.1168
 4858W        W 7058  18.432   5.027   9.014 -0.0993  0.2634 -0.2810
 4859W        W 7059   2.528   2.120  19.016  0.0402 -0.0315 -0.0475
 4860W        W 7060  20.544   7.350  28.586 -0.0859  0.2347 -0.0016
 4861W        W 7061  24.523   3.648   9.633 -0.0940  0.1136  0.2295
 4862W        W 7062  11.347   6.616  31.187  0.1018 -0.1644  0.0606
 4863W        W 7063   5.725   3.870  31.424  0.2435  0.1743  0.4309
 4864W        W 7064  12.087   1.106  29.465 -0.1713 -0.0489 -0.0168
 4865W        W 7065  18.952   2.649  12.961 -0.0256  0.0870 -0.1517
 4866W        W 7066  21.203   1.725   3.309 -0.0752 -0.2390 -0.1898
 4867W        W 7067   8.109   0.137  14.725 -0.1380  0.1756  0.0124
 4868W        W 7068  17.817   2.932  14.654  0.0881  0.1695  0.4786
 4869W        W 7069  16.720   7.378  30.203  0.1521  0.2036  0.1933
 4870W        W 7070   7.062   6.770  27.645 -0.1515  0.0461 -0.0354
 4871W        W 7071   4.202   2.638   3.014  0.2340  0.0914 -0.4093
 4872W        W 7072  18.155   3.419  31.853  0.0100  0.1422 -0.2277
 4873W        W 7073  21.900   5.575  12.460  0.0486 -0.2728  0.0374
 4874W        W 7074  14.381   5.454  12.780 -0.2715 -0.0710  0.0202
 4875W        W 7075  14.265   4.304   9.798 -0.0846 -0.2131 -0.3662
 4876W        W 7076   8.111   0.239  16.051 -0.0099 -0.1396 -0.1897
 4877W        W 7077  20.605   0.976  10.827 -0.0039  0.0269 -0.0835
 4878W        W 7078   2.019   5.530   6.863  0.1157  0.1210  0.2658
 4879W        W 7079  11.849   4.355   8.026 -0.3019 -0.2254 -0.1622
 4880W        W 7080  11.973   2.797  19.041 -0.1698 -0.0883 -0.0173
 4881W        W 7081  21.383   3.258   8.134  0.0459  0.1753  0.1484
 4882W        W 7082  16.554   6.093   0.506  0.2039 -0.0131  0.1018
 4883W        W 7083   2.363   0.828  31.946 -0.0065  0.2286 -0.0299
 4884W        W 7084  22.243   0.016  24.580  0.2198 -0.2355  0.1651
 4885W        W 7085  11.707   1.980  22.193 -0.3537  0.0007  0.0206
 4886W        W 7086  12.544   6.637   9.268 -0.2154  0.2250  0.3971
 4887W        W 7087  15.706   3.151  29.390  0.2317  0.0734 -0.2686
 4888W        W 7088   9.111   4.843  22.345 -0.3909  0.1733  0.2881
 4889W        W 7089  23.324   0.944   2.376 -0.1275 -0.2628  0.2019
 4890W        W 7090  17.709   4.088   6.947  0.1191  0.2517 -0.1341
 4891W        W 7091   8.181   2.074  23.122 -0.0311  0.2380 -0.0327
 4892W        W 7092   1.454   2.695  18.294 -0.1484  0.1196 -0.2729
 4893W        W 7093  22.878   3.878  22.260 -0.0558 -0.0036 -0.1478
 4894W        W 7094   1.908   6.963  17.410 -0.1082  0.1173 -0.0057
 4895W        W 7095   2.756   5.372  18.355 -0.1386 -0.1331 -0.1473
 4896W        W 7096  24.846   6.956  26.047  0.2799 -0.0207  0.0232
 4897W        W 7097   2.709   7.015  18.517 -0.1834  0.1487 -0.0722
 4898W        W 7098  14.425   7.393  27.023  0.0333  0.0394 -0.0101
 4899W        W 7099  12.022   3.614   6.960  0.0742 -0.0927 -0.0350
 4900W        W 7100   4.602   3.173  17.143 -0.0455  0.4053  0.0660
 4901W        W 7101   4.329   5.475   7.891 -0.2820  0.0361 -0.1159
 4902W        W 7102  11.256   3.388  26.540  0.0957 -0.2349  0.1121
 4903W        W 7103   2.671   6.844  20.192  0.2196  0.0770 -0.0788
 4904W        W 7104  19.827   7.676  12.704 -0.1876 -0.2698 -0.0482
 4905W        W 7105   7.187   3.474   0.508  0.1238 -0.2606  0.0717
 4906W        W 7106  24.430   2.054   0.252  0.2813 -0.1820 -0.3428
 4907W        W 7107   3.109   4.376   0.884 -0.0473  0.0482  0.0676
 4908W        W 7108   8.045   3.752  26.333  0.0405 -0.0796  0.1600
 4909W        W 7109   1.096   5.876   6.771  0.1589 -0.2269  0.1354
 4910W        W 7110  17.005   6.379  10.883  0.2155 -0.0770 -0.1257
 4911W        W 7111   3.770   6.755  30.990 -0.2837 -0.0850  0.0587
 4912W        W 7112   8.130   6.091  23.119 -0.4296  0.0261  0.1134
 4913W        W 7113   3.789   3.437   5.753  0.1647  0.4135 -0.2062
 4914W        W 7114   4.998   7.615   7.888 -0.1270  0.1121  0.0753
 4915W        W 7115  16.091   0.727   6.423  0.0871 -0.0382 -0.1844
 4916W        W 7116  19.200   7.838  31.479 -0.0146  0.1494 -0.0949
 4917W        W 7117  17.659   4.053  23.698 -0.0723 -0.4815  0.1452
 4918W        W 7118  13.562   1.335  11.062  0.1531 -0.2172 -0.2146
 4919W        W 7119   6.177   3.147  26.239  0.2604  0.0789  0.0509
 4920W        W 7120  15.984   0.361  24.047  0.1592 -0.2371 -0.0443
 4921W        W 7121  23.266   0.772  24.338 -0.4176 -0.0764  0.4006
 4922W        W 7122  23.580   1.155  12.617 -0.1857 -0.3460  0.0441
 4923W        W 7123  11.979   5.485   6.606  0.0081  0.0793 -0.0194
 4924W        W 7124  13.205   2.776   5.079  0.0873 -0.1878 -0.3689
 4925W        W 7125  23.910   0.086   4.212 -0.0658 -0.1609 -0.3563
 4926W        W 7126  12.044   4.326  19.788  0.4655  0.2785 -0.4474
 4927W        W 7127   5.744   4.539   5.410  0.0864 -0.0571 -0.0478
 4928W        W 7128   8.117   0.209  14.177 -0.2675 -0.1702  0.3936
 4929W        W 7129   3.527   6.006  24.974 -0.0760  0.0655 -0.1267
 4930W        W 7130  24.186   0.539   0.789  0.0219  0.0806  0.2396
 4931W        W 7131  22.969   7.811  21.301  0.1044 -0.0138 -0.0665
 4932W        W 7132   0.019   5.092   5.846 -0.1711 -0.1961 -0.5852
 4933W        W 7133  12.838   4.634  32.257 -0.0992  0.0438 -0.0574
 4934W        W 7134  23.320   3.814   9.752 -0.2493 -0.2402  0.0127
 4935W        W 7135  13.033   3.284  30.947  0.1023 -0.2474  0.2169
 4936W        W 7136  22.824   0.855  30.795 -0.1819 -0.0553 -0.2412
 4937W        W 7137  15.888   2.652  29.477 -0.1691 -0.1755  0.2373
 4938W        W 7138   8.117   2.516   0.505  0.1855 -0.0824  0.1147
 4939W        W 7139  13.129   5.136   3.852  0.1840 -0.3474 -0.0382
 4940W        W 7140  15.143   5.565  25.022 -0.1804 -0.1404 -0.2590
 4941W        W 7141  21.077   2.588   0.924 -0.2161 -0.2022 -0.1096
 4942W        W 7142  21.383   6.407  31.894  0.0120 -0.3385 -0.0085
 4943W        W 7143   9.438   6.354   7.838  0.1196 -0.2193 -0.0945
 4944W        W 7144  22.218   7.266  26.728  0.0584  0.1870 -0.2702
 4945W        W 7145  17.494   1.936  15.567 -0.0732  0.1314 -0.2372
 4946W        W 7146  20.597   2.192  16.798 -0.0825 -0.0075  0.0298
 4947W        W 7147  16.929   4.890  17.019  0.0331  0.3397  0.2335
 4948W        W 7148  18.399   5.173  14.956 -0.0759  0.0880 -0.0184
 4949W        W 7149  22.079   0.087  24.066 -0.3649 -0.0265 -0.1933
 4950W        W 7150  19.981   5.108  14.742 -0.0343  0.1765 -0.1299
 4951W        W 7151  23.208   6.206   4.054  0.0328  0.0207 -0.0689
 4952W        W 7152  12.272   1.800  11.149  0.1835 -0.3091 -0.1463
 4953W        W 7153  10.818   1.024   9.598  0.5660 -0.0920 -0.2692
 4954W        W 7154   0.839   4.776  21.466  0.0108 -0.2566  0.1393
 4955W        W 7155   3.169   2.626  29.203 -0.3412  0.2017 -0.2915
 4956W        W 7156  21.434   0.076  13.752 -0.2603  0.2037 -0.1399
 4957W        W 7157   9.945   5.112  19.721  0.2511  0.1147 -0.2348
 4958W        W 7158   5.546   0.428   9.050  0.0425  0.0068  0.0654
 4959W        W 7159  14.186   2.772  11.637 -0.0450 -0.0396 -0.3143
 4960W        W 7160  18.242   5.059  23.013  0.0721  0.1992 -0.0650
 4961W        W 7161   1.277   1.218  19.301  0.1001 -0.0333 -0.0582
 4962W        W 7162  24.231   0.504  22.696  0.0340 -0.0466 -0.0903
 4963W        W 7163   0.128   0.958  11.461 -0.0363  0.1354  0.0080
 4964W        W 7164  23.892   1.654  32.115  0.1493 -0.0065 -0.1759
 4965W        W 7165   4.508   0.675   2.114 -0.2285 -0.0722  0.0657
 4966W        W 7166  19.386   1.505   8.531 -0.2768  0.1249 -0.1366
 4967W        W 7167  11.730   1.096  22.844 -0.2343 -0.2337  0.0623
 4968W        W 7168  20.914   3.792  30.440 -0.1886  0.0902  0.2503
 4969W        W 7169   3.652   3.768   2.501 -0.2461 -0.2557  0.3558
 4970W        W 7170  24.022   7.070   6.110 -0.2013 -0.1446  0.1382
 4971W        W 7171  10.388   0.012   6.403  0.3925 -0.0522  0.2969
 4972W        W 7172   3.900   0.839   7.058  0.0318 -0.0358  0.0210
 4973W        W 7173  18.038   4.532  31.114 -0.0941 -0.2330  0.1717
 4974W        W 7174   5.688   1.955  19.641  0.1129 -0.0015  0.1580
 4975W        W 7175  24.399   1.445   2.567  0.0167  0.1672  0.0568
 4976W        W 7176   5.468   4.124   5.916  0.2371  0.0601  0.0058
 4977W        W 7177   5.850   5.358   3.983 -0.1724 -0.1546  0.1661
 4978W        W 7178  17.097   6.330  29.711  0.0171  0.0510  0.0650
 4979W        W 7179   2.352   5.286   0.918 -0.0258 -0.0957  0.0118
 4980W        W 7180   9.055   2.111   1.491 -0.1714  0.2149 -0.0036
 4981W        W 7181   0.165   1.489  32.493  0.3798 -0.1379  0.5393
 4982W        W 7182   0.552   1.925  26.848 -0.1834 -0.0604 -0.0254
 4983W        W 7183  18.115   2.787   5.721  0.2410  0.0706  0.0613
 4984W        W 7184  11.644   5.647   3.740 -0.1803 -0.0161 -0.0743
 4985W        W 7185  22.366   1.688   6.135 -0.0094  0.1237 -0.0122
 4986W        W 7186   6.592   6.500   2.239  0.1163  0.2350 -0.0565
 4987W        W 7187   2.072   6.045   1.877 -0.2060 -0.0587 -0.1453
 4988W        W 7188  24.821   0.294  27.854  0.0268 -0.0790  0.0794
 4989W        W 7189  17.421   6.920  10.366  0.4483 -0.0940  0.0667
 4990W        W 7190   5.199   6.385  14.332  0.1069 -0.0286  0.0622
 4991W        W 7191  11.464   2.362   2.673 -0.1096  0.0636  0.2150
 4992W        W 7192   5.893   2.438  24.228 -0.1753 -0.0700 -0.0663
 4993W        W 7193  13.279   7.027   6.794 -0.4287 -0.5620 -0.0097
 4994W        W 7194  12.703   2.805   5.792  0.0599 -0.0068 -0.0010
 4995W        W 7195   2.454   0.678  19.890 -0.1003 -0.2601 -0.1424
 4996W        W 7196  18.931   2.306   2.945 -0.3138 -0.0759 -0.0335
 4997W        W 7197  22.055   4.952  27.764  0.1301  0.2020  0.1090
 4998W        W 7198  20.193   4.406  12.407  0.0481  0.0422 -0.2043
 4999W        W 7199   5.641   6.758  18.381  0.3731 -0.0224 -0.0047
 5000W        W 7200   2.276   5.104   6.776 -0.1421  0.2623 -0.1140
 5001W        W 7201  23.576   1.354  10.459 -0.0406  0.2057  0.3672
 5002W        W 7202  10.337   4.242  19.222  0.0721  0.0625  0.0677
 5003W        W 7203   3.569   7.146  26.410 -0.2658  0.6117  0.0367
 5004W        W 7204  17.149   6.217   5.042  0.3861  0.0489 -0.1846
 5005W        W 7205  10.863   6.786  26.318 -0.0453  0.1210 -0.0155
 5006W        W 7206   1.071   7.111  28.664  0.1880 -0.0035  0.0883
 5007W        W 7207   5.947   4.795  28.872  0.3154  0.2146 -0.2987
 5008W        W 7208  15.027   6.013   4.405  0.1998  0.2032  0.1723
 5009W        W 7209   6.799   3.276   7.688  0.0208 -0.1061  0.0245
 5010W        W 7210  21.779   7.557  30.841 -0.2507  0.1695 -0.3090
 5011W        W 7211   8.454   1.873  24.898  0.1026 -0.1671  0.2536
 5012W        W 7212  23.914   4.302  27.084  0.0119  0.0057  0.1803
 5013W        W 7213  16.028   6.862  24.261 -0.2242 -0.0852  0.3395
 5014W        W 7214  21.676   5.304  15.661  0.0812  0.0053  0.3270
 5015W        W 7215  12.384   1.646  11.601  0.2574  0.1510  0.0820
 5016W        W 7216   6.681   6.659  19.029  0.0912 -0.2228  0.1921
 5017W        W 7217   0.379   5.055  30.970 -0.0737 -0.1452 -0.0767
 5018W        W 7218  17.085   2.324  22.712  0.1353  0.0924 -0.1238
 5019W        W 7219  24.863   6.841   1.106  0.1908 -0.2882  0.0108
 5020W        W 7220  19.009   1.244  17.477 -0.2167 -0.0442  0.0027
 5021W        W 7221  12.941   6.087   6.577 -0.2072 -0.2229 -0.1884
 5022W        W 7222   3.773   6.174  32.388 -0.1098 -0.2669 -0.2958
 5023W        W 7223   9.656   6.080   9.048  0.0203  0.1366 -0.0066
 5024W        W 7224  20.073   2.414   5.118  0.0321 -0.3137  0.0800
 5025W        W 7225   4.238   1.130   8.915  0.0379  0.1714  0.0735
 5026W        W 7226   1.962   4.389  21.239 -0.2197  0.2255  0.0276
 5027W        W 7227  21.617   5.763  15.805  0.0609  0.0348 -0.0650
 5028W        W 7228  12.828   6.868   5.089  0.0187  0.0167  0.3146
 5029W        W 7229   4.999   6.175   5.395 -0.3104  0.1758 -0.1901
 5030W        W 7230  15.350   0.473  27.159  0.1327 -0.4790 -0.1624
 5031W        W 7231  15.710   6.142  30.021  0.1948  0.1141  0.1877
 5032W        W 7232   6.109   3.447   9.292 -0.2000  0.0562 -0.3648
 5033W        W 7233   3.095   6.823  27.505  0.0410 -0.1173 -0.2142
 5034W        W 7234   3.105   1.171   4.674 -0.0148 -0.0527  0.2851
 5035W        W 7235   9.573   2.661   3.750  0.1141  0.2977  0.4185
 5036W        W 7236   6.149   5.998   4.164  0.1585  0.1609 -0.0508
 5037W        W 7237   3.529   3.924  19.414  0.1399 -0.2772  0.0340
 5038W        W 7238   0.731   5.096  23.498  0.2828 -0.1593  0.1109
 5039W        W 7239   7.283   2.880  22.037 -0.0142  0.3982 -0.0235
 5040W        W 7240  24.057   3.236  24.322 -0.0773 -0.3622  0.0934
 5041W        W 7241   8.332   4.008   5.076 -0.2751  0.0625  0.0511
 5042W        W 7242   2.187   4.473  31.946 -0.1268 -0.0048 -0.0202
 5043W        W 7243  15.291   4.175   1.855  0.0874  0.1578  0.0014
 5044W        W 7244  22.257   7.363  23.782  0.0163 -0.2497  0.1497
 5045W        W 7245   5.603   2.631  24.585  0.0791  0.2315 -0.2248
 5046W        W 7246  22.850   5.748  14.682  0.0406 -0.2488 -0.0399
 5047W        W 7247   4.936   3.193   8.306  0.2370 -0.0127  0.0808
 5048W        W 7248  18.953   3.254  14.775  0.1543 -0.2456 -0.2211
 5049W        W 7249  18.918   6.039   9.085 -0.1301 -0.1073  0.0670
 5050W        W 7250   4.693   4.115  32.247  0.2675  0.0244 -0.0750
 5051W        W 7251  15.501   0.868   8.935 -0.0312 -0.1043 -0.0749
 5052W        W 7252  16.584   7.648   1.117  0.0160  0.2618 -0.1087
 5053W        W 7253   1.549   2.298  26.543  0.2713  0.1591 -0.2275
 5054W        W 7254  13.006   4.407  27.306  0.3151 -0.0234  0.1352
 5055W        W 7255  10.886   4.339  32.232  0.0079 -0.1205 -0.0843
 5056W        W 7256  22.913   1.886  15.948  0.0123  0.1118 -0.0388
 5057W        W 7257  22.826   0.244   0.360  0.0793 -0.3485  0.2905
 5058W        W 7258   7.997   7.530  25.255 -0.2221  0.1020  0.1992
 5059W        W 7259   8.269   0.770   5.243 -0.2163 -0.2447  0.1645
 5060W        W 7260  22.182   1.614  26.272 -0.2238 -0.1232  0.0992
 5061W        W 7261   0.480   6.683  21.440 -0.0727  0.0027 -0.3166
 5062W        W 7262  18.262   5.944  26.286  0.3191  0.0707 -0.0631
 5063W        W 7263   8.821   6.883   2.640 -0.1378  0.1510  0.1301
 5064W        W 7264   1.688   0.311   1.539 -0.2315  0.0937 -0.2860
 5065W        W 7265   1.919   6.736  25.539 -0.0846 -0.1753  0.1301
 5066W        W 7266   6.815   1.794  27.831  0.3019  0.0658  0.0369
 5067W        W 7267  10.244   2.235   7.985 -0.1286  0.2887 -0.0656
 5068W        W 7268  24.143   1.808   4.214 -0.2596  0.1983  0.1079
 5069W        W 7269  14.432   3.856  28.219  0.2962 -0.1243 -0.1170
 5070W        W 7270   7.207   7.618   9.965 -0.0908  0.3145 -0.1381
 5071W        W 7271  19.739   2.764   0.508 -0.0501  0.0360 -0.1166
 5072W        W 7272  21.002   6.475  27.653  0.0789  0.0148  0.0108
 5073W        W 7273  23.929   5.300  31.423  0.0948  0.2341 -0.2517
 5074W        W 7274   3.434   6.707  10.190 -0.0130  0.0983 -0.2860
 5075W        W 7275   8.160   0.283   1.410 -0.1988  0.0876  0.2237
 5076W        W 7276   0.551   4.731   9.352 -0.1443 -0.0863  0.0702
 5077W        W 7277  17.680   4.342   5.193 -0.0225 -0.0950 -0.1862
 5078W        W 7278   7.135   5.847  18.976 -0.2411  0.0738  0.0921
 5079W        W 7279  13.250   4.826  11.480  0.0505  0.0305 -0.2036
 5080W        W 7280  10.156   1.389  16.290 -0.1984  0.0531  0.1500
 5081W        W 7281  17.637   2.976   5.691 -0.1766  0.1241  0.2837
 5082W        W 7282  16.268   6.155  10.563 -0.2725 -0.0973 -0.1471
 5083W        W 7283   8.954   2.476  23.509 -0.3429 -0.1596 -0.1747
 5084W        W 7284  22.814   1.439   2.331  0.3353 -0.0745  0.2405
 5085W        W 7285  14.807   3.347  32.222 -0.0635 -0.1727  0.2370
 5086W        W 7286   9.178   6.715  10.686  0.2340  0.1567  0.0591
 5087W        W 7287  13.472   5.345   8.793  0.0001  0.2867 -0.0356
 5088W        W 7288  18.564   1.193  14.992  0.1484  0.2138  0.2051
 5089W        W 7289  10.447   4.186  21.841  0.2363 -0.0034  0.1892
 5090W        W 7290   2.052   0.141   0.866  0.1758 -0.0150 -0.0546
 5091W        W 7291  22.675   5.398   2.794  0.0251  0.1120 -0.0167
 5092W        W 7292  20.790   3.791  23.452 -0.1119 -0.0255  0.1156
 5093W        W 7293   1.083   0.683   9.392 -0.0286 -0.0134 -0.2482
 5094W        W 7294   5.232   7.289   6.139  0.1055  0.1458 -0.2092
 5095W        W 7295  12.679   1.929  20.618  0.1750  0.0863  0.0034
 5096W        W 7296  16.452   1.881  27.260  0.1835  0.0596 -0.0705
 5097W        W 7297  19.044   7.108  17.418  0.1797 -0.0956  0.0077
 5098W        W 7298   1.709   7.373   5.777  0.0748 -0.2086 -0.0633
 5099W        W 7299   4.208   1.859  28.419  0.1306 -0.0528  0.0128
 5100W        W 7300  12.857   4.868  19.327  0.2505 -0.1510  0.0194
 5101W        W 7301   0.141   7.425   5.114 -0.1227  0.1596  0.1918
 5102W        W 7302  23.774   3.530   1.616 -0.3144 -0.1517  0.0255
 5103W        W 7303   5.585   1.303   7.710 -0.2051 -0.1295  0.0438
 5104W        W 7304   8.692   5.511   0.826 -0.0241 -0.2730 -0.1078
 5105W        W 7305   1.261   6.536   9.155 -0.1449 -0.0304 -0.1651
 5106W        W 7306  18.295   2.612  31.649 -0.0802 -0.0283 -0.2123
 5107W        W 7307  13.442   3.108  23.754 -0.3216  0.1910 -0.1251
 5108W        W 7308  13.769   1.486  20.867  0.2307  0.2913 -0.0250
 5109W        W 7309   3.426   2.835   2.244  0.2266 -0.0933 -0.0696
 5110W        W 7310  24.872   3.496   2.597 -0.0942 -0.1188  0.0798
 5111W        W 7311  16.958   7.499  29.766 -0.0583  0.1957  0.0015
 5112W        W 7312  16.888   3.642  12.969  0.2858  0.1085 -0.0398
 5113W        W 7313   8.328   6.073   9.226 -0.0052 -0.0893  0.2108
 5114W        W 7314  14.744   4.946   5.418  0.1847  0.1171  0.0736
 5115W        W 7315   9.930   5.703   7.708 -0.1689  0.0165 -0.0111
 5116W        W 7316  24.324   2.769   5.211 -0.1962 -0.0038  0.3317
 5117W        W 7317  21.875   2.434   7.310 -0.0473  0.2154 -0.1541
 5118W        W 7318   0.352   6.701   2.180 -0.2293  0.0892 -0.0710
 5119W        W 7319  23.652   1.894   7.821 -0.4057  0.1186  0.2190
 5120W        W 7320  10.207   3.270  24.467  0.0840  0.0746  0.3081
 5121W        W 7321   4.308   4.297   4.655  0.0054  0.0697 -0.0183
 5122W        W 7322   0.792   2.125  28.592 -0.1125 -0.0022 -0.0675
 5123W        W 7323   1.341   0.910   5.643  0.1328 -0.0616 -0.1403
 5124W        W 7324   1.293   3.685  10.279  0.3910 -0.1747  0.3116
 5125W        W 7325  18.445   5.903  25.734  0.0279  0.1209 -0.0089
 5126W        W 7326  18.320   4.179  18.039 -0.1867 -0.1915  0.1232
 5127W        W 7327  14.341   0.785  14.129 -0.0830  0.1411  0.3107
 5128W        W 7328  23.896   0.319  25.385  0.1351 -0.3606 -0.0135
 5129W        W 7329   8.132   2.775  24.342  0.1888 -0.0419  0.3159
 5130W        W 7330  18.943   4.670  15.970  0.0119 -0.1935 -0.0355
 5131W        W 7331  24.629   0.334  30.498 -0.2938 -0.0401  0.3773
 5132W        W 7332  12.670   0.147   4.277  0.0955 -0.0045 -0.1466
 5133W        W 7333   5.811   5.071   3.307  0.0375  0.0699  0.0357
 5134W        W 7334  20.506   3.334  26.174  0.2069  0.1158  0.3163
 5135W        W 7335   1.814   4.917  21.125  0.2055 -0.3289  0.1180
 5136W        W 7336  23.382   1.297  30.336  0.2424  0.1416  0.0954
 5137W        W 7337   1.599   5.315   7.746 -0.1036  0.1228 -0.1333
 5138W        W 7338  15.687   5.655   3.711  0.0339 -0.0732 -0.0777
 5139W        W 7339  16.693   2.955  26.985  0.2740  0.0825  0.0951
 5140W        W 7340  19.228   7.851  28.345  0.0395  0.0807 -0.0189
 5141W        W 7341  16.414   2.929   7.408 -0.2520 -0.0470  0.0758
 5142W        W 7342  11.717   3.699   9.339 -0.0596 -0.3812 -0.0591
 5143W        W 7343   7.552   1.590   6.357 -0.0255  0.0008 -0.0560
 5144W        W 7344  15.338   0.859  27.969 -0.0345  0.3429 -0.0321
 5145W        W 7345  22.818   7.478  21.878 -0.0225  0.1730 -0.4904
 5146W        W 7346  20.270   6.851   0.747 -0.0557  0.3205 -0.0399
 5147W        W 7347  15.104   3.259  12.270 -0.1722 -0.0588  0.0656
 5148W        W 7348   5.373   3.316  23.917  0.0989 -0.1646  0.5603
 5149W        W 7349  20.631   2.355  14.273  0.1518 -0.2999  0.5487
 5150W        W 7350   9.948   7.288  18.032 -0.1402 -0.4021  0.1432
 5151W        W 7351  14.197   4.281   2.010 -0.1473  0.2243  0.0136
 5152W        W 7352  18.834   6.583  24.973 -0.1983  0.1395  0.2682
 5153W        W 7353  15.243   5.384  23.984  0.0760  0.1048 -0.0927
 5154W        W 7354  20.460   6.449  27.584 -0.1639  0.3763  0.0342
 5155W        W 7355  16.691   1.320   6.502  0.2132  0.3059 -0.0406
 5156W        W 7356  10.503   7.381   2.031  0.0650  0.0526 -0.1578
 5157W        W 7357   8.296   6.503  24.455 -0.2184  0.3123 -0.2843
 5158W        W 7358  13.871   4.386  28.173 -0.0199 -0.0963  0.3074
 5159W        W 7359   2.318   0.750   1.423 -0.0117  0.0960 -0.0541
 5160W        W 7360  22.935   1.469   3.064  0.1937  0.0077  0.0480
 5161W        W 7361  17.782   0.471  29.259 -0.2062 -0.2088 -0.2223
 5162W        W 7362  18.836   5.771   3.229  0.0556  0.3265 -0.0212
 5163W        W 7363  10.508   5.062   3.566  0.0295 -0.1083  0.0535
 5164W        W 7364  13.382   7.115   1.467 -0.0708  0.1970  0.1266
 5165W        W 7365  11.805   3.561  19.282  0.0230  0.0323  0.1766
 5166W        W 7366   5.018   4.762   1.052 -0.0043  0.2373  0.0046
 5167W        W 7367  14.316   4.602  28.222 -0.0902 -0.1216  0.0413
 5168W        W 7368  19.542   4.352  16.918  0.0428  0.0439 -0.0967
 5169W        W 7369  23.828   3.254   3.735  0.1294  0.2671 -0.1458
 5170W        W 7370  20.150   3.736   2.674  0.1182 -0.0766 -0.3323
 5171W        W 7371   8.113   0.318  27.266  0.3500  0.2520  0.1781
 5172W        W 7372   0.589   0.980   7.850 -0.3316 -0.0094  0.0486
 5173W        W 7373  22.933   2.373   3.560 -0.0216  0.2829 -0.2506
 5174W        W 7374  12.979   2.035  24.337  0.0376  0.2327  0.0663
 5175W        W 7375  24.873   5.916  25.287 -0.3202  0.0578  0.0145
 5176W        W 7376   6.977   6.946   4.103 -0.0040  0.0600  0.0444
 5177W        W 7377  11.571   1.434  26.743  0.2023  0.0131  0.0331
 5178W        W 7378  15.184   2.230  27.645 -0.1425  0.2735 -0.1036
 5179W        W 7379   3.892   6.240  18.076  0.1510  0.1606  0.1542
 5180W        W 7380  19.088   0.378   3.267 -0.1893 -0.0316  0.2217
 5181W        W 7381  12.977   3.472  21.965 -0.0591 -0.1311 -0.2535
 5182W        W 7382   3.522   4.307  20.259 -0.3991  0.0193  0.1010
 5183W        W 7383   6.708   6.501  23.759 -0.1708  0.1031  0.0854
 5184W        W 7384   8.895   4.268  24.393 -0.2364  0.0114  0.2469
 5185W        W 7385  18.785   2.790   1.365  0.1316  0.2199  0.2637
 5186W        W 7386   1.638   7.726   6.960 -0.2844 -0.0993 -0.1492
 5187W        W 7387  20.529   6.633  22.345 -0.0320 -0.3142 -0.0733
 5188W        W 7388   4.575   7.351  30.971  0.2859  0.0349  0.5017
 5189W        W 7389  10.959   0.728   3.357  0.1539  0.0412  0.2247
 5190W        W 7390   7.510   2.670  28.767  0.0354 -0.0867  0.1588
 5191W        W 7391  19.617   1.408  11.255 -0.2326  0.0319 -0.2859
 5192W        W 7392  14.680   0.125   5.472  0.0148 -0.4007  0.3089
 5193W        W 7393   2.680   7.263  24.213  0.1743  0.0550  0.1964
 5194W        W 7394  16.467   2.602  24.279 -0.2124  0.0903  0.1894
 5195W        W 7395  24.649   2.360  26.284  0.1303  0.0001  0.0954
 5196W        W 7396  20.767   2.196   1.054 -0.2916  0.2085 -0.3152
 5197W        W 7397  12.648   2.304   9.566 -0.0660  0.1985  0.3886
 5198W        W 7398   9.148   3.296   7.079 -0.3450  0.1797 -0.2484
 5199W        W 7399   4.211   6.687  27.394  0.1724 -0.1065  0.1879
 5200W        W 7400  15.902   0.409  11.545 -0.3824  0.2164 -0.0435
 5201W        W 7401   0.487   2.797  26.604  0.1360  0.0234  0.0127
 5202W        W 7402  14.947   6.271  11.220  0.0502 -0.1767 -0.3971
 5203W        W 7403  11.497   6.332   1.090 -0.0428 -0.0229  0.2053
 5204W        W 7404  10.891   5.153   1.297 -0.0166 -0.2429  0.1269
 5205W        W 7405  16.354   1.126  28.504 -0.0658 -0.1893 -0.0689
 5206W        W 7406  10.775   2.555   2.101 -0.3033 -0.2578 -0.0779
 5207W        W 7407  17.055   0.940   1.211  0.1193 -0.0447 -0.0003
 5208W        W 7408  13.749   6.232  29.826  0.1249 -0.1516 -0.3255
 5209W        W 7409   4.203   4.351  32.540  0.1732 -0.0187  0.0817
 5210W        W 7410   2.495   4.628  24.835 -0.0243 -0.3419 -0.1769
 5211W        W 7411   9.439   4.856  28.823 -0.2575 -0.0548 -0.2319
 5212W        W 7412  16.878   1.946  30.416  0.2724  0.0883  0.1957
 5213W        W 7413  20.873   6.628   9.554 -0.0081  0.0723 -0.0287
 5214W        W 7414  10.173   3.238  30.327  0.2236 -0.4049  0.0886
 5215W        W 7415  21.095   4.379  29.665 -0.1003 -0.1663 -0.2166
 5216W        W 7416  14.056   5.701  28.739 -0.2985 -0.2447  0.3508
 5217W        W 7417  15.457   1.863   6.211 -0.0546 -0.0903 -0.1679
 5218W        W 7418   9.339   3.388  19.411 -0.1614  0.1600  0.1448
 5219W        W 7419   9.964   4.770  27.186  0.3419  0.1129  0.0652
 5220W        W 7420   8.861   7.652  31.769 -0.0590 -0.0585 -0.0482
 5221W        W 7421  20.766   7.686  23.150  0.0832 -0.1567  0.2330
 5222W        W 7422   7.221   7.213   3.013  0.2515  0.1058  0.0825
 5223W        W 7423   0.137   3.393  20.184 -0.1674  0.0919  0.3021
 5224W        W 7424   8.170   3.204   0.873  0.0222 -0.2686  0.0192
 5225W        W 7425   1.962   7.827  26.990  0.0261  0.2492 -0.0853
 5226W        W 7426  18.700   1.335  24.828  0.2745 -0.0191 -0.0229
 5227W        W 7427   2.428   2.093  30.438 -0.0966 -0.1151  0.0526
 5228W        W 7428  17.392   2.014   8.345  0.4105  0.1247 -0.0308
 5229W        W 7429  24.400   3.314  29.231 -0.0220 -0.1632  0.2688
 5230W        W 7430  17.905   6.961   3.897 -0.2190 -0.2631 -0.0706
 5231W        W 7431   1.568   4.954  32.067 -0.0486  0.1352  0.2269
 5232W        W 7432  16.779   6.619  30.320 -0.0345  0.0754 -0.0598
 5233W        W 7433   3.586   2.759  29.687  0.0929  0.0855 -0.0633
 5234W        W 7434  18.365   5.189   5.611 -0.1046  0.2996 -0.1439
 5235W        W 7435  23.271   0.042  22.936  0.1739  0.3622 -0.0430
 5236W        W 7436   8.273   3.801  27.679 -0.3770  0.2345 -0.1131
 5237W        W 7437  18.674   6.799   8.515 -0.0975  0.0820 -0.0388
 5238W        W 7438  13.877   1.743  23.160 -0.0581 -0.3699  0.2462
 5239W        W 7439  24.958   4.270  23.445 -0.2276 -0.1297 -0.1242
 5240W        W 7440  13.656   5.374   6.696  0.1771  0.1593  0.2807
 5241W        W 7441  24.910   5.683   0.551  0.0171  0.3485 -0.0579
 5242W        W 7442  14.652   6.949  25.436  0.1840  0.1168 -0.1785
 5243W        W 7443  20.626   2.290  17.362  0.2749 -0.1292  0.5241
 5244W        W 7444  20.035   4.460   6.003  0.0513 -0.0381  0.3668
 5245W        W 7445  23.316   2.769   3.430 -0.1917  0.3595  0.0070
 5246W        W 7446   2.456   6.303  26.190  0.2117 -0.0283  0.0068
 5247W        W 7447  17.242   4.469  23.009 -0.0455  0.0072  0.1465
 5248W        W 7448  19.918   6.649  15.780 -0.1622 -0.1223  0.2407
 5249W        W 7449   6.972   2.584   1.759 -0.1020  0.2467  0.1243
 5250W        W 7450   5.655   6.939   7.277  0.2708  0.0734 -0.0796
 5251W        W 7451  18.961   2.962  25.139 -0.1663 -0.1481 -0.2676
 5252W        W 7452  20.449   4.294  16.133  0.1553  0.2055 -0.0346
 5253W        W 7453  18.514   6.523  28.490  0.1583  0.0848  0.0081
 5254W        W 7454   0.348   6.414  28.753 -0.1422 -0.0170 -0.0966
 5255W        W 7455  12.638   3.618   1.408  0.0958  0.2375  0.1270
 5256W        W 7456  11.762   0.760   3.193 -0.5478  0.2850  0.2175
 5257W        W 7457  11.219   2.630  22.269 -0.0577 -0.2151 -0.0240
 5258W        W 7458  21.749   3.723  24.215 -0.1302 -0.1035 -0.1421
 5259W        W 7459  18.649   0.263  11.968  0.1109 -0.1695  0.1932
 5260W        W 7460   5.363   3.296  17.521 -0.0394 -0.1723  0.2271
 5261W        W 7461  11.147   1.397  32.478  0.3208  0.0121  0.0783
 5262W        W 7462  23.390   5.088   3.754 -0.4225 -0.2044 -0.0771
 5263W        W 7463   9.043   4.856  27.872 -0.2192 -0.1048 -0.1269
 5264W        W 7464  24.888   5.227   6.290  0.0558 -0.2041 -0.0739
 5265W        W 7465  19.847   4.888   2.436  0.1590 -0.2008  0.1526
 5266W        W 7466   6.085   5.034  10.125 -0.3050 -0.4137 -0.3744
 5267W        W 7467  17.566   3.055  15.099 -0.0768 -0.0096  0.0307
 5268W        W 7468  19.651   4.565  26.998  0.2368 -0.2628 -0.1374
 5269W        W 7469  21.690   3.386  21.575  0.1740 -0.0285  0.0727
 5270W        W 7470  21.302   3.661  14.749 -0.3091 -0.1190  0.2104
 5271W        W 7471  19.261   1.750  30.703  0.1545  0.2981 -0.0317
 5272W        W 7472  12.729   0.456  23.659 -0.0350  0.0323 -0.0060
 5273W        W 7473   9.314   4.348   9.523  0.2699 -0.0454 -0.1124
 5274W        W 7474  19.824   3.927  32.476  0.1539  0.1207  0.2049
 5275W        W 7475  13.835   2.836  21.084  0.0550  0.2118 -0.0861
 5276W        W 7476  15.502   6.012  29.510  0.1696 -0.0010  0.2571
 5277W        W 7477  16.597   2.548   6.717  0.0554 -0.0461 -0.0937
 5278W        W 7478  12.495   3.182  27.037  0.3336  0.1498  0.0970
 5279W        W 7479  14.829   3.570  22.036 -0.1878  0.1615  0.1815
 5280W        W 7480  21.990   1.006   6.894 -0.0330  0.2494  0.1376
 5281W        W 7481  14.664   7.545  26.498  0.3318  0.2480  0.0812
 5282W        W 7482   8.003   0.611  25.700  0.1498  0.0201 -0.0573
 5283W        W 7483  21.858   1.172   9.757  0.1563 -0.0229 -0.0925
 5284W        W 7484  10.507   5.710  20.098  0.1197 -0.0151 -0.1615
 5285W        W 7485  11.108   7.760  21.613 -0.1048  0.0273  0.3529
 5286W        W 7486   4.948   2.949  27.297 -0.2050  0.3133 -0.3456
 5287W        W 7487  11.970   0.333   7.244  0.0186 -0.1716  0.0590
 5288W        W 7488   6.042   3.032  15.989  0.2259  0.1613 -0.0524
 5289W        W 7489  20.188   2.775   0.826 -0.0901 -0.2872 -0.3681
 5290W        W 7490   4.263   0.852  17.149 -0.2813 -0.2896 -0.3297
 5291W        W 7491  23.660   5.614  10.594  0.0498 -0.1080  0.3067
 5292W        W 7492   7.480   4.254   0.827  0.2163  0.0076 -0.0489
 5293W        W 7493  14.942   5.384   3.144 -0.0470 -0.0698 -0.3990
 5294W        W 7494   0.486   0.541  20.393  0.0256  0.3332  0.0514
 5295W        W 7495   6.500   2.380   0.665  0.1023 -0.0406  0.0028
 5296W        W 7496  16.925   0.376  31.913 -0.0682 -0.1550  0.1408
 5297W        W 7497  24.534   3.190  27.295  0.2020 -0.3961  0.0089
 5298W        W 7498   0.299   0.353  23.200 -0.3761 -0.1979 -0.1781
 5299W        W 7499   8.882   2.668  20.648  0.4628  0.0911  0.2177
 5300W        W 7500  14.960   2.870  24.310 -0.0305 -0.4303 -0.0071
 5301W        W 7501   1.560   0.955  26.883  0.0532  0.0186 -0.2455
 5302W        W 7502  23.268   6.719   2.781  0.1854 -0.1903  0.1723
 5303W        W 7503  19.011   3.085  24.064 -0.0744 -0.1963 -0.0391
 5304W        W 7504  18.834   6.030  16.636  0.5617  0.4793  0.1178
 5305W        W 7505  19.139   0.624   1.125 -0.1661 -0.1710  0.3188
 5306W        W 7506  18.986   5.106   8.240  0.4426 -0.0706 -0.0795
 5307W        W 7507  18.690   7.284  30.922 -0.0982  0.1957 -0.3175
 5308W        W 7508   5.282   0.612  32.042 -0.0701  0.1259 -0.0133
 5309W        W 7509  19.995   7.322   1.686  0.1607  0.2103 -0.0305
 5310W        W 7510  18.452   4.092  24.812  0.2070 -0.0567  0.0709
 5311W        W 7511   5.575   3.254  21.942  0.1166 -0.1493  0.1860
 5312W        W 7512   4.626   3.262   9.509  0.2547 -0.0589 -0.0124
 5313W        W 7513   2.144   1.088   7.479 -0.0656  0.0943  0.1296
 5314W        W 7514  23.401   0.282   5.868  0.0838 -0.2097  0.0380
 5315W        W 7515  22.645   4.535  21.349  0.0242 -0.2771  0.0836
 5316W        W 7516   6.431   4.231   9.093  0.1483 -0.3613  0.2455
 5317W        W 7517  22.469   0.137   6.209  0.1910 -0.1554 -0.0927
 5318W        W 7518  10.576   2.827  31.522  0.0660  0.4935 -0.0022
 5319W        W 7519   6.445   7.176  21.442  0.2182 -0.0643  0.1795
 5320W        W 7520  21.890   5.671  31.709 -0.2763 -0.0655 -0.0441
 5321W        W 7521  16.845   7.458  28.324  0.3420 -0.0587 -0.1031
 5322W        W 7522  13.495   4.398   6.705 -0.1958 -0.3080 -0.1986
 5323W        W 7523   0.929   6.842   4.500  0.0846 -0.0769 -0.0466
 5324W        W 7524  18.789   7.844   3.514  0.3361 -0.0922 -0.2683
 5325W        W 7525  18.282   1.982  27.491 -0.2921 -0.0467 -0.0303
 5326W        W 7526  20.809   2.902  10.132  0.0149  0.1594 -0.2667
 5327W        W 7527  20.853   7.113   6.086  0.1552  0.2909  0.2666
 5328W        W 7528  22.791   1.799  28.305  0.2097 -0.0435 -0.2676
 5329W        W 7529   2.628   0.989   6.324 -0.0129  0.1580  0.1395
 5330W        W 7530   6.228   1.407  24.843  0.0976  0.4385 -0.1356
 5331W        W 7531   9.294   5.909   8.696  0.1732  0.2370  0.0117
 5332W        W 7532   3.175   4.393  24.358 -0.2277  0.0648 -0.0983
 5333W        W 7533  16.541   2.737  32.105  0.0676 -0.1818  0.2673
 5334W        W 7534  13.820   6.013  30.259  0.0309 -0.3794  0.4131
 5335W        W 7535  21.106   7.780   5.533  0.0770  0.0366  0.2139
 5336W        W 7536  13.168   6.555  11.531 -0.0932  0.2592 -0.1673
 5337W        W 7537  12.755   0.844  26.832  0.3890  0.1887 -0.0925
 5338W        W 7538  24.966   1.795   9.029  0.1046  0.1569  0.0169
 5339W        W 7539   6.612   5.222   8.823 -0.0131 -0.1611  0.1471
 5340W        W 7540  21.388   3.664  16.064  0.2336 -0.3356 -0.3261
 5341W        W 7541  11.897   2.368   8.859  0.0188  0.1309  0.1228
 5342W        W 7542  12.260   1.333   8.912  0.0144  0.2109  0.0296
 5343W        W 7543   3.949   4.679  20.214  0.0340  0.0648  0.1671
 5344W        W 7544  12.242   3.130   9.990  0.1258 -0.3629 -0.2463
 5345W        W 7545  23.161   5.394  32.160  0.0198 -0.1772  0.0224
 5346W        W 7546  23.697   3.178  29.948 -0.3592  0.0995  0.0978
 5347W        W 7547  19.662   4.569  17.985 -0.1982  0.4470 -0.2435
 5348W        W 7548  24.218   5.072   0.158  0.1433  0.0769  0.3011
 5349W        W 7549  13.482   4.527   5.957 -0.1564  0.1103 -0.1549
 5350W        W 7550  23.695   1.393   2.812 -0.1882  0.3019  0.1401
 5351W        W 7551  21.957   3.876  16.634 -0.2225  0.1015 -0.2356
 5352W        W 7552  13.237   5.106  30.717 -0.0178  0.0045  0.1516
 5353W        W 7553  14.268   7.851  30.479 -0.1405  0.3140 -0.2800
 5354W        W 7554  12.480   4.013   0.192 -0.1612  0.0235  0.3199
 5355W        W 7555  12.669   7.558   1.105 -0.1614 -0.2551 -0.2344
 5356W        W 7556  11.959   0.353  25.250  0.2778 -0.1011  0.0056
 5357W        W 7557  15.508   0.891  27.426 -0.1663  0.0764 -0.1013
 5358W        W 7558  11.682   1.230   1.587 -0.0463  0.0246  0.1439
 5359W        W 7559   3.564   6.981   4.951  0.0497  0.3620  0.0757
 5360W        W 7560  22.354   2.486  28.359  0.3400  0.0873 -0.1464
 5361W        W 7561  13.094   0.003  29.856 -0.2475  0.3265 -0.0336
 5362W        W 7562   7.481   6.672   6.976 -0.0246 -0.1530  0.1302
 5363W        W 7563  19.816   5.742  31.925  0.0406  0.1709  0.1742
 5364W        W 7564  16.147   0.013   8.614  0.0184 -0.5165 -0.0533
 5365W        W 7565   5.040   2.354   2.146  0.1752  0.1003  0.1785
 5366W        W 7566  22.195   5.374   2.648  0.1097  0.0325  0.2132
 5367W        W 7567   0.790   5.238   3.817 -0.0192  0.3404 -0.1983
 5368W        W 7568  12.214   3.177  19.292  0.0950  0.1259 -0.0231
 5369W        W 7569  17.171   1.005  28.577 -0.1639  0.1756 -0.0921
 5370W        W 7570  20.785   5.907  24.654  0.0855 -0.3264 -0.0773
 5371W        W 7571  14.919   3.027   2.271  0.1915 -0.0128  0.0808
 5372W        W 7572  23.490   5.019  27.353 -0.2567 -0.2798 -0.0712
 5373W        W 7573  23.205   1.866  27.870 -0.1090 -0.2774 -0.1931
 5374W        W 7574  14.201   5.326  10.683  0.3173  0.2170  0.4290
 5375W        W 7575  11.564   6.692   4.221  0.1411 -0.0276 -0.2181
 5376W        W 7576   1.378   5.980   9.022 -0.0204 -0.0178 -0.1656
 5377W        W 7577   4.259   2.732  30.281  0.0098  0.0858 -0.0541
 5378W        W 7578   3.949   4.217  16.784 -0.1747  0.2448 -0.0802
 5379W        W 7579   5.058   5.410  26.563 -0.1499  0.2070 -0.0390
 5380W        W 7580   7.269   1.335   4.078  0.1418 -0.1214 -0.2013
 5381W        W 7581   0.574   7.622   1.283  0.4305  0.0703 -0.0626
 5382W        W 7582  20.112   1.711  13.184  0.0006  0.0230  0.0989
 5383W        W 7583  24.311   7.041  25.976  0.0730  0.1542 -0.1754
 5384W        W 7584  18.895   7.061   9.312 -0.2054  0.3458 -0.3313
 5385W        W 7585  11.357   4.053  28.846 -0.0477 -0.1418  0.0253
 5386W        W 7586  16.811   5.194   9.643  0.0807 -0.1833  0.5702
 5387W        W 7587  20.733   7.301   3.366 -0.1370  0.0328 -0.0916
 5388W        W 7588  15.061   0.760  11.571  0.0089  0.0430 -0.3837
 5389W        W 7589  10.425   7.518   2.545  0.0724  0.0958 -0.1260
 5390W        W 7590  16.726   1.571   8.479  0.0975  0.3670  0.0782
 5391W        W 7591  22.201   4.110   4.725 -0.0934  0.2342  0.2825
 5392W        W 7592   6.416   4.561  23.625  0.1795 -0.2962 -0.1591
 5393W        W 7593   5.057   0.039  26.652  0.1368 -0.1257 -0.0940
 5394W        W 7594   5.894   6.471   7.108 -0.0509 -0.2174 -0.2141
 5395W        W 7595   5.361   7.729  25.422 -0.2556 -0.0438 -0.0253
 5396W        W 7596  22.171   3.264  30.482 -0.1648  0.1099  0.0429
 5397W        W 7597  17.230   1.568   7.377 -0.1456  0.0670 -0.1231
 5398W        W 7598   2.728   2.244  31.966 -0.1328  0.0367 -0.4490
 5399W        W 7599   5.880   3.855   2.496  0.0658 -0.1441 -0.0297
 5400W        W 7600   4.037   6.746  29.488 -0.1138  0.1740  0.1060
 5401W        W 7601  23.735   1.522  29.319 -0.2693  0.0270  0.0731
 5402W        W 7602  12.684   1.768  10.751 -0.0314 -0.1839  0.3112
 5403W        W 7603  18.939   1.753  17.416  0.1826 -0.4331 -0.1762
 5404W        W 7604   4.037   1.754  17.995  0.0768  0.0947 -0.2321
 5405W        W 7605   1.330   0.513  10.617  0.0590 -0.1539  0.0855
 5406W        W 7606   7.520   4.156   2.381  0.0310  0.1540 -0.0129
 5407W        W 7607   9.877   4.464   5.982 -0.2120  0.0655 -0.2902
 5408W        W 7608  17.915   5.396   5.543  0.0709 -0.0015  0.1825
 5409W        W 7609   6.216   0.309  23.661 -0.1076  0.1852 -0.3229
 5410W        W 7610  18.159   7.138  18.159 -0.2856  0.0499 -0.2773
 5411W        W 7611  23.039   0.013   9.255  0.1814 -0.0268 -0.1163
 5412W        W 7612  18.284   0.087   3.590  0.1094  0.0502  0.1388
 5413W        W 7613  13.549   7.575  29.732 -0.0194  0.1260  0.2887
 5414W        W 7614  20.154   6.881   9.170  0.1486 -0.0296 -0.0629
 5415W        W 7615   7.906   6.175  24.413  0.0154  0.0833 -0.0989
 5416W        W 7616  22.858   1.196  31.192  0.1446 -0.0444  0.0649
 5417W        W 7617   6.743   4.935  30.402  0.0284  0.0663  0.0980
 5418W        W 7618   9.893   7.379  24.091  0.0945  0.0841  0.5818
 5419W        W 7619  20.048   6.324  12.003  0.0144 -0.0630 -0.3336
 5420W        W 7620   0.626   3.495  11.134  0.0733 -0.1495  0.1077
 5421W        W 7621   0.619   7.526   9.346 -0.2610  0.0467 -0.0567
 5422W        W 7622  15.868   3.511   6.193  0.1529  0.1264 -0.1189
 5423W        W 7623  21.498   3.486   8.614  0.3007 -0.0964 -0.1872
 5424W        W 7624  16.391   2.072  12.175 -0.0233  0.0522 -0.0444
 5425W        W 7625   3.632   2.995  10.626 -0.1641 -0.1101 -0.0644
 5426W        W 7626   8.647   5.388  15.458  0.2489 -0.0400  0.1300
 5427W        W 7627  22.734   7.538  27.760 -0.1812  0.1616  0.0190
 5428W        W 7628  19.576   1.889  32.104  0.0640  0.2201  0.1637
 5429W        W 7629  24.369   3.452   2.319 -0.0689 -0.0667  0.2078
 5430W        W 7630   7.798   0.831  15.174 -0.2466  0.1516  0.0106
 5431W        W 7631  23.330   1.008  10.117 -0.0139 -0.2397  0.0871
 5432W        W 7632   9.875   4.113   5.592  0.0896  0.0006 -0.1002
 5433W        W 7633   7.544   4.393  23.998 -0.0101  0.2578  0.0034
 5434W        W 7634   5.251   6.156  30.275 -0.1883 -0.2766  0.0827
 5435W        W 7635  15.623   6.056  28.179 -0.1108  0.1116 -0.3178
 5436W        W 7636  14.084   5.909  13.165  0.1907  0.1836  0.1632
 5437W        W 7637  22.524   6.813  14.530 -0.1592 -0.4154 -0.0663
 5438W        W 7638  22.451   4.275   6.906 -0.1218 -0.0227  0.2065
 5439W        W 7639  20.835   0.948   4.558  0.1832 -0.4150  0.1204
 5440W        W 7640   8.116   2.449  30.133 -0.1936  0.0240 -0.1226
 5441W        W 7641  14.369   1.037  13.126  0.2389  0.2708  0.2854
 5442W        W 7642   0.387   0.417  26.341 -0.1240  0.1998  0.4139
 5443W        W 7643   1.788   5.164   2.257 -0.0821 -0.2333  0.2941
 5444W        W 7644  19.602   2.130   8.526 -0.1097 -0.1314  0.0505
 5445W        W 7645  20.324   6.356  29.417 -0.2483 -0.1899 -0.1275
 5446W        W 7646  18.951   5.148  30.008 -0.1392  0.1518 -0.0681
 5447W        W 7647  20.564   0.706  32.003 -0.1238 -0.2103  0.3089
 5448W        W 7648  12.311   2.996   0.210  0.1256 -0.1470  0.0488
 5449W        W 7649   4.694   4.195   0.156  0.2201 -0.2995 -0.0873
 5450W        W 7650  19.684   3.161   8.190 -0.0096 -0.1559  0.1490
 5451W        W 7651   7.049   6.967   7.570  0.2799  0.2323 -0.0761
 5452W        W 7652  17.553   5.340  13.948 -0.3419  0.0333 -0.1223
 5453W        W 7653  17.334   6.617  12.138 -0.1979 -0.0174 -0.2942
 5454W        W 7654  15.920   1.127  22.621 -0.0844 -0.1243  0.3762
 5455W        W 7655  14.619   2.050   6.287  0.0200  0.0300  0.1813
 5456W        W 7656   9.392   1.891  21.293 -0.3745  0.0714 -0.1565
 5457W        W 7657   9.635   0.416  25.619  0.2203  0.1965  0.0654
 5458W        W 7658   2.608   0.929   6.827  0.2019  0.0594  0.3444
 5459W        W 7659   5.510   3.343   5.243  0.1702 -0.1922 -0.1452
 5460W        W 7660   1.970   2.186   9.564  0.1489  0.3117  0.1372
 5461W        W 7661   5.542   6.671   0.653 -0.0075  0.3175  0.2192
 5462W        W 7662   7.452   5.436  18.260  0.0911  0.3320  0.0295
 5463W        W 7663   9.282   4.483  29.132  0.0386 -0.1494  0.1149
 5464W        W 7664  19.738   3.765   1.046  0.2340  0.0742  0.0049
 5465W        W 7665  21.657   6.127   8.201 -0.4132  0.0395 -0.1238
 5466W        W 7666  17.103   4.598  27.269  0.1061  0.1791 -0.0528
 5467W        W 7667  13.179   1.884   7.747 -0.2652  0.0664  0.0266
 5468W        W 7668  22.165   2.732  29.759  0.0391 -0.1375 -0.0990
 5469W        W 7669  14.697   0.484  13.805  0.1943 -0.0219  0.0103
 5470W        W 7670  23.381   4.021   5.896 -0.2507  0.1886 -0.0785
 5471W        W 7671   6.849   3.378  16.364 -0.3042 -0.2471 -0.0052
 5472W        W 7672   1.679   4.007   4.225 -0.0251  0.1331 -0.1162
 5473W        W 7673  18.420   1.298  24.231  0.1570 -0.0566 -0.3005
 5474W        W 7674  23.020   3.013  29.252  0.0490  0.1461  0.0844
 5475W        W 7675  22.019   7.113   4.280  0.0906 -0.1466  0.0967
 5476W        W 7676  23.938   0.233   9.250  0.5385 -0.1404 -0.1263
 5477W        W 7677  21.567   4.644   6.314 -0.1011 -0.1376  0.4291
 5478W        W 7678  15.398   0.607  28.897  0.2990 -0.3387 -0.2170
 5479W        W 7679   0.839   5.754  22.240  0.0645  0.2513 -0.2011
 5480W        W 7680   6.258   4.194   7.361 -0.1792  0.1141 -0.0760
 5481W        W 7681  16.733   7.188  27.820  0.2137 -0.2731  0.1608
 5482W        W 7682   1.188   7.097  10.977  0.0935 -0.0298 -0.0375
 5483W        W 7683  14.391   0.180   1.840 -0.2812 -0.2239 -0.4679
 5484W        W 7684   3.840   7.246   6.059  0.1890 -0.1696 -0.2367
 5485W        W 7685   7.808   7.126  18.876  0.0761  0.1716 -0.2343
 5486W        W 7686  24.334   7.055   5.077  0.2171 -0.0957  0.0305
 5487W        W 7687   2.694   3.224  19.562 -0.1079 -0.0647  0.0438
 5488W        W 7688  20.634   5.903  25.858  0.2590  0.0009 -0.2528
 5489W        W 7689   9.233   1.300   7.932  0.0719 -0.4221 -0.2020
 5490W        W 7690   9.012   1.663  28.760  0.0434 -0.0517  0.1850
 5491W        W 7691   2.750   0.655  17.915 -0.1350 -0.1394  0.0188
 5492W        W 7692  13.929   0.882   4.340  0.4100  0.2438  0.4776
 5493W        W 7693  10.045   7.606  23.648 -0.0702 -0.1036  0.2671
 5494W        W 7694  10.933   5.797  18.464 -0.0174 -0.0362 -0.2625
 5495W        W 7695   2.535   5.372   4.174 -0.1353  0.0971 -0.1042
 5496W        W 7696  13.501   0.119  30.369  0.0735 -0.0387  0.0336
 5497W        W 7697  16.517   0.483   9.038 -0.0354  0.0843 -0.0465
 5498W        W 7698  21.453   7.580  22.433 -0.3308 -0.0142 -0.0719
 5499W        W 7699   4.232   5.877  19.213 -0.2060  0.1814  0.3378
 5500W        W 7700   5.084   2.421  29.120  0.0785 -0.0701  0.1040
 5501W        W 7701  24.967   2.450  21.053 -0.0734 -0.0375 -0.0441
 5502W        W 7702   6.785   1.656  31.536 -0.1362  0.0204  0.0053
 5503W        W 7703   3.443   2.210  17.721  0.1980  0.0682 -0.0036
 5504W        W 7704  21.229   7.616   9.868 -0.0080  0.0926  0.0507
 5505W        W 7705   4.680   0.757   8.210 -0.0034 -0.1075  0.0207
 5506W        W 7706   6.967   0.319   1.692  0.1104 -0.0183 -0.1244
 5507W        W 7707   1.099   5.539  11.529 -0.2608  0.4427  0.4483
 5508W        W 7708  14.947   0.027  26.296 -0.0438 -0.2988  0.0396
 5509W        W 7709   6.668   2.890  18.421 -0.0838  0.3128  0.1047
 5510W        W 7710   8.333   0.798   4.492 -0.3357 -0.1192 -0.0977
 5511W        W 7711   5.986   6.083   9.455  0.2310  0.0234 -0.2790
 5512W        W 7712   2.093   1.996  30.117 -0.0982  0.2950  0.1748
 5513W        W 7713  10.576   0.250  25.393 -0.3207  0.1720 -0.1417
 5514W        W 7714  24.459   4.958   0.847  0.2196  0.2365 -0.0179
 5515W        W 7715   5.251   5.334   1.427  0.1854  0.3157  0.1877
 5516W        W 7716  12.538   7.623  24.132  0.1298  0.1257 -0.0055
 5517W        W 7717  24.167   0.469  11.834  0.1052 -0.0681  0.0899
 5518W        W 7718   5.952   3.881  23.113 -0.2372  0.0760 -0.1646
 5519W        W 7719  21.223   2.743  23.424 -0.0439  0.0848  0.0336
 5520W        W 7720  14.511   5.330   7.189 -0.0225 -0.1143  0.1293
 5521W        W 7721   7.320   1.919   3.981  0.2996  0.3288  0.1419
 5522W        W 7722  15.717   7.690  30.055 -0.0289 -0.3442  0.0832
 5523W        W 7723  19.574   4.188  13.212 -0.1873  0.1669  0.1280
 5524W        W 7724  14.495   0.522   7.009 -0.0082  0.0552  0.2389
 5525W        W 7725   1.804   7.474  26.689 -0.4951 -0.3398 -0.1349
 5526W        W 7726   4.872   2.395   9.437  0.1373 -0.0758 -0.0827
 5527W        W 7727   6.992   7.117  29.368 -0.2732  0.0093  0.2078
 5528W        W 7728  17.288   3.254   8.012 -0.1284  0.0188  0.1465
 5529W        W 7729  16.936   2.950   5.157 -0.3336  0.1889  0.1264
 5530W        W 7730  10.613   5.406  28.918  0.2520  0.2205  0.2507
 5531W        W 7731  10.717   3.636  20.320  0.1857  0.0107  0.0678
 5532W        W 7732   2.554   0.122  20.963 -0.1936  0.0874 -0.0203
 5533W        W 7733   0.921   6.931  23.468  0.1183  0.0862  0.1087
 5534W        W 7734  11.427   7.676   2.470 -0.1239  0.0999 -0.0437
 5535W        W 7735  14.615   4.751   7.194 -0.0077 -0.1417  0.0833
 5536W        W 7736  20.564   6.265   3.273  0.0547  0.0436  0.0876
 5537W        W 7737   9.890   2.287   2.037  0.0093  0.2753  0.1370
 5538W        W 7738  18.652   2.806  12.546  0.0241 -0.0741  0.5383
 5539W        W 7739  11.880   1.155   0.568  0.2417 -0.0436 -0.0267
 5540W        W 7740   7.659   6.934   7.383  0.0406  0.2355 -0.0600
 5541W        W 7741   7.448   0.798   6.890 -0.1635  0.1266  0.0491
 5542W        W 7742  19.209   2.608   6.642 -0.0222  0.1139 -0.1246
 5543W        W 7743   8.031   0.942  17.802  0.0030  0.0848  0.0338
 5544W        W 7744   6.629   6.582  21.872  0.1692  0.1538  0.0110
 5545W        W 7745   8.678   3.991   6.807 -0.2114 -0.0753  0.2577
 5546W        W 7746  24.159   7.414  10.701  0.0017  0.0928  0.1205
 5547W        W 7747  16.115   3.485  31.404 -0.4826 -0.0228  0.3000
 5548W        W 7748  21.102   4.924   1.136 -0.0585  0.0068 -0.0690
 5549W        W 7749   3.416   1.225  24.108 -0.0340  0.4014  0.0787
 5550W        W 7750   7.677   0.211  24.481  0.1895  0.2083  0.0361
 5551W        W 7751  15.565   4.461  27.393  0.2773 -0.2226  0.2420
 5552W        W 7752   4.308   3.189   2.780 -0.2566 -0.0657 -0.1003
 5553W        W 7753   3.070   1.986   3.856  0.0908  0.0378 -0.2967
 5554W        W 7754   8.513   5.516  31.867 -0.0588 -0.0284  0.0213
 5555W        W 7755  15.616   1.767  28.052  0.3915 -0.4450  0.3952
 5556W        W 7756  12.714   1.971   8.654  0.0115  0.2047  0.1213
 5557W        W 7757   5.788   5.830   2.795  0.0322 -0.1666 -0.0093
 5558W        W 7758  19.216   5.695   4.834 -0.0888 -0.0875  0.2666
 5559W        W 7759   8.508   2.006  32.269  0.0397  0.0418 -0.1210
 5560W        W 7760  23.920   7.701  10.990  0.1220  0.3379  0.0357
 5561W        W 7761  23.477   5.802  26.313  0.1975 -0.1571  0.0865
 5562W        W 7762  25.044   6.028  22.226  0.3230 -0.0448  0.1018
 5563W        W 7763  11.709   0.137   3.743  0.1409  0.0998  0.0363
 5564W        W 7764   0.626   0.631   6.708  0.3835  0.2908  0.0371
 5565W        W 7765  23.743   6.515   2.902  0.4119 -0.2384 -0.0246
 5566W        W 7766   6.072   2.866  25.758 -0.0799  0.1294 -0.2572
 5567W        W 7767  10.504   0.454  30.487 -0.0692  0.0220  0.0488
 5568W        W 7768  20.077   3.011  28.490  0.1600 -0.0800 -0.1578
 5569W        W 7769   3.196   1.622  10.593  0.1102 -0.0663 -0.1117
 5570W        W 7770   6.537   7.195  31.676 -0.1784 -0.3112  0.0248
 5571W        W 7771  13.918   7.803  30.012  0.2824  0.4035  0.0325
 5572W        W 7772  22.123   3.832  26.527 -0.2124 -0.4389 -0.2693
 5573W        W 7773  24.976   0.021  11.628 -0.0426  0.2555  0.1289
 5574W        W 7774   8.280   2.120  21.019 -0.1559 -0.1265 -0.0470
 5575W        W 7775  25.015   0.705  26.439  0.0669 -0.0886 -0.1079
 5576W        W 7776  20.789   2.133   5.177  0.0406  0.2851  0.0856
 5577W        W 7777  19.604   2.783  24.623  0.1379  0.2138 -0.2917
 5578W        W 7778  12.942   6.294  21.337  0.1347  0.1464 -0.0359
 5579W        W 7779  24.816   4.461  28.906 -0.0289 -0.1790 -0.0130
 5580W        W 7780   9.823   6.973   5.929 -0.0649  0.3571 -0.0854
 5581W        W 7781  17.048   6.680  16.194 -0.1999 -0.0374  0.2909
 5582W        W 7782   2.122   2.273  27.838  0.1130 -0.1318  0.2530
 5583W        W 7783  18.938   1.409  11.502  0.1005  0.1105  0.1973
 5584W        W 7784  16.073   7.314  15.414  0.0480  0.1940 -0.0440
 5585W        W 7785  10.521   3.457  31.785  0.2865 -0.3131  0.0948
 5586W        W 7786   1.542   1.479   8.875 -0.2245  0.0790  0.2463
 5587W        W 7787   1.019   4.355  12.849  0.1609 -0.2745 -0.0007
 5588W        W 7788   3.961   4.355   3.215 -0.2261  0.1061 -0.2410
 5589W        W 7789   7.371   0.772   9.812 -0.0848 -0.0850  0.1497
 5590W        W 7790  15.280   2.109  23.831  0.3412 -0.3904  0.0502
 5591W        W 7791   7.131   5.136   4.297  0.1571 -0.0498 -0.0611
 5592W        W 7792  22.762   5.046  21.609  0.1473  0.1813  0.1448
 5593W        W 7793  24.576   4.114  13.463 -0.3798 -0.0326  0.2454
 5594W        W 7794  25.038   5.851  11.196  0.0927 -0.0204  0.1992
 5595W        W 7795  18.587   0.792   4.693 -0.0079 -0.0213 -0.0661
 5596W        W 7796  18.386   6.838   3.828 -0.1685  0.1008  0.0874
 5597W        W 7797  13.239   1.031  26.669  0.0815 -0.3354 -0.0481
 5598W        W 7798  17.114   6.610  30.741 -0.4522  0.2484 -0.4101
 5599W        W 7799  18.351   1.388  10.243  0.0061 -0.0915  0.2334
 5600W        W 7800  23.373   1.191  27.698  0.0706  0.2591  0.0538
 5601W        W 7801   5.475   5.108  14.765 -0.1855 -0.0638  0.0181
 5602W        W 7802   2.346   2.627   7.111 -0.1755  0.1674 -0.0093
 5603W        W 7803   1.270   1.960  26.291 -0.0607 -0.3097  0.1327
 5604W        W 7804  11.834   4.729  19.903  0.0160 -0.2395  0.1455
 5605W        W 7805  25.062   5.801  20.583 -0.2536 -0.0569  0.0483
 5606W        W 7806  17.767   6.023  13.283 -0.0495 -0.0059  0.2234
 5607W        W 7807  23.698   4.204  27.659  0.0041  0.1512  0.1868
 5608W        W 7808   5.425   3.923  15.769  0.0467 -0.0691  0.0846
 5609W        W 7809  14.257   2.845  21.373  0.1107  0.1338  0.0692
 5610W        W 7810   1.511   5.532  29.378 -0.0983  0.0872 -0.3826
 5611W        W 7811  21.106   6.754   3.864 -0.0798 -0.0253  0.0147
 5612W        W 7812  11.083   7.398  18.219  0.0874  0.0885 -0.4242
 5613W        W 7813  19.911   0.097  25.416 -0.0114 -0.2897  0.1876
 5614W        W 7814  21.433   6.079  12.758 -0.1640 -0.1355 -0.4584
 5615W        W 7815   9.240   2.897   7.671  0.0039  0.1690  0.3034
 5616W        W 7816   3.818   1.266  17.990  0.0174  0.0414  0.2553
 5617W        W 7817   9.988   4.354   3.024  0.4581  0.1235  0.1471
 5618W        W 7818   1.409   2.891   0.777  0.0527  0.0857 -0.1982
 5619W        W 7819   8.708   7.726  24.069 -0.2386  0.1553 -0.0512
 5620W        W 7820  14.000   3.760  22.958 -0.1347  0.1397  0.1907
 5621W        W 7821   0.703   2.295   3.069 -0.0180  0.2501  0.2875
 5622W        W 7822  10.967   2.065  31.823  0.1106 -0.3469 -0.0646
 5623W        W 7823   5.841   4.313  31.176 -0.1473 -0.0662  0.0314
 5624W        W 7824  18.198   0.263  18.027 -0.1744  0.1084 -0.0303
 5625W        W 7825  20.183   6.732  10.631 -0.0418 -0.6628 -0.0859
 5626W        W 7826  24.986   7.393  30.949 -0.0458 -0.2979  0.4115
 5627W        W 7827  19.101   7.395  24.319  0.0066  0.1069 -0.0939
 5628W        W 7828  11.524   1.122  32.348  0.0183 -0.1382  0.0353
 5629W        W 7829  14.284   6.931  30.195  0.0832  0.0265 -0.2151
 5630W        W 7830  15.504   6.447  32.358  0.0270 -0.1080 -0.0338
 5631W        W 7831  11.406   4.384   0.734 -0.2525 -0.3609 -0.0884
 5632W        W 7832  20.072   5.841  17.252  0.1642 -0.0172  0.3381
 5633W        W 7833  13.994   6.432  24.882  0.2552 -0.1875  0.1181
 5634W        W 7834  11.869   2.677   1.577  0.2320 -0.0772  0.1733
 5635W        W 7835  16.977   3.324   6.946 -0.1413  0.1929  0.1912
 5636W        W 7836  15.846   3.795  27.385  0.0474 -0.2009  0.1157
 5637W        W 7837  12.332   1.800   4.014  0.3046 -0.1563  0.0192
 5638W        W 7838  14.016   6.183   5.597 -0.2747  0.1897  0.0734
 5639W        W 7839  22.367   3.436  10.993 -0.2961 -0.1653  0.1469
 5640W        W 7840   3.231   1.508  23.151  0.0817  0.0116 -0.0013
 5641W        W 7841  14.468   7.188  22.195  0.2264  0.5144 -0.2494
 5642W        W 7842   2.867   5.623  25.960  0.1733 -0.0472 -0.0997
 5643W        W 7843   4.882   7.467  31.778  0.1758 -0.1871 -0.1626
 5644W        W 7844  20.490   3.695   9.793  0.2183 -0.0616  0.0931
 5645W        W 7845   6.462   3.579  23.064  0.0977 -0.0500 -0.0810
 5646W        W 7846   9.598   3.628  25.847 -0.0464 -0.2136 -0.1676
 5647W        W 7847  13.515   5.533   7.820  0.0240  0.0065 -0.2244
 5648W        W 7848   3.930   5.081  19.865 -0.1331  0.0277 -0.2945
 5649W        W 7849  13.847   6.791   1.087 -0.4112 -0.0711 -0.4421
 5650W        W 7850  19.130   3.150  17.016  0.1726  0.0541 -0.1215
 5651W        W 7851  13.291   5.913   0.716  0.0117 -0.4314 -0.1065
 5652W        W 7852   5.821   3.517  21.030  0.1610  0.1078 -0.2277
 5653W        W 7853  22.676   0.152  13.133  0.0531 -0.2503  0.2633
 5654W        W 7854   2.622   4.129  30.853 -0.0160  0.0818  0.3713
 5655W        W 7855   2.706   3.194  18.622  0.0764  0.0107 -0.1192
 5656W        W 7856  23.727   3.814  13.586 -0.0627  0.0510 -0.1828
 5657W        W 7857  13.590   1.930   7.444  0.0538  0.1595  0.1361
 5658W        W 7858  17.944   5.227   7.608 -0.1752  0.0583 -0.2033
 5659W        W 7859   8.470   0.648  23.585 -0.0663  0.0676  0.2121
 5660W        W 7860  15.060   5.731  10.918  0.0225  0.0478 -0.1761
 5661W        W 7861  13.448   7.696  25.363  0.2577  0.0502  0.0274
 5662W        W 7862   4.306   3.480  15.407  0.1284 -0.0479  0.0760
 5663W        W 7863   6.290   6.899  32.419  0.1039  0.0338 -0.0318
 5664W        W 7864   5.287   4.382  19.686 -0.2726 -0.0254 -0.0200
 5665W        W 7865   4.446   2.977  16.643  0.2531 -0.3167 -0.0354
 5666W        W 7866  12.900   3.497  24.188 -0.3297  0.0434  0.1437
 5667W        W 7867  22.221   2.151  14.274 -0.0969  0.1532  0.2117
 5668W        W 7868   2.479   3.721  17.772 -0.0900  0.4550  0.0350
 5669W        W 7869  18.601   0.335   3.826  0.1587  0.4414 -0.2153
 5670W        W 7870  22.820   5.281  30.283 -0.0722 -0.2452 -0.0112
 5671W        W 7871   1.117   3.079  30.045 -0.2068  0.1528 -0.2106
 5672W        W 7872   7.465   6.017  29.973 -0.0381 -0.1341 -0.0200
 5673W        W 7873  14.389   3.092  24.092 -0.1582 -0.0633 -0.1395
 5674W        W 7874  12.746   3.603  27.078  0.0698 -0.2385  0.0222
 5675W        W 7875   3.423   2.656  25.983  0.1113  0.2032  0.2287
 5676W        W 7876   4.913   2.540  29.724 -0.1723 -0.0418  0.2337
 5677W        W 7877  12.696   4.363   2.604 -0.0182 -0.0614 -0.2963
 5678W        W 7878  17.372   2.257  25.007  0.0435  0.3228  0.3331
 5679W        W 7879   3.823   0.407  31.515  0.2971 -0.0172  0.0750
 5680W        W 7880   5.029   0.010   9.796 -0.2236 -0.2059  0.2441
 5681W        W 7881   4.975   4.282  14.969 -0.0247 -0.1957  0.0769
 5682W        W 7882  22.625   6.187  29.097  0.0805  0.0451  0.0357
 5683W        W 7883   7.330   3.903  10.131 -0.0328  0.2944 -0.1588
 5684W        W 7884  10.444   4.980   8.118 -0.0554  0.2947  0.1586
 5685W        W 7885  17.990   0.592  32.132  0.0506  0.2240 -0.1697
 5686W        W 7886  22.105   7.049   7.291 -0.0453 -0.2338 -0.2210
 5687W        W 7887  19.805   1.422  23.538 -0.0800  0.1088  0.2038
 5688W        W 7888  21.941   5.451   4.842  0.0196  0.1020 -0.1615
 5689W        W 7889  23.078   6.210   5.955  0.0245  0.2263  0.0709
 5690W        W 7890  23.486   1.288   5.562  0.0238  0.0628  0.1143
 5691W        W 7891  20.875   2.561  29.303  0.1552  0.0220 -0.0687
 5692W        W 7892  11.111   4.768  18.644  0.1121 -0.1074 -0.0827
 5693W        W 7893  21.141   1.129  23.843  0.0629  0.4913 -0.0997
 5694W        W 7894  10.345   6.763   9.555 -0.1130 -0.1793  0.2932
 5695W        W 7895  13.374   4.547   7.696  0.2215  0.1503  0.2101
 5696W        W 7896  21.918   1.049  15.814  0.0883  0.1247 -0.1687
 5697W        W 7897  20.726   3.152  21.735 -0.2006 -0.2631 -0.0885
 5698W        W 7898  10.716   7.669   1.604  0.0467 -0.0943  0.0968
 5699W        W 7899  22.681   5.353   7.152 -0.0895  0.1008 -0.3953
 5700W        W 7900   1.562   2.818  19.404 -0.0822  0.0065  0.0417
 5701W        W 7901   1.731   3.550   5.660  0.1877 -0.3190 -0.0344
 5702W        W 7902  21.958   4.114  15.094  0.0850  0.0799 -0.0461
 5703W        W 7903   8.984   2.930  24.366 -0.1876 -0.2171  0.2316
 5704W        W 7904  10.767   4.539  11.213 -0.0194 -0.1239 -0.1357
 5705W        W 7905   1.856   5.321  19.318 -0.0021 -0.1765 -0.0927
 5706W        W 7906   5.229   3.494  18.450 -0.1315  0.0376  0.1245
 5707W        W 7907  12.044   5.057  30.480 -0.0178  0.1797  0.0503
 5708W        W 7908  16.310   0.656  27.113  0.0264 -0.4183 -0.0886
 5709W        W 7909   7.916   0.803  27.101 -0.3528  0.1350 -0.2410
 5710W        W 7910  16.107   4.821  31.653  0.0731  0.2806  0.0958
 5711W        W 7911  11.708   1.805  30.829  0.0210 -0.2062 -0.3698
 5712W        W 7912  14.838   2.542   6.233 -0.1181  0.1825 -0.1482
 5713W        W 7913   4.300   3.632  25.884 -0.2572 -0.1728 -0.0823
 5714W        W 7914  23.180   3.673  10.519  0.0926  0.0459  0.0107
 5715W        W 7915  12.901   6.959   8.509  0.3176 -0.2810  0.1212
 5716W        W 7916   1.374   0.154   2.930  0.0589  0.0106  0.2449
 5717W        W 7917  10.138   5.958  23.963 -0.1774 -0.0365  0.2952
 5718W        W 7918   8.840   1.630  28.247 -0.2911  0.0212  0.4221
 5719W        W 7919   1.274   1.898  26.927  0.0679  0.1584 -0.0486
 5720W        W 7920   6.054   4.692  21.323  0.1039 -0.2959 -0.2297
 5721W        W 7921  12.196   3.152  31.378 -0.2614  0.1188  0.1483
 5722W        W 7922   4.495   5.610   2.916  0.1965 -0.2897  0.1963
 5723W        W 7923  15.798   0.165  10.083 -0.0275  0.2320 -0.2750
 5724W        W 7924  16.862   7.514   1.600  0.3116  0.2141  0.1040
 5725W        W 7925  23.507   0.326   3.967  0.1076 -0.0786  0.1433
 5726W        W 7926  15.415   0.540   7.544 -0.0886 -0.1222 -0.3481
 5727W        W 7927  17.328   1.858  28.962  0.1362 -0.1939  0.1163
 5728W        W 7928   1.068   0.944  31.987 -0.3432  0.0650 -0.3891
 5729W        W 7929   3.575   5.650   9.644  0.1950  0.0940 -0.1199
 5730W        W 7930  18.120   3.694   2.080  0.1176  0.0307 -0.1176
 5731W        W 7931  13.423   6.437  32.124 -0.0654 -0.1715  0.0276
 5732W        W 7932  12.145   4.982  20.751  0.2632  0.4586  0.0165
 5733W        W 7933   2.577   0.531  22.199 -0.0710 -0.0219 -0.3343
 5734W        W 7934  10.361   7.554   3.043 -0.0443  0.0028  0.1134
 5735W        W 7935  12.199   6.406  18.986 -0.1106  0.3019  0.3485
 5736W        W 7936  16.811   1.282  25.056 -0.2624 -0.0338 -0.1931
 5737W        W 7937   5.492   6.301   9.760  0.0515  0.1876 -0.1890
 5738W        W 7938   5.998   5.414  16.675  0.2963 -0.2647  0.0337
 5739W        W 7939  10.436   4.296  20.160 -0.2117  0.1980 -0.1729
 5740W        W 7940   6.054   4.089   4.267 -0.1834  0.1115 -0.0980
 5741W        W 7941   3.068   5.960  29.384 -0.1102 -0.1355  0.2917
 5742W        W 7942  19.781   1.026   9.800 -0.0128  0.0058 -0.0675
 5743W        W 7943  20.198   6.563  30.917  0.0665 -0.3328 -0.0623
 5744W        W 7944   8.142   4.872  23.342 -0.1193 -0.0996  0.2147
 5745W        W 7945   3.981   2.845  28.118 -0.2621 -0.0048 -0.1206
 5746W        W 7946   6.408   3.933   2.571 -0.4239  0.1108  0.0031
 5747W        W 7947  16.776   4.606   5.212 -0.2188 -0.1231  0.0866
 5748W        W 7948   0.416   4.137  27.372  0.0980  0.2562 -0.4283
 5749W        W 7949  14.152   0.178  25.354 -0.1890 -0.0769  0.5121
 5750W        W 7950   5.895   6.076  30.944  0.0524 -0.0923 -0.1768
 5751W        W 7951  10.237   6.882  26.245 -0.1633  0.3369  0.1288
 5752W        W 7952  10.644   1.594   3.419  0.1147 -0.1575 -0.1262
 5753W        W 7953   4.667   3.229  19.900  0.1555  0.1551  0.0360
 5754W        W 7954   5.570   0.237   3.036  0.2233  0.0328  0.1746
 5755W        W 7955  19.063   3.499   5.265  0.2434  0.0499  0.0650
 5756W        W 7956   7.293   3.585  22.338 -0.3013  0.2882 -0.0221
 5757W        W 7957  16.312   6.902  23.333  0.2826  0.0117  0.0715
 5758W        W 7958  12.785   1.775  11.272 -0.0018  0.0326  0.0715
 5759W        W 7959  21.900   4.301  22.474 -0.1901  0.1906  0.1811
 5760W        W 7960   0.926   3.519  20.911  0.0297 -0.1049  0.1744
 5761W        W 7961  22.813   3.821   9.640  0.0506 -0.0274  0.2520
 5762W        W 7962  25.015   2.307   7.965  0.2110  0.1469 -0.0271
 5763W        W 7963  15.698   2.710  32.284  0.2344  0.1949 -0.2166
 5764W        W 7964  11.691   6.638   4.758  0.1585 -0.2467 -0.0571
 5765W        W 7965  23.010   6.949  14.730  0.0575 -0.1240  0.2235
 5766W        W 7966   4.058   5.529  30.789  0.0346  0.3784 -0.0987
 5767W        W 7967  24.025   5.541   8.987  0.2965 -0.0930 -0.0554
 5768W        W 7968   4.587   6.744  20.599 -0.0845  0.0269 -0.2542
 5769W        W 7969  10.012   2.554  26.808 -0.2217 -0.1351 -0.1283
 5770W        W 7970  20.382   6.027   9.081  0.0182  0.6030  0.2897
 5771W        W 7971  15.284   2.104   4.782 -0.1208  0.3982 -0.3078
 5772W        W 7972  20.757   6.970  28.859 -0.0392  0.0895  0.0247
 5773W        W 7973  10.160   1.846  24.760 -0.0817 -0.0099 -0.1838
 5774W        W 7974   6.239   4.526  16.804 -0.0720 -0.0458  0.0310
 5775W        W 7975  22.020   2.014   3.166  0.1302  0.3165  0.2060
 5776W        W 7976  20.413   5.470  17.223  0.0168  0.0553 -0.0536
 5777W        W 7977   2.197   1.993   4.274  0.1625  0.2485  0.3069
 5778W        W 7978   9.966   2.137  16.900  0.1675 -0.0553 -0.2743
 5779W        W 7979   9.381   0.460   0.233 -0.1269  0.2696 -0.0020
 5780W        W 7980  23.419   7.343  26.667  0.0546 -0.2741  0.0274
 5781W        W 7981  18.657   2.972  26.998  0.3853 -0.0016 -0.1601
 5782W        W 7982   2.459   7.434  31.212  0.0925  0.1169  0.1517
 5783W        W 7983  19.557   5.635   6.868  0.1795  0.1913  0.2577
 5784W        W 7984  20.995   4.593  30.684 -0.0700 -0.1076  0.1046
 5785W        W 7985  10.726   7.536  16.804 -0.1075 -0.0249  0.0324
 5786W        W 7986   0.040   6.442   8.575  0.0737  0.0649  0.1286
 5787W        W 7987  10.023   3.365  22.648  0.1696 -0.1239 -0.0036
 5788W        W 7988   6.238   0.899   3.368 -0.1474 -0.0012 -0.0544
 5789W        W 7989   8.843   1.215  29.749 -0.0111 -0.0204 -0.0472
 5790W        W 7990  20.918   4.544   9.695  0.1260 -0.0657 -0.1237
 5791W        W 7991   7.242   6.495  19.643  0.1597 -0.0537 -0.2409
 5792W        W 7992  12.261   5.079  21.734 -0.1269 -0.0671  0.1107
 5793W        W 7993  12.341   4.988  30.038  0.0850 -0.2779  0.0242
 5794W        W 7994  20.345   7.528   4.457  0.1106  0.2266  0.0442
 5795W        W 7995   1.277   6.456  31.206 -0.0195  0.1665  0.0594
 5796W        W 7996   9.136   0.861  29.447 -0.5154  0.0012  0.1456
 5797W        W 7997  21.343   5.542  28.099 -0.0102  0.2161  0.0063
 5798W        W 7998   9.433   3.293   7.868  0.0832 -0.1005  0.2566
 5799W        W 7999   8.077   1.029  28.660  0.2804  0.2419  0.2142
 5800W        W 8000   8.790   4.855   2.898 -0.0009 -0.2019  0.1382
 5801W        W 8001  16.280   4.105   8.751 -0.0297 -0.0196 -0.1215
 5802W        W 8002  15.483   0.001  28.087  0.0972  0.0755  0.1053
 5803W        W 8003   5.367   1.313   2.792  0.1401  0.1214 -0.2298
 5804W        W 8004   9.001   1.680  27.043  0.0894  0.0836  0.1327
 5805W        W 8005   9.504   2.531  29.667  0.1936 -0.0020 -0.1617
 5806W        W 8006  15.408   3.267  10.554 -0.0322  0.2867  0.2263
 5807W        W 8007  21.416   0.887  31.674 -0.0343  0.1008 -0.1006
 5808W        W 8008  21.084   5.455  21.850 -0.0052 -0.1239  0.2364
 5809W        W 8009  20.150   5.749  30.070  0.0524  0.1102 -0.0062
 5810W        W 8010   4.371   7.387  29.513 -0.1923 -0.2444 -0.1262
 5811W        W 8011  20.643   7.567  10.504 -0.2217  0.0301  0.0713
 5812W        W 8012   2.914   2.848  20.023 -0.1476  0.2581  0.1460
 5813W        W 8013   8.777   6.901  30.522 -0.1497  0.0691 -0.1023
 5814W        W 8014  23.093   7.558  24.308 -0.0586  0.0576  0.0440
 5815W        W 8015   4.065   5.796   0.131  0.0236  0.1431  0.0328
 5816W        W 8016   4.817   3.664  23.105 -0.1934 -0.0282 -0.2141
 5817W        W 8017   4.252   4.215  32.020 -0.3507  0.0156  0.0780
 5818W        W 8018   5.089   3.967  19.491  0.2062 -0.1046 -0.1418
 5819W        W 8019  11.084   1.232  18.081  0.0213 -0.0451 -0.2546
 5820W        W 8020  23.475   5.376   1.424 -0.2554  0.2676  0.2972
 5821W        W 8021   5.159   1.135   1.441  0.0087  0.2919 -0.0987
 5822W        W 8022  14.049   3.232  21.164  0.0595  0.1109  0.3147
 5823W        W 8023  21.925   0.275  31.864  0.0976 -0.1231  0.0895
 5824W        W 8024   7.783   3.893  16.148 -0.2935 -0.0780  0.0972
 5825W        W 8025  23.491   3.301  10.697  0.0605 -0.0868  0.1504
 5826W        W 8026  20.715   6.130   9.520 -0.1242 -0.2174 -0.1078
 5827W        W 8027   6.434   4.001   8.324  0.1684 -0.0499 -0.1728
 5828W        W 8028  22.482   4.603   4.819 -0.1535 -0.1859 -0.0980
 5829W        W 8029  16.947   0.565   6.528 -0.0721  0.1246 -0.0925
 5830W        W 8030   2.072   6.083  10.420  0.1068 -0.2199 -0.0126
 5831W        W 8031  11.268   5.919  10.456  0.1250  0.0744 -0.0741
 5832W        W 8032  23.288   2.760   6.455 -0.1965 -0.0204  0.1498
 5833W        W 8033  18.770   7.727  24.680 -0.0250  0.0160 -0.1115
 5834W        W 8034  10.372   0.950   3.988 -0.2431 -0.1437  0.2334
 5835W        W 8035  19.757   7.086  25.912 -0.1033 -0.1744 -0.0756
 5836W        W 8036   5.544   1.273  26.300  0.1315 -0.0317 -0.1181
 5837W        W 8037  19.100   0.311  24.830 -0.3542  0.0496 -0.0053
 5838W        W 8038  20.867   5.934  14.026  0.1254 -0.0210 -0.0963
 5839W        W 8039  16.472   0.949   7.195 -0.1228 -0.1094  0.2019
 5840W        W 8040  14.663   3.907  12.883 -0.0873  0.2022  0.1261
 5841W        W 8041   6.378   4.707  18.056 -0.0466  0.1136  0.0125
 5842W        W 8042  17.513   6.753   9.281 -0.3801  0.0881 -0.0397
 5843W        W 8043   2.619   1.697  30.565 -0.0764 -0.1613  0.0157
 5844W        W 8044  22.112   4.033  23.961 -0.0816 -0.0088 -0.0544
 5845W        W 8045   2.856   2.652   5.027  0.0174 -0.0753  0.2272
 5846W        W 8046  17.011   3.662  15.093  0.0060 -0.0638  0.2096
 5847W        W 8047  21.226   1.587  27.799  0.0005  0.0755  0.1420
 5848W        W 8048  19.096   6.526  15.888  0.0303  0.3092  0.3899
 5849W        W 8049   8.816   1.275  18.200 -0.2328 -0.0870  0.1982
 5850W        W 8050  22.166   3.834  32.424  0.0082 -0.1995 -0.0621
 5851W        W 8051  23.826   0.205  10.073  0.0018  0.2383 -0.0767
 5852W        W 8052   5.741   0.165   7.150 -0.1392  0.1763  0.0928
 5853W        W 8053  10.359   6.840  17.419  0.0745 -0.1331  0.0849
 5854W        W 8054   3.667   5.063  26.670 -0.3105 -0.0284 -0.0282
 5855W        W 8055  23.222   5.686   5.079 -0.3541  0.2535 -0.1421
 5856W        W 8056  20.283   4.644  29.551  0.0701  0.0483 -0.1695
 5857W        W 8057  17.292   7.275  28.468  0.0760  0.1907  0.1524
 5858W        W 8058  15.333   0.280  14.445  0.0157 -0.0840 -0.1711
 5859W        W 8059  17.740   5.874  31.447 -0.3640  0.3049  0.0561
 5860W        W 8060  23.806   7.486   7.820 -0.2384  0.0654 -0.0361
 5861W        W 8061  10.056   4.234   9.677  0.1498 -0.1099 -0.0767
 5862W        W 8062  20.984   4.580  32.061  0.2920  0.1389  0.1475
 5863W        W 8063   4.512   7.006  17.772  0.0048  0.2163 -0.1869
 5864W        W 8064   5.618   5.427   0.179 -0.1107 -0.0468  0.0742
 5865W        W 8065  14.780   1.184   2.442 -0.1899 -0.3877 -0.0760
 5866W        W 8066  17.574   3.722   2.241 -0.1261  0.0216  0.2621
 5867W        W 8067   0.856   6.248  23.888 -0.1417 -0.1586 -0.1156
 5868W        W 8068   9.486   4.903  24.351  0.1253 -0.1314 -0.0714
 5869W        W 8069  13.099   6.045   9.622 -0.0606 -0.0108 -0.2127
 5870W        W 8070  15.801   4.152  29.760  0.2772 -0.3274 -0.1988
 5871W        W 8071  22.310   6.816  23.722 -0.1150  0.2465 -0.0171
 5872W        W 8072   0.212   2.577  12.054 -0.0853  0.3021 -0.0400
 5873W        W 8073  10.815   3.190  10.045  0.0674  0.2766 -0.1057
 5874W        W 8074   8.172   4.168   6.576 -0.1442 -0.1198  0.0748
 5875W        W 8075  23.716   3.959  22.211 -0.1055  0.4192  0.1795
 5876W        W 8076  23.192   4.136  27.012 -0.2158 -0.1278  0.0424
 5877W        W 8077  14.213   0.455  13.707  0.0757  0.0966 -0.2727
 5878W        W 8078  13.403   2.968   9.354 -0.3061  0.1680 -0.1522
 5879W        W 8079  17.503   5.531   9.629 -0.1113 -0.0161  0.0891
 5880W        W 8080   3.781   4.772  28.002  0.3448  0.1580 -0.1629
 5881W        W 8081   5.097   5.697  17.320 -0.0555  0.2756 -0.0261
 5882W        W 8082  14.214   4.706  27.052 -0.0276 -0.2499 -0.1676
 5883W        W 8083  21.765   2.884   9.617 -0.1145 -0.1379  0.0776
 5884W        W 8084  13.471   6.624  27.422  0.0097  0.0257 -0.2512
 5885W        W 8085   7.526   4.545   8.967  0.0061 -0.1183  0.1429
 5886W        W 8086   1.276   6.776  11.295  0.1987 -0.4900  0.1662
 5887W        W 8087   8.718   3.646  15.656 -0.0768  0.0550 -0.0687
 5888W        W 8088  23.760   2.445  13.502  0.1035  0.0262 -0.0274
 5889W        W 8089  24.461   1.878  11.678 -0.2037 -0.1839  0.0936
 5890W        W 8090  18.812   4.201  31.559  0.1423  0.1308  0.3063
 5891W        W 8091  15.451   5.472  14.004 -0.1693 -0.2325 -0.0991
 5892W        W 8092  15.965   0.005  15.415  0.4399 -0.0664 -0.0882
 5893W        W 8093  15.464   3.022   0.457  0.1339  0.2152 -0.2178
 5894W        W 8094  19.942   2.844  29.034 -0.1500 -0.0051  0.2120
 5895W        W 8095  19.670   1.510  17.868 -0.0902 -0.0129  0.1275
 5896W        W 8096   3.201   0.080  29.509 -0.0665  0.0239  0.1393
 5897W        W 8097   7.766   4.033   6.337  0.0938  0.1636 -0.0669
 5898W        W 8098  17.865   0.103  18.431  0.0238  0.0839  0.1107
 5899W        W 8099   5.612   0.412  29.325  0.0509 -0.0391  0.0015
 5900W        W 8100   4.730   1.549  26.964 -0.1519  0.0324 -0.1022
 5901W        W 8101  22.954   5.764  29.981 -0.0225 -0.1209 -0.0783
 5902W        W 8102   7.062   5.530   5.512 -0.1574  0.1836 -0.1324
 5903W        W 8103   4.051   3.572   1.320  0.1065  0.1810 -0.2333
 5904W        W 8104  15.950   4.454   4.026 -0.0669 -0.0904 -0.1310
 5905W        W 8105   1.032   6.153  22.494 -0.1151 -0.2794  0.2548
 5906W        W 8106   4.640   7.374  16.827  0.1383  0.2552  0.0802
 5907W        W 8107   9.679   1.329  21.441 -0.0753 -0.2639 -0.0792
 5908W        W 8108   4.623   2.260  21.298 -0.0377 -0.2073  0.0299
 5909W        W 8109  12.914   1.328  27.558 -0.1128 -0.0350 -0.1179
 5910W        W 8110   3.471   3.986  10.458 -0.2600  0.4302  0.0575
 5911W        W 8111   8.329   3.687  23.422  0.0467  0.2147  0.0156
 5912W        W 8112  19.767   2.027  29.561  0.1073 -0.0725  0.1146
 5913W        W 8113   0.103   2.025   4.590 -0.1476 -0.2224 -0.2681
 5914W        W 8114  14.920   4.594  25.302  0.0197 -0.2480 -0.1025
 5915W        W 8115   1.204   5.420  20.893 -0.1110 -0.3321 -0.1029
 5916W        W 8116  20.524   3.126   5.472 -0.1267 -0.3908  0.1835
 5917W        W 8117   6.707   7.331  16.342  0.1346 -0.0511 -0.1987
 5918W        W 8118  20.674   5.994   5.248  0.2225  0.1105 -0.0816
 5919W        W 8119  21.346   7.770   4.932  0.0508  0.0951  0.0389
 5920W        W 8120  10.713   5.776  17.024  0.1000  0.4917 -0.1925
 5921W        W 8121  11.473   7.807  32.051 -0.0736 -0.1300 -0.0129
 5922W        W 8122  13.970   1.077  27.894 -0.1929  0.1797 -0.1363
 5923W        W 8123   5.559   3.991  30.922  0.1988 -0.1038  0.0316
 5924W        W 8124   5.635   6.161   8.478 -0.2324 -0.3211 -0.0676
 5925W        W 8125  15.920   1.624   4.385  0.0633 -0.1059  0.0905
 5926W        W 8126  18.706   4.304  25.252 -0.0058  0.0703 -0.0655
 5927W        W 8127   3.634   0.593   0.872  0.0036  0.0474  0.1599
 5928W        W 8128   5.948   4.412  18.082 -0.0730 -0.0518 -0.2424
 5929W        W 8129  22.857   2.351  12.512 -0.1227 -0.2880  0.0258
 5930W        W 8130  17.842   6.771   8.802  0.1529  0.1463 -0.2309
 5931W        W 8131   2.969   6.508  31.973 -0.4099 -0.1177  0.1269
 5932W        W 8132   2.243   0.680  30.409 -0.0199 -0.0092  0.1801
 5933W        W 8133  10.806   0.198  26.377 -0.1051 -0.0162  0.1393
 5934W        W 8134  10.743   7.257  26.318  0.0943 -0.0770  0.3626
 5935W        W 8135   8.240   1.000  32.555 -0.1343 -0.2461 -0.3616
 5936W        W 8136   4.218   0.207  10.404 -0.0809 -0.1745 -0.0440
 5937W        W 8137  11.884   6.271   1.654 -0.1318  0.0363  0.0389
 5938W        W 8138  21.630   6.466   5.851  0.3342 -0.0100  0.2054
 5939W        W 8139  17.239   2.606   5.948  0.0920 -0.2212  0.2637
 5940W        W 8140  22.678   1.971  27.834  0.3051  0.1409  0.0843
 5941W        W 8141  11.528   0.999  28.707 -0.2893 -0.2793  0.0927
 5942W        W 8142  12.118   4.560   1.486  0.5077  0.0863  0.4021
 5943W        W 8143  19.777   3.061  13.900  0.2944 -0.0054 -0.0575
 5944W        W 8144  14.877   5.958  10.533 -0.0289  0.1066 -0.0944
 5945W        W 8145  21.260   0.425  11.310  0.0254 -0.2132  0.0482
 5946W        W 8146   1.511   0.591   8.360 -0.4724 -0.0077 -0.2188
 5947W        W 8147   5.714   0.007  17.481  0.0296  0.1467 -0.2266
 5948W        W 8148  18.654   2.387  26.922  0.1410 -0.0894 -0.1148
 5949W        W 8149  24.847   3.458  23.052 -0.1015 -0.0744 -0.1570
 5950W        W 8150  12.512   4.138   1.723  0.1575  0.1015 -0.0554
 5951W        W 8151  20.708   6.460  14.787 -0.2061  0.0933 -0.0625
 5952W        W 8152  21.625   7.182  26.579  0.0515 -0.0002  0.1416
 5953W        W 8153  17.290   0.622   9.338  0.3808 -0.1298 -0.2335
 5954W        W 8154   6.781   7.488   6.810  0.2128 -0.0516  0.0455
 5955W        W 8155  17.447   3.735   8.212 -0.1107  0.1779 -0.3266
 5956W        W 8156   1.623   3.543  18.719 -0.1255  0.1029 -0.2356
 5957W        W 8157  24.271   5.207  20.544  0.2581  0.5229  0.0066
 5958W        W 8158   8.708   5.344  16.922 -0.0220 -0.2050  0.0620
 5959W        W 8159   5.370   4.751  16.267  0.3118  0.0500  0.1538
 5960W        W 8160   2.599   5.432  26.915 -0.0485 -0.1639  0.1695
 5961W        W 8161  21.464   0.066  27.554 -0.1309  0.1878 -0.1224
 5962W        W 8162  18.426   4.653  24.793  0.2226 -0.0463  0.1456
 5963W        W 8163  20.170   7.801  15.721 -0.0109  0.0417  0.0345
 5964W        W 8164  10.674   1.631   2.850 -0.1572  0.1579  0.1082
 5965W        W 8165   7.890   1.834   9.533 -0.0140  0.0637 -0.0249
 5966W        W 8166   4.456   7.657   7.835  0.1095 -0.0833 -0.2897
 5967W        W 8167   6.544   4.892   9.976  0.2680  0.0020 -0.0140
 5968W        W 8168  24.509   3.128  11.964  0.1013 -0.0633 -0.0300
 5969W        W 8169  22.430   6.991   5.253  0.3612 -0.0571 -0.1051
 5970W        W 8170   9.352   0.731  23.997 -0.0709 -0.2243 -0.2472
 5971W        W 8171   5.221   2.652  25.765 -0.0772 -0.0092  0.0698
 5972W        W 8172   8.654   2.558  18.769 -0.2401 -0.1750 -0.3007
 5973W        W 8173   1.863   3.418  25.827  0.0735 -0.0220  0.1629
 5974W        W 8174  23.901   2.555  23.118  0.0545  0.0744  0.2099
 5975W        W 8175   9.341   1.968  25.348  0.1916  0.1658  0.1709
 5976W        W 8176   1.294   7.521   3.842  0.0026  0.0012 -0.0140
 5977W        W 8177  11.088   3.986  29.456 -0.2058  0.1941 -0.2607
 5978W        W 8178  21.843   7.794  14.338  0.1199 -0.2273 -0.1574
 5979W        W 8179  18.663   4.178  11.604 -0.1278 -0.1465  0.1041
 5980W        W 8180   7.669   0.411   7.624 -0.1766 -0.0266  0.0356
 5981W        W 8181  22.342   6.346  28.663 -0.1373  0.2178  0.5021
 5982W        W 8182   1.995   0.285  21.625  0.1180 -0.2559 -0.0916
 5983W        W 8183  10.987   2.452  23.094  0.0094 -0.2601  0.2015
 5984W        W 8184   7.872   5.941  26.368  0.0855 -0.1969 -0.1988
 5985W        W 8185  14.455   4.847  10.597  0.0856 -0.0881 -0.1065
 5986W        W 8186   6.008   7.824  17.082 -0.0367  0.0884 -0.0936
 5987W        W 8187  11.240   3.983  20.174  0.3293  0.0677 -0.2475
 5988W        W 8188  22.235   7.195  29.088 -0.2861 -0.0218 -0.0737
 5989W        W 8189   4.435   2.039   1.325  0.0552  0.3194 -0.2062
 5990W        W 8190   7.714   3.775   1.832 -0.0196  0.3048 -0.0673
 5991W        W 8191  15.589   5.982  31.519  0.1849 -0.2891 -0.0255
 5992W        W 8192  13.517   3.449   6.219  0.0600  0.0089  0.2324
 5993W        W 8193   3.717   6.956  17.229 -0.0797 -0.0839  0.2308
 5994W        W 8194   5.541   7.688  20.346 -0.1360 -0.1422  0.0315
 5995W        W 8195  13.770   6.834  13.371 -0.1016  0.1127  0.1700
 5996W        W 8196   1.321   2.374  10.297  0.1493 -0.0610 -0.1310
 5997W        W 8197  16.007   3.085  15.882  0.0112  0.0524 -0.1051
 5998W        W 8198  12.047   6.420  22.413  0.0287  0.2211  0.0212
 5999W        W 8199   0.187   5.227  26.263 -0.0211 -0.0038 -0.3170
 6000W        W 8200  19.094   5.423  13.843  0.1526 -0.0213  0.0787
 6001W        W 8201  18.647   2.895  31.236  0.1572  0.2644  0.0413
 6002W        W 8202  14.359   5.720  31.257 -0.1293 -0.0630 -0.0647
 6003W        W 8203   6.628   0.811  19.181 -0.0812 -0.0654  0.0931
 6004W        W 8204  14.579   0.108  26.834  0.0111 -0.0691  0.1089
 6005W        W 8205   1.347   3.616  10.892  0.0404 -0.0175  0.3153
 6006W        W 8206  16.991   2.467  30.602  0.1306  0.3047 -0.1058
 6007W        W 8207  10.811   5.081  21.059  0.0165 -0.0487 -0.0584
 6008W        W 8208  11.332   7.817  30.976 -0.1899  0.1211  0.3393
 6009W        W 8209  10.154   0.396  17.830 -0.0848  0.1383  0.3521
 6010W        W 8210  17.627   2.432  27.964 -0.1871  0.1426  0.2530
 6011W        W 8211   1.874   1.479  23.576  0.1585  0.0692 -0.3670
 6012W        W 8212  21.015   0.809  10.085  0.2639  0.2088 -0.2660
 6013W        W 8213  13.291   2.682   9.014  0.0252 -0.1283 -0.3904
 6014W        W 8214   1.523   3.241   3.085  0.4269  0.0245  0.1041
 6015W        W 8215  15.036   7.410  13.585  0.1137 -0.3107  0.3073
 6016W        W 8216  24.870   3.905  25.476 -0.1241  0.1658  0.1158
 6017W        W 8217   4.114   0.333  22.388 -0.0901 -0.2269 -0.0314
 6018W        W 8218   3.230   1.117  30.439 -0.0130 -0.0112 -0.3473
 6019W        W 8219   5.420   5.340   3.764  0.1158 -0.0426  0.0772
 6020W        W 8220  23.553   5.035   3.160  0.0217  0.0768  0.0702
 6021W        W 8221  18.187   6.297  28.813 -0.3229  0.1234 -0.0048
 6022W        W 8222   4.415   2.542  10.130  0.4118  0.1712 -0.1507
 6023W        W 8223  13.089   7.009  28.842  0.1849  0.2880 -0.4064
 6024W        W 8224  22.773   2.293  26.582 -0.0164 -0.0779 -0.1930
 6025W        W 8225  14.595   7.813   7.898 -0.1507  0.1653 -0.0963
 6026W        W 8226  21.526   1.467  30.973  0.1416  0.1426 -0.1304
 6027W        W 8227  22.556   3.562  26.934  0.2455  0.0362  0.1003
 6028W        W 8228   6.715   1.899  32.461  0.2176 -0.0275  0.0918
 6029W        W 8229   7.863   1.342   1.924 -0.0943  0.1839 -0.0200
 6030W        W 8230  22.022   0.746  32.423 -0.1015 -0.1014 -0.0385
 6031W        W 8231   5.412   4.758  15.684 -0.1274  0.1283 -0.1370
 6032W        W 8232   4.323   4.400   0.564  0.0826 -0.0946  0.1153
 6033W        W 8233   6.300   4.886  22.596  0.1169  0.2626  0.4365
 6034W        W 8234  11.229   3.662   1.564  0.1865 -0.0594 -0.0395
 6035W        W 8235  21.433   6.949  10.732 -0.1215 -0.2180  0.0650
 6036W        W 8236  15.313   2.339  10.710  0.1742 -0.1034 -0.0448
 6037W        W 8237  12.125   3.847  24.243 -0.0535  0.1368 -0.0232
 6038W        W 8238   9.168   7.519  14.936  0.1297 -0.3008  0.1436
 6039W        W 8239   2.142   1.453  22.091  0.1974  0.2321  0.2896
 6040W        W 8240   4.670   4.410  15.899  0.0697  0.0754  0.1446
 6041W        W 8241   6.098   1.308  28.327 -0.4237  0.2146 -0.1620
 6042W        W 8242  23.696   7.656  27.109  0.0703  0.0028 -0.0015
 6043W        W 8243  19.050   2.073  18.345 -0.0590 -0.2688 -0.2289
 6044W        W 8244  17.939   2.315  11.096  0.1207  0.0278 -0.2365
 6045W        W 8245  12.040   3.668  24.691  0.0996 -0.2543  0.0418
 6046W        W 8246   4.691   7.138  29.211  0.0716  0.1425 -0.0654
 6047W        W 8247   0.229   1.956  30.050 -0.0411  0.1853  0.0701
 6048W        W 8248  12.814   6.059  20.782  0.1756 -0.1260 -0.0885
 6049W        W 8249  12.070   6.743   1.624  0.2509 -0.1282  0.0507
 6050W        W 8250  23.881   2.897  22.201 -0.2454 -0.2067 -0.1875
 6051W        W 8251  12.964   1.271   4.378  0.0405  0.0232 -0.0891
 6052W        W 8252  17.854   6.353  17.483  0.1350 -0.0549  0.0351
 6053W        W 8253   0.640   0.666  31.780  0.2422  0.0057  0.2244
 6054W        W 8254  14.447   1.805  24.378  0.0929 -0.3402 -0.2219
 6055W        W 8255   8.511   4.569  23.564 -0.2659 -0.0018 -0.2120
 6056W        W 8256  15.213   4.567  29.819  0.1414  0.2650 -0.0150
 6057W        W 8257  13.010   2.463  22.281  0.2350  0.3510  0.1087
 6058W        W 8258   4.590   5.218   3.241  0.2373 -0.0586 -0.2379
 6059W        W 8259  10.653   7.155  27.986  0.1641 -0.1817  0.0853
 6060W        W 8260  15.224   7.052  11.092 -0.0526  0.3821  0.1378
 6061W        W 8261  24.253   1.275   5.820  0.2671 -0.1112  0.2782
 6062W        W 8262   2.743   7.365  29.934 -0.1787 -0.0541 -0.1525
 6063W        W 8263  22.589   0.401  23.918  0.1454 -0.2944 -0.1495
 6064W        W 8264  17.240   3.483  28.639 -0.1254 -0.1672  0.1582
 6065W        W 8265  10.552   2.830  26.546 -0.1963 -0.1110 -0.0103
 6066W        W 8266  22.167   2.962   0.052  0.1682  0.3689  0.1013
 6067W        W 8267   1.570   1.253  28.123 -0.2773  0.0077  0.0635
 6068W        W 8268  22.459   1.869  30.731  0.1551 -0.1128 -0.0987
 6069W        W 8269  18.464   5.357   5.044 -0.0488  0.3473  0.0450
 6070W        W 8270   9.886   2.033  16.307  0.3067  0.1562  0.2118
 6071W        W 8271  16.071   0.800  25.509 -0.1349 -0.0879 -0.4034
 6072W        W 8272  14.127   5.895   1.521 -0.1166 -0.0406  0.0780
 6073W        W 8273   8.783   5.792   5.774  0.2142  0.1875 -0.1319
 6074W        W 8274  24.991   6.086  23.968 -0.3018 -0.1669  0.0643
 6075W        W 8275  22.092   4.919   8.136 -0.2839  0.1169 -0.0304
 6076W        W 8276  13.686   0.359   2.399  0.0533 -0.1865  0.0614
 6077W        W 8277  21.329   3.651  26.065 -0.2772  0.2413 -0.1038
 6078W        W 8278   6.355   0.578  18.124 -0.2699 -0.0218 -0.1082
 6079W        W 8279  15.262   5.201  29.112 -0.0742 -0.0149  0.0909
 6080W        W 8280  22.333   0.339  25.521 -0.1404 -0.2642 -0.1286
 6081W        W 8281  15.744   2.532   4.807 -0.1963 -0.0802  0.3589
 6082W        W 8282  12.144   5.741  32.559 -0.3800  0.0431 -0.0310
 6083W        W 8283   6.088   5.592  25.920 -0.0652  0.2267 -0.0767
 6084W        W 8284  25.053   5.122  24.740  0.0349 -0.0774  0.1849
 6085W        W 8285   4.109   3.528  20.609 -0.1401 -0.0353  0.0183
 6086W        W 8286   2.596   4.472  31.604  0.0885  0.1227  0.2827
 6087W        W 8287   2.531   1.631   4.447  0.1371 -0.0331 -0.1897
 6088W        W 8288  11.818   0.365  30.793 -0.2686  0.1696 -0.1098
 6089W        W 8289   4.764   3.487  29.661  0.2322 -0.1585  0.0784
 6090W        W 8290   2.671   4.213   9.182 -0.0650  0.1463 -0.1343
 6091W        W 8291   4.517   3.931  31.060 -0.2846 -0.2428  0.0316
 6092W        W 8292  13.432   0.952  28.213  0.0186  0.1171  0.3887
 6093W        W 8293   9.871   3.346  16.447 -0.3931  0.1927 -0.2718
 6094W        W 8294  19.030   6.669  29.637  0.1101  0.2293  0.0348
 6095W        W 8295  24.159   1.115   5.317  0.2058  0.0136 -0.1775
 6096W        W 8296  10.744   2.333  29.896  0.1683  0.0792  0.0582
 6097W        W 8297   1.272   3.042  23.406 -0.1593  0.0473  0.1114
 6098W        W 8298   7.720   7.783   0.341  0.1214  0.0888 -0.1501
 6099W        W 8299   5.577   7.087  26.870 -0.1358 -0.4074  0.0352
 6100W        W 8300  20.300   5.083   9.327  0.4026  0.1725  0.1244
 6101W        W 8301  10.547   4.445  30.260 -0.2610  0.1259 -0.1513
 6102W        W 8302  22.912   1.326  12.530  0.1224  0.1672 -0.1182
 6103W        W 8303   8.334   2.559  21.210 -0.4822  0.0184 -0.2219
 6104W        W 8304  11.989   4.661  11.574  0.0792 -0.1445  0.3536
 6105W        W 8305  10.872   0.825  27.157  0.1880 -0.1427 -0.0720
 6106W        W 8306  12.278   5.548  26.157 -0.1538 -0.2437  0.3233
 6107W        W 8307  13.031   3.531  12.341 -0.2563 -0.1846 -0.1401
 6108W        W 8308  15.099   7.368  26.267  0.0910  0.0080 -0.1668
 6109W        W 8309   5.265   1.196  14.814  0.0256 -0.0772 -0.1175
 6110W        W 8310   4.235   3.786  25.137  0.1477 -0.0295 -0.0159
 6111W        W 8311   0.998   3.670   0.876  0.4683 -0.0311 -0.0621
 6112W        W 8312   9.782   2.913  32.373  0.3391  0.0170 -0.0013
 6113W        W 8313   6.265   4.091   2.048  0.2014 -0.2631  0.1584
 6114W        W 8314  10.205   1.655   2.222  0.0060 -0.1479 -0.0201
 6115W        W 8315  20.946   6.391  22.735 -0.4831 -0.0081 -0.0854
 6116W        W 8316  14.964   1.699   6.260 -0.2749 -0.0889 -0.2102
 6117W        W 8317  18.300   0.049  15.800 -0.0171 -0.0785  0.0835
 6118W        W 8318  18.413   5.623   3.600  0.1805  0.0611  0.1044
 6119W        W 8319   2.133   2.229  17.727  0.1712  0.4108 -0.0593
 6120W        W 8320   5.303   6.977   2.154 -0.1118  0.1654 -0.2067
 6121W        W 8321  19.918   5.713   1.164 -0.1145  0.4292 -0.1313
 6122W        W 8322   2.660   6.241  30.824 -0.1134 -0.1096 -0.1062
 6123W        W 8323  10.371   3.739  26.833 -0.0495 -0.2344  0.2342
 6124W        W 8324  18.593   2.750  10.123  0.2725 -0.1084  0.0283
 6125W        W 8325   6.402   4.575   1.461 -0.1960 -0.1846  0.1221
 6126W        W 8326  12.761   7.685  21.880  0.0128 -0.1506  0.0150
 6127W        W 8327  16.962   7.625  23.332 -0.0121  0.2060  0.0685
 6128W        W 8328  23.258   7.260   4.502  0.1446 -0.2797 -0.0638
 6129W        W 8329  10.513   4.666  28.096 -0.1100 -0.0372 -0.0165
 6130W        W 8330  15.183   4.618  27.023 -0.3385 -0.1009  0.2359
 6131W        W 8331  12.024   5.915  24.297  0.3567 -0.1571 -0.1293
 6132W        W 8332  20.526   3.220  28.320  0.2190  0.0689 -0.0846
 6133W        W 8333   9.983   2.481  28.596  0.2243  0.0072 -0.0078
 6134W        W 8334  22.785   3.103  22.392  0.2233 -0.0118 -0.0605
 6135W        W 8335  22.271   1.893  22.875  0.0983 -0.3487 -0.0727
 6136W        W 8336  18.642   6.873  17.647  0.1267  0.0027  0.3693
 6137W        W 8337   8.002   5.735  15.026  0.3222  0.2366  0.0948
 6138W        W 8338  21.563   1.580  10.001 -0.2048  0.0127 -0.0354
 6139W        W 8339  14.875   4.077  27.129 -0.1812  0.1580 -0.1415
 6140W        W 8340   1.243   3.095  12.876 -0.3645 -0.2286  0.0376
 6141W        W 8341   1.179   4.331  31.700 -0.0982 -0.0507  0.1706
 6142W        W 8342  24.440   5.359   2.846  0.1976  0.1888 -0.2050
 6143W        W 8343  16.143   3.936  25.495 -0.1779 -0.2444 -0.2195
 6144W        W 8344  12.124   7.731  24.934 -0.1874  0.0176 -0.0499
 6145W        W 8345  13.212   2.237   2.921  0.0776  0.0551 -0.5058
 6146W        W 8346  19.307   2.230  31.020  0.0160  0.1617  0.0099
 6147W        W 8347   3.549   5.364   8.644  0.1741  0.3141  0.1584
 6148W        W 8348   5.782   7.138  23.475  0.1586 -0.0251  0.0990
 6149W        W 8349  13.635   4.896  24.386  0.1220  0.1221 -0.2008
 6150W        W 8350   0.284   5.130   9.262 -0.0198 -0.0551 -0.0412
 6151W        W 8351  10.095   7.322  30.615 -0.0534 -0.0958 -0.0677
 6152W        W 8352  21.488   6.249   8.741  0.0644  0.0276 -0.0714
 6153W        W 8353   5.105   6.761  26.518  0.0064  0.3451 -0.1223
 6154W        W 8354  11.581   4.789  31.203 -0.2151 -0.2030  0.2624
 6155W        W 8355  13.105   3.882   5.343  0.2345  0.1607 -0.0218
 6156W        W 8356  12.188   2.978  18.586  0.1374  0.1498 -0.0816
 6157W        W 8357  18.972   5.574   1.255  0.0865 -0.2607 -0.1313
 6158W        W 8358  20.899   5.757  10.783 -0.1707 -0.3215 -0.0373
 6159W        W 8359   3.621   4.289  20.992  0.0469  0.3171 -0.1471
 6160W        W 8360  12.239   4.051   5.398  0.3081  0.1824 -0.1616
 6161W        W 8361   8.688   7.500  17.942 -0.0808  0.3639 -0.0644
 6162W        W 8362  24.168   7.611  27.325 -0.0168  0.1881 -0.2247
 6163W        W 8363  20.972   2.488  25.819  0.1078  0.1983  0.2218
 6164W        W 8364  12.900   6.061  24.785  0.0830 -0.1468 -0.0882
 6165W        W 8365  11.498   1.281   9.275 -0.3106 -0.3660 -0.0666
 6166W        W 8366   6.603   2.463  19.170 -0.1802 -0.0349 -0.1886
 6167W        W 8367  11.299   3.006  20.394  0.0456 -0.1060 -0.0352
 6168W        W 8368  20.352   0.449  13.561 -0.0157  0.1972  0.0050
 6169W        W 8369  23.915   4.801  22.420 -0.0548 -0.0300  0.1004
 6170W        W 8370   6.033   2.146   6.835 -0.0404  0.0462  0.0180
 6171W        W 8371  22.555   3.561  31.562  0.2537 -0.2308  0.2594
 6172W        W 8372  16.742   5.119   0.185  0.0998 -0.0098 -0.3305
 6173W        W 8373   2.017   4.861   8.593  0.2686  0.2578  0.0524
 6174W        W 8374  23.337   3.707  27.392 -0.2259  0.1229 -0.1972
 6175W        W 8375  23.929   7.572   9.247 -0.0983  0.0308  0.0332
 6176W        W 8376  20.631   4.308  10.057  0.0611  0.0406  0.1105
 6177W        W 8377  12.227   0.428  20.759  0.0966 -0.4176  0.1501
 6178W        W 8378   7.189   7.844   3.730 -0.0359 -0.0849 -0.0908
 6179W        W 8379  11.763   1.647  20.412 -0.0892  0.1544  0.1465
 6180W        W 8380  19.232   6.188  17.312  0.2489  0.0272  0.1110
 6181W        W 8381  10.816   7.383  32.462  0.1315 -0.0117  0.1020
 6182W        W 8382  15.116   1.998  20.940  0.0115 -0.0254  0.0624
 6183W        W 8383  23.294   4.611  27.294  0.0985  0.5199  0.0012
 6184W        W 8384  12.842   4.746   8.371  0.0595  0.1071  0.3388
 6185W        W 8385  11.994   2.768   4.368  0.0143 -0.0563  0.1498
 6186W        W 8386   8.497   1.197   8.172 -0.2161 -0.0653  0.0188
 6187W        W 8387   5.015   3.834  22.302  0.3096 -0.1099 -0.1341
 6188W        W 8388   3.290   1.594  28.530  0.2219  0.1849 -0.0799
 6189W        W 8389   2.782   3.066  26.763  0.1149 -0.1536  0.1208
 6190W        W 8390  13.657   3.913  10.170  0.2724 -0.0884 -0.1625
 6191W        W 8391  21.388   3.466  31.604 -0.1811 -0.1241 -0.1278
 6192W        W 8392  15.638   4.685   6.412  0.0728  0.0156  0.1364
 6193W        W 8393   0.692   3.360  30.149 -0.1172 -0.0948  0.0172
 6194W        W 8394   5.584   5.757  19.227  0.0349 -0.0483 -0.1809
 6195W        W 8395  10.718   3.765  22.735  0.2603 -0.1107 -0.4028
 6196W        W 8396   5.772   3.243  25.924 -0.0794 -0.1251 -0.0389
 6197W        W 8397  18.345   5.288  14.302 -0.1004  0.0182  0.3518
 6198W        W 8398  20.015   3.572   9.794 -0.1259 -0.0929 -0.2942
 6199W        W 8399   9.581   0.954   0.349  0.0002  0.0075 -0.0039
 6200W        W 8400  13.146   4.582   5.356  0.0323 -0.2009 -0.3175
 6201W        W 8401  16.706   1.434  12.549  0.0725  0.1540  0.1155
 6202W        W 8402   9.144   1.446   9.552  0.1494  0.1167 -0.0313
 6203W        W 8403   9.297   4.583  23.768 -0.2341 -0.0871 -0.3155
 6204W        W 8404   1.088   2.385  22.813  0.0363 -0.2691 -0.0805
 6205W        W 8405  11.279   7.415   8.519  0.0297 -0.0940 -0.2860
 6206W        W 8406  16.227   0.046   9.128 -0.0494 -0.1113  0.3972
 6207W        W 8407  11.907   4.303  32.229  0.3177  0.2377 -0.0312
 6208W        W 8408  11.900   4.249  24.457 -0.1570 -0.0839 -0.1809
 6209W        W 8409   6.369   4.249  28.402 -0.2904 -0.4013 -0.0368
 6210W        W 8410  19.452   3.919   6.376 -0.6100 -0.0175  0.1266
 6211W        W 8411  12.993   0.026   7.649 -0.0249  0.2048 -0.1631
 6212W        W 8412  17.024   2.541  14.412  0.1769 -0.2166  0.4573
 6213W        W 8413   4.907   3.704   7.565  0.0488 -0.0913  0.0315
 6214W        W 8414  10.061   3.941  21.985 -0.0278  0.2010  0.0661
 6215W        W 8415   0.284   7.804  28.356 -0.0408 -0.1829 -0.0943
 6216W        W 8416  20.649   7.630   9.430 -0.0386 -0.0474  0.0732
 6217W        W 8417  13.685   5.091  22.764  0.1084 -0.0302  0.4193
 6218W        W 8418  18.655   7.170  13.029  0.1880  0.2302 -0.0147
 6219W        W 8419  23.726   1.277   0.754  0.2593 -0.0502  0.1483
 6220W        W 8420   3.943   7.004  18.322 -0.2172  0.0896 -0.0965
 6221W        W 8421  11.615   3.229   5.837 -0.1311 -0.2544 -0.0799
 6222W        W 8422  20.440   0.252  16.214 -0.1864  0.0537  0.2927
 6223W        W 8423  14.517   5.141  22.371  0.1793  0.0632 -0.0681
 6224W        W 8424  15.059   6.659  31.461 -0.2522  0.1914  0.1909
 6225W        W 8425  20.237   1.481   4.244  0.1515 -0.0672 -0.1281
 6226W        W 8426   8.000   1.908  27.757 -0.2658 -0.3397  0.0258
 6227W        W 8427  18.671   2.603  13.411  0.0082  0.0986 -0.3589
 6228W        W 8428  22.604   0.991  12.950 -0.0541  0.0427  0.1273
 6229W        W 8429  17.724   0.765   6.188  0.1051 -0.2859 -0.0316
 6230W        W 8430  16.304   4.827   6.022  0.0073 -0.1507 -0.0311
 6231W        W 8431   3.895   1.905   0.256  0.0356  0.0041  0.1357
 6232W        W 8432   1.793   3.503   6.667 -0.1077 -0.3653  0.0734
 6233W        W 8433   3.310   4.116  23.399 -0.0137 -0.3202  0.0818
 6234W        W 8434   1.647   6.900   8.386  0.1399  0.3080 -0.0744
 6235W        W 8435   5.294   2.146  19.264 -0.1050  0.1019  0.3689
 6236W        W 8436  17.552   4.373  13.178  0.0786 -0.0150 -0.0358
 6237W        W 8437   8.387   3.808   7.532  0.0652  0.0302  0.0105
 6238W        W 8438  15.632   6.767  30.488 -0.0314  0.0046 -0.0739
 6239W        W 8439  17.754   7.277   8.783  0.1719  0.0821  0.1227
 6240W        W 8440   1.363   6.152  20.987 -0.1449 -0.2559 -0.1497
 6241W        W 8441   9.304   6.960   6.680  0.1848 -0.2376 -0.0489
 6242W        W 8442   5.614   6.258  10.766 -0.0628 -0.0403  0.1739
 6243W        W 8443  15.553   4.147  23.423  0.2749 -0.1812  0.1660
 6244W        W 8444   7.597   5.885   6.758  0.1861 -0.2070  0.4513
 6245W        W 8445   2.511   6.173  31.630 -0.0836 -0.0119 -0.0434
 6246W        W 8446  11.579   4.583   7.117 -0.0928 -0.5225 -0.1000
 6247W        W 8447  10.292   2.621   7.640 -0.2151 -0.3166  0.1142
 6248W        W 8448   2.078   0.412  27.224  0.0986 -0.1033 -0.0728
 6249W        W 8449   8.719   2.928  15.995 -0.0485  0.1294  0.2595
 6250W        W 8450  23.035   5.834  22.760  0.2237 -0.0686 -0.3640
 6251W        W 8451  17.858   3.559   0.889 -0.0355  0.1183 -0.0113
 6252W        W 8452  11.197   3.047  22.614  0.0556 -0.0813 -0.0671
 6253W        W 8453   9.505   5.595  30.001  0.3877 -0.1537 -0.0720
 6254W        W 8454   5.216   6.608  19.313 -0.1351  0.3109  0.0539
 6255W        W 8455  18.345   4.771  11.383  0.0942 -0.0848 -0.0208
 6256W        W 8456  18.783   6.462   7.632  0.2208 -0.2518 -0.0067
 6257W        W 8457  24.459   3.975   2.314  0.0850 -0.0261  0.3226
 6258W        W 8458  24.104   1.588  14.431 -0.1691  0.1424  0.1598
 6259W        W 8459  17.408   5.443  12.519  0.1808  0.0325 -0.2135
 6260W        W 8460  11.978   0.931   7.223  0.2092  0.1996 -0.1593
 6261W        W 8461  13.231   5.993   7.919  0.3736  0.0059 -0.1515
 6262W        W 8462   8.775   5.427  30.504  0.0302  0.1159  0.2406
 6263W        W 8463  10.594   6.697  22.777  0.2924  0.0349 -0.1923
 6264W        W 8464   0.382   4.321  23.212  0.0586  0.1451  0.1211
 6265W        W 8465  17.915   7.671  30.585  0.2649  0.0982  0.2048
 6266W        W 8466   1.732   1.565  31.399  0.4291 -0.0720 -0.2823
 6267W        W 8467   7.257   4.573   0.491  0.1399 -0.0347 -0.2340
 6268W        W 8468   9.987   3.370   3.507 -0.1065 -0.0776 -0.0775
 6269W        W 8469   8.721   0.527  30.790 -0.3022 -0.1193  0.2171
 6270W        W 8470  23.906   5.606  27.877 -0.0741 -0.0194  0.0288
 6271W        W 8471   3.633   3.386  18.477  0.1036 -0.0622 -0.1697
 6272W        W 8472  24.810   7.639  10.133 -0.1622 -0.2817  0.1115
 6273W        W 8473  14.337   7.198  25.764  0.1969  0.1503 -0.4263
 6274W        W 8474  21.373   1.659  29.961 -0.0691 -0.4380  0.1483
 6275W        W 8475   5.164   1.908  24.892 -0.1123 -0.1809  0.0605
 6276W        W 8476   6.742   5.488   1.480  0.2349  0.0797 -0.2076
 6277W        W 8477   4.709   6.948   7.285  0.1861 -0.3730  0.0780
 6278W        W 8478  22.810   7.479   8.437  0.0699 -0.1907 -0.0565
 6279W        W 8479   7.450   4.267  16.029  0.3131  0.0425 -0.3811
 6280W        W 8480  15.022   5.488  25.571  0.0690 -0.1854 -0.1029
 6281W        W 8481  12.264   0.040   2.947  0.0446  0.0517  0.4106
 6282W        W 8482  11.730   4.426   2.929  0.0554 -0.0036 -0.4385
 6283W        W 8483  16.555   0.708  14.466 -0.1519  0.2447  0.1739
 6284W        W 8484   3.898   2.304  26.203 -0.0640 -0.1327 -0.1962
 6285W        W 8485   7.356   5.170  15.208 -0.1695 -0.0353  0.1452
 6286W        W 8486   2.717   7.007   7.526 -0.1005 -0.1555 -0.3052
 6287W        W 8487  13.882   2.067  10.466  0.1662 -0.0556 -0.0893
 6288W        W 8488  14.965   2.863   3.321  0.0365 -0.0041 -0.3224
 6289W        W 8489   2.879   6.731  22.109  0.0663  0.0364 -0.1404
 6290W        W 8490  20.676   4.730   8.715 -0.0553 -0.0343  0.3741
 6291W        W 8491  16.655   2.082   6.813  0.3333  0.2127  0.2129
 6292W        W 8492   7.229   2.544  26.949  0.0908 -0.0004 -0.0757
 6293W        W 8493  11.796   5.597  21.250  0.1484 -0.3735  0.1655
 6294W        W 8494  20.977   2.333  12.676 -0.0731 -0.2415 -0.0347
 6295W        W 8495  20.062   0.452   9.165  0.0704 -0.0205  0.1171
 6296W        W 8496  15.229   0.547  30.379  0.0746  0.0494  0.2442
 6297W        W 8497   8.637   5.044  32.441 -0.1136  0.0719  0.1398
 6298W        W 8498  11.176   4.384  23.091  0.3131  0.0475  0.1749
 6299W        W 8499   9.838   4.812   2.206  0.0390 -0.2004  0.1748
 6300W        W 8500  15.338   5.302  10.841  0.0103  0.2365  0.1306
 6301W        W 8501   9.232   7.096  18.504  0.0477 -0.1780  0.2797
 6302W        W 8502  24.892   0.977  13.529  0.0857 -0.1835 -0.5349
 6303W        W 8503   7.379   4.833  30.609 -0.0062  0.0884 -0.2745
 6304W        W 8504  21.793   4.158  29.038  0.0108  0.1050  0.3023
 6305W        W 8505  22.425   0.006  31.905  0.1307 -0.1734 -0.1575
 6306W        W 8506   0.430   1.543   0.843  0.0009  0.0348  0.0603
 6307W        W 8507   9.674   1.340  18.455 -0.1123  0.1995 -0.3093
 6308W        W 8508  17.924   1.394   3.939 -0.2044 -0.1082  0.1416
 6309W        W 8509  11.520   7.660   5.824  0.3481 -0.0997  0.0132
 6310W        W 8510  22.566   4.398  15.675 -0.0453  0.1848 -0.1316
 6311W        W 8511   8.605   1.348   0.826 -0.1690 -0.0754 -0.2945
 6312W        W 8512  15.781   0.755   7.168  0.1639  0.0315 -0.0944
 6313W        W 8513  18.503   2.700  32.129  0.3038  0.1058  0.1447
 6314W        W 8514  18.210   5.856   8.597  0.0711  0.0035 -0.2879
 6315W        W 8515  15.354   6.751   4.957 -0.0480  0.0456 -0.2040
 6316W        W 8516  23.964   3.600   8.352 -0.0713 -0.1415 -0.0464
 6317W        W 8517   6.399   0.853  17.114 -0.3670 -0.2694  0.1760
 6318W        W 8518   3.778   0.124  16.632  0.0777  0.1136 -0.1261
 6319W        W 8519  22.770   3.744  14.176  0.0472 -0.2509  0.2608
 6320W        W 8520  11.017   2.421   0.103  0.0153  0.1874  0.0260
 6321W        W 8521   5.908   1.643   9.352 -0.3173 -0.1758  0.0537
 6322W        W 8522  17.342   3.028   6.296 -0.0018 -0.2403  0.2378
 6323W        W 8523  12.959   4.220  32.024  0.0018  0.0547  0.3154
 6324W        W 8524   2.075   5.475  26.174  0.0737 -0.1886 -0.4500
 6325W        W 8525  18.104   0.049  29.222 -0.2748 -0.3984  0.2452
 6326W        W 8526   4.861   0.960   0.688 -0.4830 -0.1332  0.0316
 6327W        W 8527  23.927   5.260  27.155 -0.0607  0.1150 -0.2188
 6328W        W 8528  18.047   3.109  27.428  0.2171 -0.0444 -0.1288
 6329W        W 8529   4.931   1.901   9.528  0.1098 -0.2643  0.0791
 6330W        W 8530  23.698   4.905  31.235  0.2688 -0.2396  0.0641
 6331W        W 8531  15.229   7.022  22.353 -0.1180  0.2117  0.1269
 6332W        W 8532  22.816   6.266   6.850 -0.0304 -0.0239  0.1707
 6333W        W 8533   6.412   2.805   0.057  0.1355 -0.0980  0.2111
 6334W        W 8534  24.952   0.309  32.312  0.1750  0.1277  0.1869
 6335W        W 8535  24.962   1.182  24.700  0.1082  0.1155  0.1030
 6336W        W 8536   4.497   2.329  25.197  0.3468  0.0818 -0.0291
 6337W        W 8537  17.616   3.781   2.719  0.0221 -0.2461 -0.1030
 6338W        W 8538  24.799   6.858  20.266  0.3691  0.1624  0.2759
 6339W        W 8539  19.663   1.741   6.007  0.3046 -0.0785  0.2634
 6340W        W 8540   8.446   2.510  24.043 -0.0484  0.2166  0.0284
 6341W        W 8541  21.180   7.313  15.182  0.2509  0.3346 -0.0491
 6342W        W 8542  17.642   1.544  27.930 -0.0795  0.3101 -0.1447
 6343W        W 8543  13.208   0.356   2.306 -0.1136  0.2965  0.4393
 6344W        W 8544  15.304   4.330   5.082 -0.2669  0.2880 -0.0418
 6345W        W 8545  10.087   1.894   7.427 -0.1272 -0.2331  0.0466
 6346W        W 8546  15.480   2.784  10.594  0.3283 -0.2118 -0.1303
 6347W        W 8547   6.573   6.606  31.616 -0.2133 -0.0335  0.2511
 6348W        W 8548   0.259   1.969  29.556 -0.3820  0.0355 -0.2450
 6349W        W 8549   4.086   0.574  15.558 -0.2371  0.3638  0.0840
 6350W        W 8550  23.289   1.665  13.387  0.2947 -0.1697  0.2202
 6351W        W 8551  15.554   0.754  11.317  0.3625 -0.3412  0.2369
 6352W        W 8552   4.551   6.230  16.024 -0.3340 -0.1081 -0.1798
 6353W        W 8553   7.706   4.395  27.020 -0.1049  0.1386 -0.4138
 6354W        W 8554   9.590   0.318   7.084  0.0374  0.1667  0.0277
 6355W        W 8555   4.522   1.556  24.334 -0.0821 -0.1532 -0.1184
 6356W        W 8556   7.329   3.572  14.832 -0.3093 -0.2760 -0.2072
 6357W        W 8557  12.328   7.347   6.521 -0.3621  0.0540 -0.0799
 6358W        W 8558  18.642   2.577  24.891  0.0498 -0.0980 -0.3749
 6359W        W 8559   8.330   5.218  28.831 -0.0271  0.0251  0.2387
 6360W        W 8560   9.352   5.382   3.508  0.2912  0.3864 -0.3412
 6361W        W 8561   8.501   0.848  20.246  0.1826 -0.2007 -0.0803
 6362W        W 8562  18.427   4.550  17.680 -0.0526  0.1744  0.0730
 6363W        W 8563  12.498   0.419  20.274 -0.1898  0.1716 -0.0599
 6364W        W 8564  21.315   5.775  22.182 -0.1271 -0.2668  0.2248
 6365W        W 8565   5.287   7.334  27.985  0.2729 -0.0953 -0.2104
 6366W        W 8566   0.335   4.044   7.378 -0.0432 -0.1646  0.0417
 6367W        W 8567   1.482   3.528   4.396  0.2560  0.1040  0.1222
 6368W        W 8568   7.994   0.320  18.887  0.1775  0.0137 -0.1818
 6369W        W 8569  16.938   5.300   1.953 -0.1218 -0.0668 -0.2330
 6370W        W 8570  20.723   4.543  29.387  0.1377  0.1558  0.0712
 6371W        W 8571  23.235   1.717  29.561 -0.3453 -0.3678  0.0630
 6372W        W 8572  15.241   6.233   0.127  0.0388  0.0016  0.1819
 6373W        W 8573  20.128   0.293  25.832  0.1469 -0.1038  0.1838
 6374W        W 8574   9.682   3.629  21.846 -0.4134 -0.0475  0.0121
 6375W        W 8575  17.360   0.165  26.034 -0.0603 -0.0708  0.1043
 6376W        W 8576  22.427   4.630   5.620  0.0720  0.1292 -0.1825
 6377W        W 8577  16.500   4.995  28.475  0.1073 -0.3943 -0.2739
 6378W        W 8578   6.843   2.613   9.203  0.0970 -0.0395  0.3496
 6379W        W 8579  21.230   0.490   7.559  0.3184  0.2096 -0.1059
 6380W        W 8580  13.343   7.704  20.544  0.0496  0.2346 -0.0991
 6381W        W 8581  23.864   4.940  12.746 -0.0316  0.1134  0.1059
 6382W        W 8582  17.549   0.995   1.381  0.0143  0.1730 -0.0174
 6383W        W 8583   3.446   4.144  17.991  0.1803 -0.1261 -0.1543
 6384W        W 8584  14.948   6.912   7.556  0.1912 -0.1110  0.0216
 6385W        W 8585  16.462   3.685   4.646  0.3912  0.0169  0.1279
 6386W        W 8586   3.489   2.600   7.737  0.1798  0.0163 -0.2462
 6387W        W 8587  11.989   5.024  22.243  0.0670 -0.1726 -0.0491
 6388W        W 8588   9.414   6.008   1.530  0.0868  0.3204  0.0176
 6389W        W 8589  22.276   1.493  10.453  0.0525  0.3467  0.1135
 6390W        W 8590  11.314   2.188  30.967 -0.1230  0.1964  0.0592
 6391W        W 8591  13.713   7.151  27.554 -0.0848 -0.0069 -0.2243
 6392W        W 8592   3.040   6.817  18.831 -0.2724  0.2785  0.0172
 6393W        W 8593   5.181   1.018  16.171 -0.1503 -0.0725 -0.1989
 6394W        W 8594   8.032   3.999  16.603 -0.1889  0.2011  0.1104
 6395W        W 8595   0.757   4.963  22.596  0.1331 -0.1442  0.0949
 6396W        W 8596  14.749   6.383  29.634 -0.2110  0.3157 -0.0602
 6397W        W 8597   8.026   5.462   6.873  0.1599 -0.0279 -0.0487
 6398W        W 8598  19.110   1.155   8.155 -0.1698 -0.0972  0.3305
 6399W        W 8599   2.055   7.769  26.238  0.1408  0.2139 -0.0651
 6400W        W 8600   9.604   7.170  29.089 -0.0601  0.1423 -0.1020
 6401W        W 8601   1.499   3.304   6.011 -0.1294 -0.0786  0.0420
 6402W        W 8602   3.091   3.774  23.753  0.1568  0.1157  0.3197
 6403W        W 8603  24.866   6.430  31.487  0.1508  0.2430  0.0657
 6404W        W 8604  10.057   7.168   3.363  0.0492 -0.1085  0.1298
 6405W        W 8605  17.891   4.601  12.398  0.0665 -0.0431 -0.0291
 6406W        W 8606   0.889   1.098  22.664 -0.3068  0.1461 -0.0229
 6407W        W 8607  20.262   1.516  26.513  0.0062 -0.1910  0.0280
 6408W        W 8608  20.171   5.114  23.607  0.0544 -0.1674  0.2935
 6409W        W 8609  17.615   3.448  31.095 -0.2576 -0.3612 -0.1389
 6410W        W 8610   6.591   5.925  18.500  0.0267 -0.1724  0.2212
 6411W        W 8611   3.524   1.316   7.254 -0.1086 -0.0503 -0.2819
 6412W        W 8612  15.236   0.133  22.837 -0.0419  0.1570  0.1835
 6413W        W 8613  24.418   3.177   0.897 -0.1765 -0.1333 -0.1634
 6414W        W 8614  22.139   6.529  30.247 -0.1328  0.2513  0.1443
 6415W        W 8615   2.330   4.072  32.177 -0.0311 -0.1098  0.1568
 6416W        W 8616  23.475   3.808  27.905  0.1283 -0.0339  0.2090
 6417W        W 8617   1.450   4.815   4.326  0.3566 -0.4171 -0.0088
 6418W        W 8618  11.510   1.477   6.477 -0.1003  0.1325  0.1383
 6419W        W 8619   7.406   0.905  26.989  0.1816 -0.0035  0.0997
 6420W        W 8620   3.497   2.428  16.472 -0.3903  0.1461  0.0579
 6421W        W 8621  19.530   3.706  23.070  0.3552 -0.2724  0.2769
 6422W        W 8622  22.262   6.790   1.559  0.0126  0.0125 -0.2052
 6423W        W 8623  14.932   6.762  27.710 -0.1236 -0.1130 -0.0751
 6424W        W 8624   4.111   2.421  32.153 -0.1489 -0.0341 -0.0448
 6425W        W 8625   8.623   0.248  19.520 -0.0194  0.1759 -0.1465
 6426W        W 8626   0.814   1.280  29.004 -0.3415  0.4097  0.1705
 6427W        W 8627  10.227   4.434   0.380  0.0091 -0.2094 -0.2382
 6428W        W 8628  16.665   4.205  13.721 -0.1835  0.0706 -0.0373
 6429W        W 8629   0.377   6.770  18.912 -0.2524  0.0583 -0.1766
 6430W        W 8630  17.840   2.393  17.176 -0.0303  0.1277  0.2070
 6431W        W 8631   0.965   1.057  21.321  0.0190 -0.0467 -0.0556
 6432W        W 8632  23.279   0.827  22.894 -0.1842  0.0446 -0.0498
 6433W        W 8633  18.650   5.694  24.681 -0.1659  0.0228 -0.0226
 6434W        W 8634  11.152   4.924   1.668  0.0587 -0.1162 -0.1050
 6435W        W 8635  18.666   3.698  26.823 -0.5692 -0.0882  0.0762
 6436W        W 8636  12.441   1.661  12.498 -0.1372 -0.1540  0.0272
 6437W        W 8637   5.470   0.958   9.011  0.1205 -0.2027  0.0349
 6438W        W 8638  17.898   2.034  31.191  0.0748  0.0509 -0.0200
 6439W        W 8639   1.789   4.219  10.432 -0.2336 -0.2381  0.0136
 6440W        W 8640  15.554   4.505   0.623 -0.7128 -0.2145  0.0755
 6441W        W 8641  22.952   1.814  27.429 -0.1913 -0.2898  0.2458
 6442W        W 8642   7.501   7.482   9.166  0.4826 -0.3463  0.1303
 6443W        W 8643   8.562   6.451  31.975  0.0714  0.3107  0.2106
 6444W        W 8644  20.115   5.851   7.993  0.0281 -0.1060  0.0041
 6445W        W 8645   0.536   1.418  19.963  0.1518 -0.1262 -0.1063
 6446W        W 8646   9.318   4.108  26.769  0.2394  0.3115  0.2145
 6447W        W 8647  11.316   0.125  10.041  0.1250 -0.0696 -0.2757
 6448W        W 8648  18.981   3.976  30.107 -0.0556  0.0797  0.2187
 6449W        W 8649  24.198   3.925  28.872  0.1293 -0.2101 -0.0566
 6450W        W 8650  21.874   4.147  29.569  0.1081  0.0111  0.0007
 6451W        W 8651   3.384   5.941   0.074 -0.2431 -0.5770  0.2344
 6452W        W 8652  10.922   0.544   5.964  0.2066  0.0762  0.3312
 6453W        W 8653   9.397   1.055  25.176  0.1244 -0.0632 -0.1625
 6454W        W 8654   3.627   1.229   6.307  0.0885 -0.4930 -0.0651
 6455W        W 8655   9.027   0.622  28.385 -0.1501  0.1873  0.3828
 6456W        W 8656  13.607   5.432  30.436 -0.0120  0.0319  0.3146
 6457W        W 8657  23.924   0.730  29.680 -0.1971 -0.3764 -0.0075
 6458W        W 8658   4.013   6.120  16.286 -0.2280 -0.0073  0.1934
 6459W        W 8659  17.250   5.605  29.375  0.1806  0.1384 -0.0714
 6460W        W 8660  20.233   5.902  29.082  0.0588 -0.0587  0.2781
 6461W        W 8661   8.594   5.411   8.085 -0.2401 -0.0987  0.0093
 6462W        W 8662  11.636   6.664  20.280 -0.0466  0.1274  0.2049
 6463W        W 8663  15.973   0.482   9.247  0.2791  0.0225 -0.0976
 6464W        W 8664  13.482   7.328  26.780  0.3554  0.0495  0.3361
 6465W        W 8665  24.598   6.373   1.148  0.6058  0.1620  0.0196
 6466W        W 8666   9.832   7.509   5.042  0.1144 -0.2773 -0.1763
 6467W        W 8667   2.346   6.996  21.049  0.2128 -0.1778  0.2377
 6468W        W 8668  22.138   1.195  16.206 -0.4450  0.0375  0.0430
 6469W        W 8669  15.023   2.355   2.649 -0.2516 -0.0024  0.0856
 6470W        W 8670  15.007   5.714   2.132 -0.0188 -0.0760 -0.0481
 6471W        W 8671   1.977   7.052  11.011  0.0928  0.0113 -0.3249
 6472W        W 8672   7.950   2.247  15.546 -0.1813 -0.0237  0.2148
 6473W        W 8673   5.145   0.732  19.646  0.1158 -0.0766 -0.0505
 6474W        W 8674  13.543   5.210  11.876 -0.1419  0.0782 -0.0734
 6475W        W 8675   2.815   1.802  31.571  0.0405  0.0300  0.0847
 6476W        W 8676  11.373   3.829  26.734 -0.1471 -0.0752 -0.0821
 6477W        W 8677  22.778   4.480  30.897  0.1360 -0.1455 -0.1301
 6478W        W 8678  16.773   3.895  28.040 -0.1565  0.1474  0.1730
 6479W        W 8679   0.473   6.976  31.110  0.2257  0.2049  0.1736
 6480W        W 8680  19.568   6.398  13.352 -0.1856 -0.0658  0.3392
 6481W        W 8681  16.651   2.491  30.261  0.1272 -0.0082  0.1038
 6482W        W 8682   4.379   2.182  24.701 -0.0019  0.1547 -0.2177
 6483W        W 8683  21.847   2.295  14.749  0.1986 -0.1888  0.1055
 6484W        W 8684   7.455   5.393  19.393  0.3867 -0.0963 -0.1515
 6485W        W 8685  18.767   3.028   5.271 -0.1464 -0.0631  0.1723
 6486W        W 8686  15.307   5.321  12.719 -0.0618 -0.1021 -0.2227
 6487W        W 8687   8.097   4.624   5.782  0.2541  0.0809 -0.2786
 6488W        W 8688   5.681   4.389   6.827 -0.0884 -0.1193 -0.2178
 6489W        W 8689   5.378   1.051  24.630 -0.1212  0.1226  0.1883
 6490W        W 8690  12.975   6.113  24.302 -0.1452  0.1263 -0.0534
 6491W        W 8691   7.266   1.114   6.123 -0.2650 -0.0551 -0.1429
 6492W        W 8692   8.587   5.572  18.782  0.0429  0.0539 -0.2560
 6493W        W 8693  24.806   4.690  25.883 -0.0347 -0.5803 -0.2775
 6494W        W 8694  20.126   7.831  13.903 -0.2363 -0.1789 -0.0286
 6495W        W 8695  18.339   3.274   9.178 -0.0310  0.1635  0.0336
 6496W        W 8696   5.907   4.932   1.607 -0.0711  0.0428 -0.2143
 6497W        W 8697   2.427   3.136  19.135 -0.0948  0.0143 -0.1678
 6498W        W 8698  21.793   1.304   2.533 -0.0672  0.1161 -0.0471
 6499W        W 8699  16.829   2.944  23.429 -0.1034 -0.3396  0.0328
 6500W        W 8700  18.603   4.495   3.409 -0.1797  0.2985 -0.3408
 6501W        W 8701   1.040   2.070   0.669 -0.1431 -0.2694  0.0578
 6502W        W 8702   4.625   6.290   4.098 -0.1296 -0.0617 -0.0690
 6503W        W 8703   0.816   7.116  17.829  0.1777  0.3041  0.0407
 6504W        W 8704  14.573   6.945  23.791 -0.0663  0.1582  0.4035
 6505W        W 8705  19.091   1.405   7.589 -0.1179  0.0021 -0.0066
 6506W        W 8706   0.230   5.953   8.567 -0.0821  0.2701 -0.1815
 6507W        W 8707   5.415   6.752  23.704  0.0308 -0.0144  0.0309
 6508W        W 8708  18.646   4.620  14.118  0.3023 -0.0109  0.0883
 6509W        W 8709  15.744   4.234  30.300  0.1692  0.1357 -0.0114
 6510W        W 8710  15.050   2.589  10.328 -0.2737 -0.1046 -0.1290
 6511W        W 8711   7.805   1.841  28.243 -0.0906  0.1779 -0.3732
 6512W        W 8712  14.415   5.966  29.140 -0.2568  0.0569  0.0432
 6513W        W 8713  23.461   4.615   3.890  0.0545 -0.3154 -0.0241
 6514W        W 8714  18.163   2.965   7.728  0.2445 -0.2314 -0.1481
 6515W        W 8715  17.992   5.210  27.065  0.0021 -0.1130  0.0847
 6516W        W 8716   8.884   2.503   8.198  0.1357  0.0815 -0.1184
 6517W        W 8717   0.607   7.599  31.928 -0.0481  0.3451  0.1338
 6518W        W 8718  12.619   0.744   0.646 -0.1679  0.0451  0.1146
 6519W        W 8719   7.203   0.734   8.432  0.4236  0.1619 -0.1179
 6520W        W 8720  21.840   4.647  32.279  0.0185  0.1291  0.1330
 6521W        W 8721   9.052   5.373   8.761 -0.2449  0.0120  0.0081
 6522W        W 8722   0.849   4.851   1.969 -0.1717  0.0260  0.1796
 6523W        W 8723  15.895   6.499  15.719 -0.2579  0.3757  0.1847
 6524W        W 8724  14.355   5.841   6.053  0.0472 -0.0423 -0.2326
 6525W        W 8725   5.882   7.149  27.307  0.0546 -0.0496  0.0070
 6526W        W 8726  16.154   3.364   4.967  0.0406  0.0692 -0.0660
 6527W        W 8727  23.150   1.073   4.653  0.0916  0.1088 -0.0245
 6528W        W 8728   0.544   1.705  23.158 -0.2452  0.0249 -0.2984
 6529W        W 8729  22.660   5.049  14.892  0.0537  0.0715  0.5476
 6530W        W 8730  10.079   5.615   6.656  0.0626  0.0124  0.2388
 6531W        W 8731   8.733   4.995  15.743 -0.0982  0.1117 -0.0614
 6532W        W 8732  25.098   6.066   1.941  0.0831  0.1154 -0.0382
 6533W        W 8733  12.476   0.924   9.692 -0.0804  0.3696  0.3302
 6534W        W 8734   4.413   6.281  18.437  0.1135  0.1172  0.1522
 6535W        W 8735   3.964   3.572   6.370 -0.1330 -0.0083  0.1904
 6536W        W 8736  20.332   1.026  27.340  0.0004  0.1117  0.1312
 6537W        W 8737  19.935   7.814   3.489  0.1160 -0.2292  0.1295
 6538W        W 8738  10.311   4.123  22.830 -0.0672 -0.0332 -0.0904
 6539W        W 8739  19.353   6.091   6.459  0.0275  0.0530  0.0222
 6540W        W 8740   0.195   3.471  27.035  0.3060 -0.2394 -0.0623
 6541W        W 8741   0.765   2.140  19.137 -0.1407  0.2646  0.0814
 6542W        W 8742   6.651   1.262  25.623  0.1527 -0.0456 -0.1367
 6543W        W 8743  24.443   1.884   6.353 -0.0487  0.0829 -0.4763
 6544W        W 8744  19.159   7.063   6.426 -0.1601  0.0480 -0.1514
 6545W        W 8745   6.686   6.444  26.659  0.0514 -0.0034 -0.1104
 6546W        W 8746  21.793   0.137   8.817 -0.0036 -0.0685 -0.0572
 6547W        W 8747  10.510   1.469  11.140  0.0137  0.1186 -0.0964
 6548W        W 8748   8.161   1.807   7.519 -0.1868  0.1516  0.0880
 6549W        W 8749  21.184   7.548  22.024 -0.1906  0.0633 -0.0944
 6550W        W 8750  12.660   2.266   8.244  0.0034 -0.2702 -0.0220
 6551W        W 8751  11.532   3.898   8.910  0.2117 -0.2508 -0.0300
 6552W        W 8752   9.124   2.982  20.337 -0.4817 -0.1813 -0.2701
 6553W        W 8753  19.751   0.863  13.701 -0.0103 -0.3344  0.0348
 6554W        W 8754  17.038   4.110  10.321  0.0397 -0.2967 -0.2115
 6555W        W 8755   6.099   2.113  26.812  0.3298 -0.0527 -0.0909
 6556W        W 8756  24.370   2.836  24.555 -0.3583  0.3396  0.0749
 6557W        W 8757  23.738   5.260   5.510 -0.0706 -0.0281  0.0240
 6558W        W 8758  20.275   7.319  12.953 -0.1945 -0.2005  0.0203
 6559W        W 8759  12.014   5.246  19.797  0.1194 -0.0891 -0.3816
 6560W        W 8760  24.957   7.216   7.603  0.1975  0.2835  0.0344
 6561W        W 8761  16.099   1.358  11.312  0.1015 -0.1056  0.1507
 6562W        W 8762  24.822   4.441   3.508  0.1481  0.1583 -0.1511
 6563W        W 8763   3.807   5.166  18.910 -0.2588  0.0807  0.2499
 6564W        W 8764  19.162   2.960  23.565 -0.0868 -0.2988  0.2850
 6565W        W 8765  23.859   5.232  30.137  0.1808  0.1089 -0.1524
 6566W        W 8766   4.283   4.784  19.675 -0.2525  0.2699 -0.2068
 6567W        W 8767   4.609   3.704  22.604  0.0801  0.0708  0.1636
 6568W        W 8768   4.445   4.976   1.869  0.1123 -0.2632 -0.1821
 6569W        W 8769  17.005   1.511   4.644 -0.3133  0.1276 -0.2521
 6570W        W 8770   7.021   6.432  17.780 -0.0582  0.2305  0.2901
 6571W        W 8771  23.715   5.427  28.352 -0.0257  0.1046 -0.2098
 6572W        W 8772  10.244   5.727   8.759 -0.4903 -0.0770  0.0043
 6573W        W 8773   3.007   7.724   8.269 -0.0294  0.1487 -0.0135
 6574W        W 8774   6.916   7.493   2.756 -0.1898  0.3163  0.1090
 6575W        W 8775  18.098   0.782   9.399 -0.1223 -0.0970 -0.1221
 6576W        W 8776  14.838   7.423  25.494 -0.0919 -0.2707  0.3555
 6577W        W 8777   4.819   2.369  26.586  0.1288 -0.4362 -0.1332
 6578W        W 8778  10.452   1.570   6.644  0.0656  0.3805  0.3014
 6579W        W 8779  19.782   4.925  17.665  0.3467  0.2050  0.3334
 6580W        W 8780  11.119   7.776  17.051 -0.1684 -0.0156  0.4176
 6581W        W 8781  24.785   7.085   2.806 -0.0250 -0.2286  0.0732
 6582W        W 8782  23.438   5.495  27.362  0.0949 -0.0756 -0.1817
 6583W        W 8783  16.985   2.127  17.013 -0.1914 -0.0298  0.3651
 6584W        W 8784   3.250   7.310  24.329  0.1023 -0.4358 -0.4008
 6585W        W 8785   7.067   5.455  16.292  0.2435 -0.1755 -0.0221
 6586W        W 8786  15.238   0.628   0.477 -0.0501 -0.0575  0.0835
 6587W        W 8787  13.365   7.795  28.516 -0.2879 -0.1682  0.2670
 6588W        W 8788  16.977   1.038  13.900 -0.1229  0.1283 -0.4330
 6589W        W 8789  22.545   4.327   8.672 -0.1332 -0.2852  0.2184
 6590W        W 8790  24.066   1.902   8.737 -0.0517  0.1219 -0.0898
 6591W        W 8791  20.292   6.676  14.466 -0.2340 -0.1118 -0.1093
 6592W        W 8792   3.299   1.265  10.221  0.3282 -0.1050  0.0574
 6593W        W 8793   3.424   5.280  10.500  0.0030 -0.0083  0.0095
 6594W        W 8794  10.296   0.356  32.064 -0.2538 -0.1157  0.3517
 6595W        W 8795  21.562   0.692   8.966  0.1025 -0.4591  0.0628
 6596W        W 8796   5.896   4.932   4.701  0.1819  0.0907  0.1896
 6597W        W 8797  17.824   7.761   3.655 -0.2638 -0.0059 -0.1860
 6598W        W 8798  24.519   4.039  22.610 -0.1987 -0.1321 -0.0267
 6599W        W 8799  17.140   1.892  29.560  0.2377  0.1385 -0.2405
 6600W        W 8800   9.721   2.988  24.761  0.0404 -0.1473  0.0600
 6601W        W 8801   3.404   1.861  21.213 -0.3669 -0.3347 -0.1604
 6602W        W 8802   6.349   6.164   0.700 -0.1977 -0.0291  0.1462
 6603W        W 8803  10.621   1.422   7.089  0.2942 -0.3239  0.2238
 6604W        W 8804  12.878   6.541  10.925  0.3022 -0.2266  0.1065
 6605W        W 8805   8.845   5.529   2.093 -0.2673  0.2905  0.1524
 6606W        W 8806  14.803   3.540  31.711 -0.0542 -0.0410 -0.0879
 6607W        W 8807   1.454   7.053  11.704 -0.2153 -0.0299  0.1439
 6608W        W 8808   5.721   1.063  27.446 -0.1639  0.0439 -0.4738
 6609W        W 8809  23.723   3.508   8.830 -0.1859 -0.2825  0.1607
 6610W        W 8810  21.760   3.618   6.783 -0.1690 -0.0996 -0.2122
 6611W        W 8811   8.742   4.138   2.659  0.0054  0.2359 -0.1642
 6612W        W 8812  15.019   1.032   8.302  0.0413 -0.1616  0.0550
 6613W        W 8813  24.828   3.362   7.241 -0.1097  0.0277 -0.1918
 6614W        W 8814  10.067   7.226  20.206 -0.0806  0.1925  0.3166
 6615W        W 8815  24.437   4.419  30.850 -0.0356 -0.1596  0.1833
 6616W        W 8816  13.329   6.929   3.382 -0.0587  0.2539 -0.1022
 6617W        W 8817  17.769   2.986   3.432  0.2477  0.0408  0.3728
 6618W        W 8818   1.655   3.372  30.331  0.4283  0.0717 -0.3159
 6619W        W 8819   1.973   1.682  11.880  0.2571  0.1769 -0.1555
 6620W        W 8820  15.753   7.088  12.625  0.0523  0.1056 -0.2180
 6621W        W 8821  10.045   6.799  31.332 -0.2587 -0.3908  0.0797
 6622W        W 8822   2.986   3.540  10.526 -0.2544 -0.1004  0.0678
 6623W        W 8823   9.404   2.988   4.638  0.1087 -0.1685  0.0400
 6624W        W 8824   3.368   5.377  17.750 -0.1853 -0.0267 -0.2841
 6625W        W 8825  13.607   4.383  31.275 -0.1500 -0.0696 -0.1809
 6626W        W 8826  22.123   7.754  28.405  0.2154  0.0445  0.1605
 6627W        W 8827   6.319   3.386   0.537 -0.2191 -0.1305  0.3615
 6628W        W 8828   2.697   1.861  19.902 -0.2299  0.0521 -0.2526
 6629W        W 8829  23.883   6.613   4.998 -0.6485 -0.1497  0.1435
 6630W        W 8830  13.845   1.813  27.777  0.0995  0.3076 -0.2371
 6631W        W 8831  22.050   5.264  31.462  0.0751  0.2280 -0.1144
 6632W        W 8832  19.923   1.016  17.869  0.0331  0.3002 -0.2825
 6633W        W 8833   4.966   1.375  19.421  0.0744 -0.3083 -0.1431
 6634W        W 8834   7.497   6.315  18.973 -0.1487 -0.1853  0.3103
 6635W        W 8835  13.795   6.900  26.975  0.2252  0.0132  0.1323
 6636W        W 8836  10.881   6.782  21.255 -0.4517 -0.0705 -0.0450
 6637W        W 8837   3.044   4.035  10.818 -0.0461  0.0328 -0.2343
 6638W        W 8838   7.583   3.265  17.113 -0.0359 -0.2410 -0.0571
 6639W        W 8839  12.743   2.315  20.876  0.3331  0.0238 -0.1089
 6640W        W 8840  20.160   2.081  22.957  0.1521 -0.1313 -0.1069
 6641W        W 8841  10.187   7.792   1.514 -0.2494  0.0161 -0.2878
 6642W        W 8842   7.971   7.395   3.373 -0.2240 -0.2793  0.0796
 6643W        W 8843  17.538   5.451  28.910 -0.0723  0.2240  0.1370
 6644W        W 8844   5.574   4.965  22.023 -0.2165  0.2279  0.0976
 6645W        W 8845   2.338   0.796  23.127 -0.1022  0.1949  0.1058
 6646W        W 8846   2.417   3.514   0.331  0.2345  0.1132  0.1410
 6647W        W 8847  22.957   1.093   5.506 -0.0467 -0.1626 -0.0385
 6648W        W 8848   5.365   5.598  14.865  0.0998 -0.0844 -0.2349
 6649W        W 8849  19.647   2.762  12.385  0.1089 -0.1374 -0.0334
 6650W        W 8850   4.307   6.205  17.208  0.0776 -0.1290  0.1431
 6651W        W 8851   8.073   6.396   1.730 -0.1449  0.1364 -0.0343
 6652W        W 8852  19.569   7.235   9.957  0.1458  0.0155 -0.0466
 6653W        W 8853   7.714   0.927   2.082 -0.1965  0.1485  0.0066
 6654W        W 8854  16.277   1.912   3.361  0.0629  0.1214  0.0904
 6655W        W 8855  23.176   0.456  23.221 -0.0291  0.0243  0.0296
 6656W        W 8856   3.829   1.399   9.860  0.0786  0.1176  0.1123
 6657W        W 8857   2.580   6.348  20.092 -0.1330  0.0460 -0.0639
 6658W        W 8858  13.954   2.194  27.545 -0.0422  0.1632  0.2555
 6659W        W 8859  18.563   3.697  23.413  0.0158  0.2469 -0.1223
 6660W        W 8860  24.499   4.734  22.516  0.1542  0.1062 -0.1066
 6661W        W 8861   0.939   2.420   4.653 -0.2610  0.1368  0.1308
 6662W        W 8862  17.827   5.685  24.056  0.2725  0.0687 -0.1905
 6663W        W 8863  12.036   0.352  24.307 -0.0319  0.3594  0.1403
 6664W        W 8864   5.646   2.605  26.046  0.0155  0.2053  0.0655
 6665W        W 8865  22.982   2.157  12.005  0.1480 -0.1869  0.3010
 6666W        W 8866  22.581   4.765  28.134  0.1267 -0.0961  0.0233
 6667W        W 8867  13.967   3.374   1.239  0.4224 -0.1531  0.2009
 6668W        W 8868  25.037   6.405  30.793  0.2239 -0.0744 -0.0665
 6669W        W 8869  14.018   4.011  31.504  0.1212 -0.0024  0.0034
 6670W        W 8870  14.360   0.948   2.337  0.3848 -0.1446  0.0335
 6671W        W 8871   0.198   5.451   7.516 -0.1875  0.0290  0.0218
 6672W        W 8872   4.531   2.527   3.394  0.0265 -0.2365 -0.0228
 6673W        W 8873   8.352   4.574   0.595  0.1092  0.0679  0.3168
 6674W        W 8874  21.265   4.743  14.617 -0.0106  0.0332 -0.3189
 6675W        W 8875  15.064   7.628   2.298  0.2186  0.1483 -0.2961
 6676W        W 8876  22.479   2.560   9.827 -0.0093 -0.0781  0.2025
 6677W        W 8877  12.667   5.256  21.374 -0.0362  0.0860 -0.3854
 6678W        W 8878  11.661   0.198  23.301  0.0350  0.1013  0.0021
 6679W        W 8879   8.350   7.617  21.372  0.3556 -0.0021  0.1901
 6680W        W 8880   2.264   5.162   1.432 -0.3552 -0.0671  0.0134
 6681W        W 8881  15.937   6.684  28.565 -0.0490  0.2745  0.0277
 6682W        W 8882  25.151   7.016   5.410 -0.2524 -0.2006 -0.2807
 6683W        W 8883  15.361   0.255   6.555  0.1492 -0.0424 -0.4354
 6684W        W 8884  17.691   1.612  26.729 -0.3505  0.1581  0.0669
 6685W        W 8885  20.236   0.396  26.368 -0.0283  0.0761  0.1694
 6686W        W 8886  11.613   0.730  21.477 -0.0254 -0.2825  0.1765
 6687W        W 8887  22.701   6.092   6.413  0.3089  0.2636  0.0703
 6688W        W 8888   4.512   1.321  23.815 -0.1838  0.1615  0.1370
 6689W        W 8889  13.309   4.605  32.127 -0.0103 -0.1895  0.0697
 6690W        W 8890  24.792   1.961   6.743  0.0232 -0.1584 -0.1133
 6691W        W 8891   3.265   7.637  17.138 -0.0340 -0.0143  0.2788
 6692W        W 8892   7.236   2.703  21.557 -0.3801  0.0713 -0.1940
 6693W        W 8893  19.374   6.257  14.800  0.0297  0.0449 -0.0275
 6694W        W 8894  23.127   3.767  29.711 -0.1526 -0.2006 -0.0590
 6695W        W 8895  20.147   1.246  14.330  0.0796  0.0944 -0.0604
 6696W        W 8896   2.882   6.672   2.055 -0.1476  0.0433  0.0477
 6697W        W 8897   4.102   5.979  22.740  0.3821 -0.0533 -0.0319
 6698W        W 8898  10.546   4.331   6.826  0.2404 -0.0816 -0.2080
 6699W        W 8899   5.899   1.974   5.035  0.1661 -0.1476  0.1379
 6700W        W 8900   9.719   2.288   8.099  0.0378 -0.1827 -0.2246
 6701W        W 8901  20.973   7.045  30.969  0.0586  0.3056 -0.0055
 6702W        W 8902  12.028   2.024  24.798  0.2640 -0.2332 -0.0622
 6703W        W 8903   0.945   6.105  31.356  0.1552  0.2325  0.0622
 6704W        W 8904  14.923   2.681  29.422  0.1236 -0.0089  0.0794
 6705W        W 8905  21.138   4.305  23.465  0.0805  0.1206  0.1431
 6706W        W 8906   5.578   6.097  26.031 -0.2709 -0.0320  0.1920
 6707W        W 8907   2.032   2.594   6.734  0.1085  0.1149 -0.2508
 6708W        W 8908  14.170   0.905   9.304  0.3539 -0.1304 -0.1531
 6709W        W 8909   8.270   7.034  24.379 -0.0869  0.0962 -0.3798
 6710W        W 8910  11.270   7.308  22.845 -0.3076  0.2414  0.2392
 6711W        W 8911   3.974   3.870  19.085  0.0790 -0.0624  0.1506
 6712W        W 8912   6.697   2.844  17.113  0.1124 -0.3353  0.0753
 6713W        W 8913   4.111   7.400  20.945  0.1919 -0.0179 -0.1429
 6714W        W 8914   1.660   0.595   2.889 -0.0438  0.1275  0.1971
 6715W        W 8915   6.596   1.636   2.262  0.0722  0.1366  0.1465
 6716W        W 8916  16.399   5.371   2.630 -0.2367 -0.1769  0.1498
 6717W        W 8917  18.792   7.601  27.042  0.0773  0.0740  0.1376
 6718W        W 8918   5.057   6.428  25.245  0.3429  0.0465 -0.1483
 6719W        W 8919  12.089   3.911  10.003 -0.0329 -0.0784  0.1024
 6720W        W 8920   9.776   7.405  24.550 -0.0909 -0.1971 -0.3200
 6721W        W 8921  18.260   6.431  26.339 -0.1140  0.0685 -0.0669
 6722W        W 8922  14.301   4.827  22.120 -0.1818  0.2016 -0.1292
 6723W        W 8923   8.685   5.778  27.354  0.0660  0.2832  0.1051
 6724W        W 8924  20.881   3.622  29.620 -0.0227  0.0381  0.1544
 6725W        W 8925   6.959   4.378  22.259 -0.1487  0.1288  0.0021
 6726W        W 8926   2.926   7.347  31.090 -0.3323  0.0997  0.2951
 6727W        W 8927  16.835   4.418  29.238  0.0259 -0.0951  0.0517
 6728W        W 8928  18.115   3.288  16.399 -0.0594 -0.1796 -0.4370
 6729W        W 8929  16.041   0.772   2.205 -0.1853  0.2173  0.0849
 6730W        W 8930   4.486   0.555  29.454 -0.0497  0.2942  0.2029
 6731W        W 8931   8.955   4.273  22.722 -0.2460 -0.1551 -0.0481
 6732W        W 8932  11.016   5.852  31.921  0.0803  0.0373  0.1506
 6733W        W 8933   1.029   7.844  31.651 -0.2309 -0.4127  0.4163
 6734W        W 8934  15.421   0.592  30.877  0.0542 -0.0118  0.1974
 6735W        W 8935  10.485   6.514  23.215  0.2967 -0.2641  0.0578
 6736W        W 8936  11.212   7.689   1.536  0.0225 -0.2453 -0.2155
 6737W        W 8937  14.342   6.132   8.977  0.1068  0.1537  0.1089
 6738W        W 8938  14.894   7.315   8.633 -0.0886  0.0949 -0.1668
 6739W        W 8939  11.866   7.274   1.667 -0.0306  0.1647 -0.2034
 6740W        W 8940   7.051   1.328  21.090  0.0065 -0.1713 -0.2264
 6741W        W 8941  16.415   7.691  22.630 -0.1976 -0.1376 -0.0706
 6742W        W 8942  17.380   7.405   2.326  0.2717 -0.0285 -0.2092
 6743W        W 8943   0.153   5.026  29.577 -0.0812 -0.2268 -0.1219
 6744W        W 8944  10.602   3.478  17.652 -0.0725 -0.0710  0.0414
 6745W        W 8945   9.709   3.693  29.524 -0.0174 -0.1855 -0.2058
 6746W        W 8946   3.411   1.703  20.213 -0.1792 -0.1878 -0.3405
 6747W        W 8947   3.727   1.619  16.125  0.0869 -0.1540 -0.0612
 6748W        W 8948   2.601   6.679  31.611  0.1600 -0.1697 -0.0965
 6749W        W 8949   4.483   7.173  25.333  0.0696  0.3359 -0.1040
 6750W        W 8950   5.785   5.464  31.750  0.0637  0.2018 -0.0961
 6751W        W 8951   3.880   2.571  20.715 -0.2959 -0.2169  0.0635
 6752W        W 8952  16.538   1.785  25.007 -0.4313 -0.1080 -0.0758
 6753W        W 8953  20.810   6.246  25.460 -0.1152 -0.0514  0.2394
 6754W        W 8954  21.110   3.101   7.289 -0.3165 -0.0892 -0.0755
 6755W        W 8955   5.708   7.126   8.689  0.3909  0.0642  0.3646
 6756W        W 8956   4.448   5.098  21.385  0.2443  0.0910  0.1115
 6757W        W 8957   1.033   1.002  10.441  0.0535 -0.0468  0.0695
 6758W        W 8958  24.175   6.327  10.301 -0.4193 -0.0703  0.2042
 6759W        W 8959  24.238   6.935  21.113  0.0932  0.0036 -0.0098
 6760W        W 8960  21.591   2.908  30.473  0.1463  0.1076 -0.1935
 6761W        W 8961   0.212   6.407   6.568 -0.0081 -0.2836  0.4447
 6762W        W 8962  21.460   7.182   9.700 -0.0000 -0.1654  0.2712
 6763W        W 8963  12.862   0.173  31.040 -0.1118  0.1889  0.0771
 6764W        W 8964   3.419   2.576   5.258 -0.0729 -0.1671  0.0216
 6765W        W 8965   7.060   3.209  21.760 -0.0190 -0.0584 -0.0973
 6766W        W 8966   1.594   1.949  21.011 -0.0898  0.2762  0.2241
 6767W        W 8967   1.892   0.006  24.531  0.0276  0.0959 -0.1409
 6768W        W 8968  20.631   7.426   8.525 -0.2283  0.3374 -0.1543
 6769W        W 8969  18.582   4.396   2.859 -0.0298 -0.0955  0.1957
 6770W        W 8970  15.457   3.133  30.735 -0.3375  0.0370  0.1922
 6771W        W 8971   4.126   3.135   1.494 -0.0051 -0.0968  0.0388
 6772W        W 8972   0.437   6.741   9.668 -0.0203 -0.0110  0.2375
 6773W        W 8973  10.987   0.381   2.547  0.2546  0.0667  0.1205
 6774W        W 8974   3.483   5.795  21.986  0.0565  0.0253 -0.0281
 6775W        W 8975   3.321   4.857   9.800 -0.1677  0.1462  0.2867
 6776W        W 8976  14.062   4.686   8.351  0.3378 -0.1226  0.0683
 6777W        W 8977   7.523   3.780  19.156  0.1969 -0.0059 -0.0521
 6778W        W 8978   9.818   4.213  17.627  0.0632  0.2905  0.1176
 6779W        W 8979   9.710   6.974  30.713 -0.3512  0.3584  0.0829
 6780W        W 8980  14.947   6.477   5.045  0.0359  0.2740 -0.2656
 6781W        W 8981   5.458   1.702  16.888 -0.1976 -0.0705 -0.2195
 6782W        W 8982   3.607   2.778   0.955 -0.2034  0.0712  0.2844
 6783W        W 8983  15.833   7.698  10.891  0.1803  0.1393 -0.2053
 6784W        W 8984   6.475   5.485  18.226  0.1761  0.0822 -0.2547
 6785W        W 8985  13.385   4.846  22.403 -0.4166 -0.1640 -0.0394
 6786W        W 8986  15.375   3.663  32.453 -0.0622 -0.0621 -0.0975
 6787W        W 8987  11.470   3.709   3.402 -0.0302  0.2701 -0.1955
 6788W        W 8988   8.844   4.473   7.796  0.0589 -0.0372  0.0499
 6789W        W 8989  13.644   5.384  26.038  0.1446 -0.1200  0.3482
 6790W        W 8990  20.598   1.500  23.427 -0.0306  0.1198 -0.0876
 6791W        W 8991  13.702   0.288  25.490  0.0623 -0.2276 -0.0528
 6792W        W 8992  12.460   0.490  11.955  0.1417 -0.3803  0.1833
 6793W        W 8993  16.635   3.769   0.376 -0.0392 -0.2657  0.0710
 6794W        W 8994  14.519   6.678  22.977  0.1510 -0.2068  0.0600
 6795W        W 8995  24.587   3.816   2.788  0.2581  0.0841 -0.1978
 6796W        W 8996   1.236   4.260  29.872 -0.0688 -0.2661 -0.0968
 6797W        W 8997   0.206   7.330  12.692 -0.1899  0.0828  0.2742
 6798W        W 8998   8.797   4.200  32.400  0.0286 -0.2464 -0.0904
 6799W        W 8999   4.047   4.554  31.274  0.1203 -0.0098 -0.0088
 6800W        W 9000  20.743   2.012   9.736  0.2573 -0.1918 -0.1289
 6801W        W 9001  14.334   7.486  31.603  0.1601 -0.5029  0.2053
 6802W        W 9002   3.143   2.281  29.825  0.0328 -0.1246 -0.0868
 6803W        W 9003  15.016   0.031  12.199 -0.0600 -0.2074 -0.3736
 6804W        W 9004  10.508   7.024  23.280  0.0676  0.2598  0.0143
 6805W        W 9005  14.063   2.969   6.695 -0.0262 -0.0693  0.2980
 6806W        W 9006   5.642   1.285  26.937  0.1821 -0.0182  0.0806
 6807W        W 9007   0.937   3.026  30.528 -0.0168  0.0990 -0.1139
 6808W        W 9008   7.227   4.939   6.502  0.3109  0.0196  0.1011
 6809W        W 9009  12.090   0.150  31.559 -0.2286 -0.2357 -0.0232
 6810W        W 9010  24.216   2.300  30.861  0.0677  0.4604  0.2346
 6811W        W 9011   5.434   7.574   4.548  0.4345  0.1809  0.0900
 6812W        W 9012  13.521   2.208  23.204  0.2031  0.0586  0.1621
 6813W        W 9013   7.948   2.595   5.800  0.2264  0.2463  0.1974
 6814W        W 9014   4.293   4.217   9.798  0.2446  0.3056 -0.0721
 6815W        W 9015  24.832   7.104  21.034 -0.0630 -0.0598 -0.1126
 6816W        W 9016   5.589   7.563  15.850  0.1796  0.2336 -0.2836
 6817W        W 9017  20.706   2.474  29.974  0.0827  0.2130  0.0166
 6818W        W 9018  20.154   3.404  10.326  0.1020  0.0708 -0.0276
 6819W        W 9019  12.440   4.836  22.145  0.4460  0.1051  0.1432
 6820W        W 9020   6.937   2.482  30.564  0.1126  0.0442  0.0929
 6821W        W 9021   1.849   5.106   6.010  0.0955  0.0721 -0.0011
 6822W        W 9022  12.350   4.890  20.159  0.2298  0.3443 -0.2598
 6823W        W 9023  12.748   4.735   0.648 -0.2768 -0.2886  0.0104
 6824W        W 9024  11.038   6.739  29.331  0.0602  0.1540  0.0598
 6825W        W 9025  20.539   0.600   0.998 -0.1177 -0.0800  0.3283
 6826W        W 9026  18.825   5.629   6.520 -0.0565 -0.0838 -0.0334
 6827W        W 9027  19.062   0.377  14.704 -0.0253 -0.4461 -0.0960
 6828W        W 9028   6.980   0.402   9.326  0.0285  0.1314 -0.1274
 6829W        W 9029  21.633   2.740  15.991 -0.2445  0.0270 -0.1195
 6830W        W 9030  18.561   3.992  13.436 -0.0552  0.0524  0.1035
 6831W        W 9031   0.015   0.208  27.503 -0.1964 -0.1020 -0.0128
 6832W        W 9032  24.588   7.410   8.363  0.2471  0.0268 -0.2660
 6833W        W 9033   9.440   2.625  24.257  0.0496 -0.2424  0.0312
 6834W        W 9034  24.489   3.760   4.106 -0.2623  0.2401 -0.1417
 6835W        W 9035   7.981   1.746  21.143 -0.1634 -0.1104 -0.1191
 6836W        W 9036   3.922   6.185   5.343 -0.1721  0.1885 -0.1955
 6837W        W 9037  24.922   6.277  20.836  0.0378  0.3589 -0.0209
 6838W        W 9038   2.424   0.114  25.814  0.0118  0.0136  0.2214
 6839W        W 9039  16.847   2.733  26.515  0.2178 -0.1325  0.1243
 6840W        W 9040   5.404   5.257   8.632 -0.0536 -0.0603 -0.1043
 6841W        W 9041   7.814   2.220   3.921 -0.2017 -0.0155 -0.1430
 6842W        W 9042  15.384   2.897   8.803 -0.1059 -0.3591  0.0714
 6843W        W 9043   6.527   0.373   0.035  0.0585  0.0495  0.0307
 6844W        W 9044   7.224   6.571   4.417 -0.1211 -0.3643 -0.3791
 6845W        W 9045  13.909   7.301  26.530  0.2245  0.1245 -0.1708
 6846W        W 9046   0.295   6.187   2.313  0.1002 -0.0316  0.2777
 6847W        W 9047   1.894   0.787  23.402 -0.0313 -0.0447  0.0695
 6848W        W 9048  12.552   4.843   9.210 -0.2382 -0.0057 -0.2098
 6849W        W 9049   9.548   4.610   0.061  0.0405 -0.2686  0.0998
 6850W        W 9050  11.133   1.322  27.337 -0.0433  0.3325 -0.0069
 6851W        W 9051   1.318   2.309  20.871 -0.1475  0.1871  0.0940
 6852W        W 9052  14.481   6.459  29.099 -0.0187  0.1069 -0.1569
 6853W        W 9053  18.110   4.541  29.014  0.1126  0.4868  0.0124
 6854W        W 9054  22.058   7.713   2.291  0.0082 -0.3865  0.1194
 6855W        W 9055  23.160   0.760   7.422  0.1470 -0.2549  0.1128
 6856W        W 9056  21.669   1.908  26.570  0.1001  0.1362 -0.2086
 6857W        W 9057  17.320   0.794   3.133  0.0985  0.0500  0.0639
 6858W        W 9058  23.522   6.271   6.225 -0.2956 -0.1798 -0.0625
 6859W        W 9059   0.379   7.175   3.671 -0.0106  0.1277  0.0615
 6860W        W 9060  13.494   0.576   1.935  0.1153 -0.1219  0.0014
 6861W        W 9061  23.214   3.551  22.176  0.2724 -0.1499  0.0788
 6862W        W 9062   5.581   7.699  26.540 -0.0841 -0.1489  0.1023
 6863W        W 9063   8.343   6.597  18.047 -0.0354 -0.0771 -0.0684
 6864W        W 9064  13.129   7.494  19.628 -0.0588  0.1660 -0.1878
 6865W        W 9065   5.118   6.555  26.988  0.2925  0.1139  0.0242
 6866W        W 9066  13.449   0.941  23.196  0.1387 -0.0559  0.2271
 6867W        W 9067  19.687   3.714  29.263  0.0137  0.1449  0.0263
 6868W        W 9068   1.167   7.641   6.298  0.0112 -0.0335 -0.1585
 6869W        W 9069  16.339   1.563   0.528 -0.2403 -0.1369  0.2867
 6870W        W 9070   0.454   1.727   8.061 -0.0598  0.1453 -0.0911
 6871W        W 9071   6.633   6.523   4.329 -0.3327 -0.1595 -0.0281
 6872W        W 9072   0.388   3.611   1.588  0.0800 -0.0038  0.4360
 6873W        W 9073  20.877   1.864  23.669 -0.2021 -0.0174 -0.0694
 6874W        W 9074   9.196   2.842  31.814  0.1248  0.1452  0.0793
 6875W        W 9075   8.626   7.400   8.198 -0.1390  0.0803 -0.3028
 6876W        W 9076   3.371   2.727  17.089 -0.0790  0.1638 -0.0890
 6877W        W 9077   7.479   4.016  29.013 -0.0772 -0.0551 -0.1178
 6878W        W 9078  15.957   3.013  24.499 -0.1573 -0.0438  0.2561
 6879W        W 9079   2.889   1.498   2.260  0.0083  0.1132  0.0356
 6880W        W 9080  19.794   2.958   0.063 -0.2059  0.3371  0.3933
 6881W        W 9081  21.584   4.845  15.834 -0.0150  0.0216  0.0330
 6882W        W 9082   0.663   2.039  29.118  0.2142  0.0591  0.0924
 6883W        W 9083  24.997   7.199   3.830  0.0240  0.3489 -0.1614
 6884W        W 9084  17.934   6.713  12.568 -0.1881 -0.0557 -0.4071
 6885W        W 9085  16.076   6.489  25.881 -0.0884 -0.1228  0.0471
 6886W        W 9086  11.185   1.444  20.008 -0.3153  0.0814  0.0930
 6887W        W 9087   8.662   1.796   1.201 -0.0233  0.0391  0.0109
 6888W        W 9088  24.919   2.867   1.661  0.0212  0.2976 -0.3400
 6889W        W 9089   8.359   6.888  19.931 -0.0825  0.4412 -0.0651
 6890W        W 9090  12.599   4.018   9.761 -0.1280 -0.0493  0.2717
 6891W        W 9091   8.082   7.146  30.099 -0.0853  0.0965  0.1892
 6892W        W 9092  11.901   0.776  20.522 -0.0788 -0.1585  0.1183
 6893W        W 9093  15.388   6.600  30.082 -0.1099 -0.2468  0.2163
 6894W        W 9094  24.161   6.860   5.614 -0.2558 -0.1414 -0.0265
 6895W        W 9095  24.528   4.430  12.431 -0.0899 -0.0160 -0.2018
 6896W        W 9096   2.014   0.784  26.967 -0.3641  0.0111  0.1267
 6897W        W 9097  15.273   1.931  12.888 -0.1011 -0.1723 -0.0048
 6898W        W 9098  22.739   5.479   1.831  0.2789  0.0185  0.2068
 6899W        W 9099  17.422   7.080  26.156  0.0774  0.0382 -0.0107
 6900W        W 9100  12.505   2.479   0.847 -0.1293  0.1817  0.1261
 6901W        W 9101  21.846   6.684  11.320 -0.2698  0.2207 -0.0422
 6902W        W 9102   9.249   6.186   5.193 -0.2337 -0.2587 -0.1216
 6903W        W 9103  20.643   0.230   7.004 -0.2599  0.1523 -0.1170
 6904W        W 9104   4.134   5.659   0.800 -0.0462 -0.2294 -0.3992
 6905W        W 9105  21.622   4.851  11.455  0.1937  0.0622 -0.0036
 6906W        W 9106  14.593   7.109  14.722 -0.0350 -0.3793 -0.1084
 6907W        W 9107  12.077   4.621  31.252  0.1117 -0.0858  0.1534
 6908W        W 9108  16.601   5.459  24.646  0.2199 -0.1832 -0.2257
 6909W        W 9109  19.096   6.282  23.599 -0.0179 -0.0032  0.0186
 6910W        W 9110  19.277   1.169  31.900 -0.2042 -0.1919 -0.1410
 6911W        W 9111   9.142   2.217  20.464 -0.2173 -0.1860 -0.0060
 6912W        W 9112   2.256   4.897   5.762  0.0543  0.0656  0.0610
 6913W        W 9113   9.492   0.168  21.408 -0.1073 -0.0045 -0.1741
 6914W        W 9114  11.946   0.200  32.112  0.0813  0.1148  0.2516
 6915W        W 9115  23.689   7.035  28.198  0.1308 -0.1464  0.3186
 6916W        W 9116  17.748   3.611  27.630 -0.1126  0.0244 -0.2059
 6917W        W 9117   4.965   4.357  18.567 -0.0248  0.0749  0.3553
 6918W        W 9118   1.541   4.584  20.902  0.1508 -0.0199  0.1951
 6919W        W 9119   3.555   4.809   7.040  0.0795 -0.0452 -0.0454
 6920W        W 9120   5.391   0.839   1.748 -0.3195  0.0850 -0.0496
 6921W        W 9121   2.587   3.828  19.461  0.1328  0.1392 -0.1913
 6922W        W 9122   9.978   1.987  30.981  0.1640  0.1489 -0.1473
 6923W        W 9123   9.233   1.855  27.840 -0.1283  0.1688 -0.2433
 6924W        W 9124  24.445   7.151  24.663 -0.1825  0.3298  0.0309
 6925W        W 9125  17.947   1.262  28.250 -0.0526  0.0896 -0.1727
 6926W        W 9126  10.781   4.782   7.551 -0.0854  0.0631 -0.0282
 6927W        W 9127  23.635   5.593  29.274  0.2753  0.2839 -0.1308
 6928W        W 9128  10.713   3.171   9.134  0.0370  0.4061 -0.1063
 6929W        W 9129  23.305   7.449   3.412  0.1917 -0.0065 -0.1587
 6930W        W 9130  20.308   7.432   0.157  0.2386 -0.0296 -0.0123
 6931W        W 9131  13.092   1.541   6.132  0.1666  0.0377  0.0694
 6932W        W 9132   9.234   2.688   0.190  0.1005 -0.0213  0.0244
 6933W        W 9133   1.526   1.555  17.357  0.0737  0.0391  0.1391
 6934W        W 9134  23.296   2.859  25.970 -0.2175  0.0782 -0.0360
 6935W        W 9135  15.437   4.200   0.253  0.0625  0.1085 -0.1146
 6936W        W 9136  12.381   6.998   7.294  0.0775 -0.0815 -0.1405
 6937W        W 9137   9.970   2.323  26.355  0.2217  0.1280 -0.1646
 6938W        W 9138  14.228   7.624  12.932  0.2535  0.2021  0.0412
 6939W        W 9139  10.402   0.309  22.335 -0.1756 -0.1825 -0.1465
 6940W        W 9140  10.667   6.090  30.430  0.3702  0.0687 -0.2973
 6941W        W 9141   7.801   1.805   7.089 -0.0763 -0.0833  0.1650
 6942W        W 9142  11.793   6.587  19.343  0.1854 -0.0904 -0.1360
 6943W        W 9143   2.351   5.800  11.186  0.2284  0.0797  0.0317
 6944W        W 9144  21.489   5.867  15.071 -0.1712  0.0514 -0.3645
 6945W        W 9145  16.442   5.618  17.379 -0.3174  0.0286 -0.1482
 6946W        W 9146   7.521   1.389   9.466 -0.1502  0.0407  0.1472
 6947W        W 9147  10.828   1.774  29.853  0.0318 -0.0535 -0.1324
 6948W        W 9148  22.206   6.582   9.520  0.2716 -0.0277 -0.0343
 6949W        W 9149  11.445   7.737  20.404 -0.0903  0.3568 -0.3093
 6950W        W 9150  12.903   1.176  31.889 -0.0915  0.0604  0.0320
 6951W        W 9151  18.377   0.347  24.166 -0.1407 -0.2680 -0.1441
 6952W        W 9152  12.095   2.157   0.504 -0.1353  0.1495  0.1032
 6953W        W 9153  11.099   0.237  29.408 -0.0266  0.0723  0.0393
 6954W        W 9154  19.523   2.628  13.796  0.1670 -0.4309 -0.2166
 6955W        W 9155  11.680   2.574  30.940  0.0808  0.3231 -0.0079
 6956W        W 9156   2.854   5.745  29.844 -0.0689 -0.1694  0.2492
 6957W        W 9157  21.585   3.700  24.878 -0.0755 -0.2912  0.3753
 6958W        W 9158  19.493   7.714   5.954 -0.0558  0.0461 -0.0356
 6959W        W 9159  23.714   0.894  22.104  0.0396  0.2847  0.1626
 6960W        W 9160  19.638   0.228  31.557  0.1301 -0.0683  0.1604
 6961W        W 9161   9.415   5.560   6.951  0.0798 -0.4078 -0.0651
 6962W        W 9162  10.851   7.487  19.648 -0.0254  0.1176  0.0718
 6963W        W 9163   5.800   5.575  31.181  0.0832  0.1262  0.2096
 6964W        W 9164  19.953   2.559   2.680  0.5705  0.1160 -0.1181
 6965W        W 9165  13.352   5.015   1.250  0.0608 -0.0431 -0.0958
 6966W        W 9166  14.594   2.566  31.586  0.1901 -0.2177 -0.2760
 6967W        W 9167  11.470   6.418  30.731  0.1549 -0.2559  0.1109
 6968W        W 9168   7.173   4.325   8.659 -0.2253  0.1303  0.0334
 6969W        W 9169  21.690   1.032  31.138 -0.0142  0.2375 -0.3688
 6970W        W 9170   5.759   3.567  30.685 -0.0969 -0.1071 -0.2745
 6971W        W 9171   7.269   3.928   7.337 -0.1847 -0.1767  0.1674
 6972W        W 9172  22.575   0.230  14.897 -0.2594  0.0782  0.3870
 6973W        W 9173   2.470   0.753  24.811 -0.1328  0.1572  0.0003
 6974W        W 9174  14.437   0.040  31.987 -0.2340 -0.2937 -0.3371
 6975W        W 9175   1.367   7.337  30.975 -0.1949 -0.1448 -0.3784
 6976W        W 9176  13.001   2.582  24.017 -0.2485  0.2309 -0.0318
 6977W        W 9177   6.817   3.582  22.055  0.0399 -0.2171  0.0463
 6978W        W 9178   7.585   4.035  21.564 -0.1660 -0.4991 -0.0770
 6979W        W 9179   3.720   7.374  20.654 -0.0314 -0.2354  0.2420
 6980W        W 9180  23.123   3.922  28.645 -0.0729  0.0976  0.1317
 6981W        W 9181   1.048   0.816  23.832 -0.2227 -0.1621  0.4169
 6982W        W 9182   0.875   7.357   4.200 -0.0206  0.0243  0.3116
 6983W        W 9183  17.784   1.552  16.899  0.1809  0.2341  0.0322
 6984W        W 9184  16.848   7.709  27.748 -0.1484 -0.0721 -0.0632
 6985W        W 9185  18.862   1.955   1.486  0.3890 -0.2282 -0.0131
 6986W        W 9186  15.691   0.219  28.960  0.0566  0.0839  0.0806
 6987W        W 9187  12.736   2.081  22.054 -0.1738  0.1813 -0.0514
 6988W        W 9188  14.209   0.540   4.168 -0.1001  0.1600  0.2885
 6989W        W 9189   4.322   3.294  26.630 -0.0187  0.1165 -0.2514
 6990W        W 9190  22.668   2.455  15.931 -0.1637  0.0221 -0.2728
 6991W        W 9191   1.113   0.119  29.524 -0.1357 -0.1316 -0.0362
 6992W        W 9192  21.740   4.724  14.538 -0.1441  0.1512 -0.3215
 6993W        W 9193   7.252   6.808  25.122  0.1196 -0.1199  0.0927
 6994W        W 9194  14.592   1.318  24.108  0.1735 -0.2487  0.1232
 6995W        W 9195  11.399   7.386   3.975  0.2583 -0.2473 -0.0014
 6996W        W 9196   7.545   7.299   9.673  0.1895 -0.2640  0.2574
 6997W        W 9197   0.879   4.470  28.201  0.0445 -0.1042  0.0381
 6998W        W 9198  23.367   0.565  14.362 -0.2487  0.2717  0.2471
 6999W        W 9199   0.406   6.236   0.957  0.4192 -0.0795  0.0103
 7000W        W 9200  14.965   0.082  21.000  0.0266 -0.3831 -0.1267
 7001W        W 9201   7.108   1.387  26.934  0.0677  0.1422  0.2597
 7002W        W 9202   3.648   5.166  30.778  0.1066 -0.0297 -0.1046
 7003W        W 9203   1.954   5.058  18.799  0.0432 -0.0356  0.0459
 7004W        W 9204   3.359   4.803  31.991  0.0831  0.0865  0.1654
 7005W        W 9205   5.227   7.803  15.518 -0.0341 -0.4071 -0.1316
 7006W        W 9206  12.722   6.042  10.944  0.1344 -0.1090  0.1338
 7007W        W 9207  19.204   5.833  28.600 -0.0826  0.1533  0.0272
 7008W        W 9208  24.255   4.688  10.604 -0.1799  0.0230 -0.1260
 7009W        W 9209   8.612   0.559   2.020  0.2649 -0.2568 -0.1060
 7010W        W 9210   7.505   6.253  32.171 -0.0688 -0.0805  0.0712
 7011W        W 9211   8.313   7.114  29.618 -0.0446 -0.1390 -0.2239
 7012W        W 9212  10.801   2.217  20.746 -0.2749 -0.1317  0.0878
 7013W        W 9213   1.441   6.309   3.266  0.1016  0.3278  0.1077
 7014W        W 9214  11.343   3.568  21.775  0.2541 -0.0294  0.0532
 7015W        W 9215  12.409   5.923   3.617 -0.0605 -0.1065  0.1770
 7016W        W 9216  19.106   0.136  13.790 -0.1221  0.0584 -0.2133
 7017W        W 9217   4.928   2.199  23.940  0.0101  0.0191  0.2898
 7018W        W 9218  11.755   0.240  21.294 -0.0658  0.1067  0.0857
 7019W        W 9219   0.615   6.316   6.898  0.4025  0.1146 -0.2545
 7020W        W 9220  16.785   1.206  28.342  0.3450  0.2478  0.0488
 7021W        W 9221  21.701   1.186  13.324 -0.0085 -0.0490 -0.0123
 7022W        W 9222   3.919   3.789   5.401 -0.0904  0.2145  0.0179
 7023W        W 9223   9.913   6.013  25.568 -0.1034  0.2056  0.1867
 7024W        W 9224  16.541   5.216  25.223  0.2124  0.0735 -0.1271
 7025W        W 9225   1.910   2.363  29.310 -0.0364  0.2423  0.2588
 7026W        W 9226   7.362   0.492  31.687 -0.0511  0.0108  0.1336
 7027W        W 9227  20.689   6.658   0.583  0.2337 -0.1521 -0.2278
 7028W        W 9228  18.663   5.615  23.593 -0.0842 -0.2097 -0.3022
 7029W        W 9229   8.660   5.392  25.106  0.1649 -0.2458 -0.0836
 7030W        W 9230   0.934   3.583   8.344  0.1125 -0.3442  0.0625
 7031W        W 9231  17.731   3.906  14.099  0.1687  0.1128 -0.1172
 7032W        W 9232  20.057   1.936  31.749 -0.1191  0.2475 -0.0815
 7033W        W 9233  23.835   1.622   1.245  0.1264 -0.0269 -0.1819
 7034W        W 9234  12.099   5.214  32.431 -0.1232  0.2387 -0.2233
 7035W        W 9235   0.204   4.552   8.550 -0.2863 -0.0007  0.0010
 7036W        W 9236  23.752   4.942   0.543  0.1737  0.1881 -0.0743
 7037W        W 9237  15.993   7.663  12.516  0.1306 -0.1203 -0.1432
 7038W        W 9238  17.256   0.605  14.942 -0.1483  0.0216  0.1129
 7039W        W 9239   0.103   3.674  13.580 -0.0200 -0.3488  0.2770
 7040W        W 9240  18.604   4.829  30.231  0.0695 -0.0026 -0.3015
 7041W        W 9241  25.083   0.566  13.361 -0.0654  0.3153 -0.2920
 7042W        W 9242  20.002   6.118  31.044  0.1408  0.0233  0.0787
 7043W        W 9243   2.863   1.476   2.985 -0.0871 -0.1070 -0.0348
 7044W        W 9244  21.637   1.784  13.124 -0.0194 -0.0060 -0.0307
 7045W        W 9245  17.113   6.411  32.321 -0.0527  0.0822  0.1898
 7046W        W 9246  16.151   6.504   3.404  0.2181  0.1168 -0.2283
 7047W        W 9247  12.493   2.548  22.991 -0.1496 -0.1929 -0.0522
 7048W        W 9248   9.785   1.847  20.456  0.1991  0.1193 -0.0652
 7049W        W 9249  21.286   4.970   3.350  0.0980 -0.0910 -0.0851
 7050W        W 9250  20.070   1.437  31.829 -0.0604 -0.2586 -0.1836
 7051W        W 9251  11.000   2.981  17.346 -0.4517 -0.0815 -0.1955
 7052W        W 9252  14.304   2.194  10.767  0.1596  0.1893 -0.0694
 7053W        W 9253   3.073   4.235  21.130 -0.1926  0.0604 -0.2327
 7054W        W 9254   5.451   2.324  15.578 -0.0155 -0.0931  0.0855
 7055W        W 9255   3.941   7.403  31.169  0.1773  0.1032 -0.0728
 7056W        W 9256  19.784   3.027  12.910 -0.1809 -0.0507 -0.0117
 7057W        W 9257  13.766   2.025  23.612 -0.2129  0.0138  0.0494
 7058W        W 9258   5.824   0.560   4.401 -0.3835  0.1716 -0.0529
 7059W        W 9259   6.759   0.011   3.091  0.0757 -0.1217  0.1345
 7060W        W 9260   0.006   2.911  21.205  0.1090 -0.0609  0.0196
 7061W        W 9261   3.411   1.598   5.987 -0.3911 -0.1221 -0.2799
 7062W        W 9262  14.441   5.884   3.162  0.2431 -0.0021  0.0308
 7063W        W 9263  13.335   7.479   7.705 -0.1428 -0.0636  0.1169
 7064W        W 9264  15.893   5.779  23.650  0.1882 -0.1496 -0.1654
 7065W        W 9265   5.905   0.790  21.507  0.0373  0.1862  0.0203
 7066W        W 9266  11.723   7.562  25.269  0.0137 -0.2668  0.3689
 7067W        W 9267  24.402   0.831  11.535 -0.1129  0.1326 -0.0501
 7068W        W 9268  15.792   6.691  27.673  0.0568  0.0455 -0.1132
 7069W        W 9269   3.193   0.789  10.230 -0.2421  0.0242 -0.1047
 7070W        W 9270  23.808   6.624  27.749  0.4465 -0.0236 -0.2484
 7071W        W 9271  10.708   1.009   1.291 -0.1187 -0.6871 -0.0537
 7072W        W 9272  13.475   1.244   6.354  0.3071 -0.1888 -0.3475
 7073W        W 9273   1.530   0.426   0.384 -0.0464  0.0572 -0.0229
 7074W        W 9274  20.075   6.725   8.717  0.1438 -0.2290 -0.2550
 7075W        W 9275  19.387   0.823  15.948 -0.0099 -0.3063  0.0067
 7076W        W 9276  16.512   2.930   0.967  0.0977 -0.3149  0.0682
 7077W        W 9277  14.821   5.830   9.155  0.1501  0.2190  0.0986
 7078W        W 9278   0.980   1.538  26.756  0.0930  0.0086 -0.0272
 7079W        W 9279   7.253   3.024   0.851 -0.0964 -0.2474 -0.0801
 7080W        W 9280  10.174   1.418  18.436  0.1713  0.1198  0.1373
 7081W        W 9281   8.597   2.101  25.958 -0.0276  0.2065  0.2009
 7082W        W 9282   4.338   4.530  16.296 -0.0639  0.1896  0.0151
 7083W        W 9283  24.222   5.497   4.942 -0.2073 -0.0478  0.2128
 7084W        W 9284  24.517   1.577  26.663  0.0776 -0.0454 -0.2091
 7085W        W 9285  12.185   2.081   2.728  0.3785 -0.3428  0.1586
 7086W        W 9286  18.884   0.027   9.583  0.0202  0.0646  0.0206
 7087W        W 9287  11.247   1.879   3.630 -0.1309 -0.0117 -0.3261
 7088W        W 9288   9.254   4.244   7.193  0.0252  0.0826 -0.2173
 7089W        W 9289  22.789   6.639  12.831  0.1599 -0.4031  0.0695
 7090W        W 9290  24.069   0.526   3.946 -0.1418 -0.2027  0.0621
 7091W        W 9291  18.644   5.838  22.278 -0.0428 -0.3624  0.0840
 7092W        W 9292   8.507   4.536  32.176  0.1060  0.0923  0.0877
 7093W        W 9293  19.174   6.648   4.702  0.0244 -0.0512 -0.0117
 7094W        W 9294   9.421   0.211  29.802  0.1887  0.1972  0.3070
 7095W        W 9295  24.978   3.941   2.472  0.1270 -0.1696 -0.0703
 7096W        W 9296   6.388   6.664   4.767  0.3552 -0.0978 -0.0433
 7097W        W 9297  18.567   7.728  10.037 -0.0241 -0.0090  0.0831
 7098W        W 9298  19.929   7.257  31.945 -0.1027 -0.0366 -0.1408
 7099W        W 9299   9.988   3.378  24.951  0.0556  0.0911  0.1688
 7100W        W 9300  21.257   5.092  13.769  0.1647  0.2564  0.0609
 7101W        W 9301  14.769   1.804  12.786 -0.1923  0.0066  0.0231
 7102W        W 9302   1.155   7.404  31.470  0.0064  0.0560  0.1382
 7103W        W 9303   7.885   2.588   1.362  0.2228 -0.0369  0.2222
 7104W        W 9304   9.254   4.822  18.716  0.2652  0.2536  0.2354
 7105W        W 9305  18.169   0.616   1.573 -0.3097 -0.2100  0.0117
 7106W        W 9306  23.903   2.535   0.072  0.0274 -0.1270 -0.0831
 7107W        W 9307  17.179   2.053  24.362 -0.2804  0.1828  0.4554
 7108W        W 9308   8.260   1.487  18.606 -0.2591 -0.1586  0.2485
 7109W        W 9309  16.829   0.116   4.881 -0.1773 -0.0092 -0.0951
 7110W        W 9310   1.849   4.836   0.565 -0.0814 -0.3086  0.2586
 7111W        W 9311  14.351   3.582   6.080 -0.0299 -0.1099  0.0553
 7112W        W 9312   7.239   0.192  16.276  0.1754  0.0845  0.2522
 7113W        W 9313  11.436   4.828  25.842  0.0614  0.1653 -0.3625
 7114W        W 9314  19.332   1.686  29.450  0.2589  0.2264 -0.1226
 7115W        W 9315   9.927   1.203  30.755  0.2312 -0.1074  0.2377
 7116W        W 9316   1.052   3.104  28.837  0.0610 -0.0355 -0.1432
 7117W        W 9317  16.408   0.871  22.923  0.1107 -0.1600  0.2005
 7118W        W 9318  17.378   4.574   9.892 -0.0784  0.4274 -0.2136
 7119W        W 9319   6.348   0.662  20.896 -0.0425  0.0741 -0.0588
 7120W        W 9320  25.149   0.051  23.559  0.0392  0.0842  0.0236
 7121W        W 9321   9.490   1.083   8.410  0.1479  0.1002  0.2035
 7122W        W 9322  14.345   3.987  22.742  0.0690  0.1067  0.0510
 7123W        W 9323   7.273   2.436   9.523  0.0178 -0.1370 -0.1426
 7124W        W 9324   5.212   1.500   9.902  0.0337  0.0284 -0.2836
 7125W        W 9325   5.709   6.391  22.346 -0.1761  0.3579  0.0218
 7126W        W 9326  15.368   6.709   4.271 -0.1244  0.2315 -0.2932
 7127W        W 9327  20.683   7.170   9.209  0.1536  0.1226 -0.1442
 7128W        W 9328  14.542   3.848  26.645 -0.2097 -0.1174 -0.2692
 7129W        W 9329  19.124   6.864   3.292  0.0057  0.0899 -0.2186
 7130W        W 9330  16.432   5.943   1.036  0.1376  0.1526 -0.2061
 7131W        W 9331  16.600   6.727  30.786 -0.2236  0.1584 -0.2197
 7132W        W 9332  15.126   7.386   1.070  0.1096  0.0393 -0.2190
 7133W        W 9333  14.132   5.599   0.608 -0.1464 -0.2556  0.3309
 7134W        W 9334  11.883   4.682   3.360  0.1919  0.1098  0.0046
 7135W        W 9335   0.797   4.801  30.401  0.0712 -0.0318 -0.1798
 7136W        W 9336  14.224   4.453  21.797  0.0036 -0.1061  0.1938
 7137W        W 9337  18.779   3.132  10.309  0.0097 -0.0624 -0.2469
 7138W        W 9338   1.623   7.220  31.444  0.0034 -0.2401  0.0458
 7139W        W 9339   2.834   0.246   4.012  0.0243 -0.1933  0.3088
 7140W        W 9340  16.033   3.325  12.804 -0.1707 -0.0920  0.2765
 7141W        W 9341   0.488   6.045  11.387 -0.2812  0.1780  0.0225
 7142W        W 9342  18.680   1.025  25.253  0.0993  0.1440 -0.0492
 7143W        W 9343   3.272   4.879  30.931 -0.0617 -0.2300  0.0951
 7144W        W 9344  14.947   5.912  23.352 -0.0443 -0.2162 -0.0550
 7145W        W 9345   5.664   0.222  21.739 -0.0753 -0.0812  0.0028
 7146W        W 9346   0.327   5.168  32.357 -0.2260 -0.1145 -0.0110
 7147W        W 9347   8.427   6.405   7.124  0.1914 -0.2713 -0.2294
 7148W        W 9348   2.935   1.095  23.262  0.3991  0.1170 -0.0449
 7149W        W 9349  12.176   1.710  18.984  0.0613 -0.2540 -0.3330
 7150W        W 9350   5.863   3.153  24.820 -0.1853  0.0239 -0.0595
 7151W        W 9351  19.741   7.531   2.160 -0.0471 -0.0944  0.0323
 7152W        W 9352  11.159   2.430  28.221  0.2269 -0.0584 -0.1951
 7153W        W 9353   5.392   4.958  26.832  0.0968  0.1046 -0.0675
 7154W        W 9354  20.217   6.948  30.145 -0.0101  0.2018 -0.0864
 7155W        W 9355   9.616   1.694   7.011  0.1656  0.1967 -0.2880
 7156W        W 9356   2.372   4.351  26.061 -0.2499 -0.0226 -0.1010
 7157W        W 9357  13.439   3.801  19.758 -0.1597 -0.0697  0.0115
 7158W        W 9358   1.293   7.070   4.041  0.1476 -0.2076  0.1104
 7159W        W 9359   9.104   4.088  30.478 -0.1232  0.2092 -0.0185
 7160W        W 9360  13.182   6.531   6.720  0.0158 -0.0933 -0.1444
 7161W        W 9361   1.389   2.468  32.210 -0.0235  0.1088  0.0571
 7162W        W 9362  13.109   4.370   1.733 -0.0163 -0.2539 -0.0397
 7163W        W 9363  23.585   4.230  22.628  0.1274  0.1073  0.0178
 7164W        W 9364  10.787   5.349   5.776 -0.3149 -0.3365 -0.3127
 7165W        W 9365   4.942   2.697  25.277 -0.1208 -0.1322  0.2391
 7166W        W 9366   6.841   5.296   2.606  0.1383 -0.0940 -0.2536
 7167W        W 9367  23.566   0.555  32.255  0.1870 -0.1521 -0.0426
 7168W        W 9368  18.870   0.426  11.256  0.0661 -0.1167  0.0841
 7169W        W 9369   9.932   2.735   8.155 -0.0207  0.0250  0.1745
 7170W        W 9370   1.091   5.983  27.255  0.1778 -0.0328 -0.0514
 7171W        W 9371  23.987   0.319   7.190  0.1273  0.0581  0.1808
 7172W        W 9372  24.580   5.673   4.551 -0.0030 -0.1173 -0.1253
 7173W        W 9373   3.090   3.795   7.399  0.3048  0.1125  0.1449
 7174W        W 9374  16.243   5.032   3.325 -0.1207  0.2512 -0.0752
 7175W        W 9375   8.678   1.796  31.009  0.1468  0.0873  0.1004
 7176W        W 9376  11.902   7.843   5.487  0.2350  0.0522  0.0785
 7177W        W 9377   4.002   4.524   6.551 -0.1742 -0.0550 -0.0790
 7178W        W 9378   9.081   1.848   7.201  0.2224  0.2521  0.1623
 7179W        W 9379  23.504   2.194  28.152  0.0032  0.0065 -0.1746
 7180W        W 9380  20.144   6.317   2.510 -0.1401 -0.1089  0.0339
 7181W        W 9381  24.245   6.645  32.030 -0.0109 -0.2240 -0.0017
 7182W        W 9382  10.118   7.007   4.057 -0.2240 -0.1896  0.2890
 7183W        W 9383   5.657   1.687   5.378  0.0529  0.4434  0.2165
 7184W        W 9384   7.797   5.734  27.737 -0.2101  0.0026 -0.0021
 7185W        W 9385   2.638   7.700  10.743 -0.3380 -0.1457 -0.2662
 7186W        W 9386  25.107   7.712  22.515 -0.0039  0.0609  0.1314
 7187W        W 9387  18.247   7.495   5.653 -0.0944  0.0859 -0.0600
 7188W        W 9388  11.876   1.650  23.589 -0.1380  0.1318  0.2424
 7189W        W 9389   2.358   5.904   0.107  0.0349 -0.0146 -0.2725
 7190W        W 9390   9.071   3.124  20.814 -0.4158 -0.3608 -0.0342
 7191W        W 9391   6.825   7.458  30.241 -0.1261 -0.0004 -0.2066
 7192W        W 9392   0.787   4.353  30.104 -0.0709 -0.1724  0.0550
 7193W        W 9393  13.619   3.528  28.277  0.2002 -0.1655  0.2270
 7194W        W 9394   4.547   2.147   2.243  0.1487  0.3201 -0.0596
 7195W        W 9395  19.178   7.178  12.779  0.0758 -0.1102  0.3105
 7196W        W 9396   4.524   7.639  29.119 -0.1081  0.1696 -0.1494
 7197W        W 9397  19.066   2.628  17.749 -0.1028  0.0096 -0.0704
 7198W        W 9398  16.083   4.633  22.933  0.0563  0.3600  0.1163
 7199W        W 9399  22.828   2.911  14.211  0.0127 -0.0373 -0.1249
 7200W        W 9400  24.232   7.801  28.714  0.1215 -0.0748 -0.1189
 7201W        W 9401  13.165   5.071  28.004 -0.0043 -0.0044 -0.0842
 7202W        W 9402  23.254   7.030   2.325  0.1322  0.0087  0.1586
 7203W        W 9403  24.240   4.293  31.718 -0.0868 -0.1530  0.1398
 7204W        W 9404  20.535   4.765   1.039 -0.0127  0.1769  0.0799
 7205W        W 9405  17.368   1.809  30.032 -0.2174 -0.2222 -0.0815
 7206W        W 9406  24.083   6.683   2.377 -0.3307 -0.1027  0.1576
 7207W        W 9407  20.930   2.126  18.359 -0.1395 -0.0599  0.1381
 7208W        W 9408  14.669   3.445  23.851 -0.1144  0.0366 -0.0998
 7209W        W 9409   8.412   0.635   7.098 -0.1712 -0.1385  0.0089
 7210W        W 9410  24.645   2.249  20.142 -0.0385 -0.1985 -0.0502
 7211W        W 9411  21.655   6.958  29.687  0.0186  0.0563  0.0260
 7212W        W 9412   9.613   5.591  22.464 -0.0458  0.2258 -0.0013
 7213W        W 9413   4.399   6.807  19.138 -0.2261 -0.0427 -0.2221
 7214W        W 9414  14.248   3.195  22.059  0.0057  0.2357  0.1918
 7215W        W 9415  16.079   1.078   5.514 -0.0480 -0.0642  0.1499
 7216W        W 9416  12.138   6.792  26.347  0.0830 -0.3325  0.1189
 7217W        W 9417  16.582   5.871  31.736 -0.2652  0.1590 -0.1164
 7218W        W 9418   4.085   5.065  31.062  0.0841 -0.0491 -0.4828
 7219W        W 9419   8.966   6.603  17.553  0.0987  0.2162  0.2518
 7220W        W 9420   6.824   7.024  15.436 -0.1343 -0.0969  0.1153
 7221W        W 9421  17.892   0.192  10.606  0.0329  0.0274  0.1387
 7222W        W 9422   1.636   7.317  23.498 -0.0149 -0.0194 -0.0395
 7223W        W 9423  13.791   0.608  22.444 -0.0005 -0.0351 -0.2546
 7224W        W 9424  15.559   7.626  12.261  0.0920  0.2556  0.1252
 7225W        W 9425  21.077   6.338  15.111 -0.1476 -0.0480  0.0165
 7226W        W 9426   9.994   5.793  10.073  0.1273 -0.0742 -0.0083
 7227W        W 9427   6.724   7.072  25.689  0.2955 -0.3133  0.0291
 7228W        W 9428  24.444   6.088  23.896 -0.1388  0.1257  0.1547
 7229W        W 9429   1.346   1.615   4.679  0.1717  0.1196 -0.0817
 7230W        W 9430  21.497   2.639  10.044  0.0711  0.2808  0.0907
 7231W        W 9431  16.037   7.314   4.583 -0.1926  0.2088  0.4330
 7232W        W 9432   7.950   6.034   4.738 -0.1852  0.1452 -0.1253
 7233W        W 9433  24.399   7.060  31.098  0.1002 -0.3370  0.1875
 7234W        W 9434  11.789   0.881   5.713  0.5212  0.0218 -0.3647
 7235W        W 9435  11.660   2.115  19.717  0.0902  0.0979  0.1131
 7236W        W 9436  12.160   1.783  13.005 -0.1294  0.0676  0.0398
 7237W        W 9437  22.512   5.356  24.188 -0.0366  0.0747  0.0858
 7238W        W 9438  20.576   5.975  29.728  0.0047 -0.0066  0.2192
 7239W        W 9439  21.751   4.698  12.361  0.0837  0.0581 -0.0985
 7240W        W 9440   3.510   6.549  22.409 -0.1461  0.3659 -0.0300
 7241W        W 9441  20.396   5.931   5.699  0.2191 -0.1623 -0.1193
 7242W        W 9442  14.004   2.894  31.632  0.0153 -0.2871 -0.3722
 7243W        W 9443  11.892   7.308  24.929  0.2542  0.0144  0.4614
 7244W        W 9444  13.301   3.037  22.917 -0.1841  0.0558 -0.0772
 7245W        W 9445   6.864   1.622   4.859  0.1951 -0.1391 -0.0740
 7246W        W 9446  13.001   6.807  10.553 -0.1356  0.1879  0.1093
 7247W        W 9447   5.891   6.665  17.855  0.1685  0.0376  0.0514
 7248W        W 9448   7.910   1.657   6.082  0.1041 -0.2831 -0.0054
 7249W        W 9449  11.232   2.195   0.885  0.1684  0.1557 -0.0483
 7250W        W 9450  14.102   2.091  13.471  0.0358  0.1254 -0.1234
 7251W        W 9451   3.272   0.687   1.766 -0.1873  0.1020  0.1851
 7252W        W 9452  14.176   2.224  28.425  0.2903  0.0128 -0.0651
 7253W        W 9453   4.542   5.596  23.801 -0.1085 -0.0480 -0.0961
 7254W        W 9454   9.164   3.319   1.390  0.1214 -0.5381  0.1082
 7255W        W 9455  12.665   1.286   5.973 -0.0104  0.0037 -0.1643
 7256W        W 9456  10.852   0.797   5.327 -0.0153 -0.2846  0.4244
 7257W        W 9457   9.379   0.361  16.697  0.0385  0.1223  0.0434
 7258W        W 9458  17.881   5.853   3.738  0.2154 -0.0913 -0.0343
 7259W        W 9459  22.067   7.621  10.331 -0.2064 -0.2718 -0.2935
 7260W        W 9460  14.894   7.066   6.909 -0.0135  0.0653 -0.1783
 7261W        W 9461  24.937   4.986   9.330  0.3268 -0.1917  0.0900
 7262W        W 9462  12.245   5.766   1.938 -0.1839  0.2173  0.0812
 7263W        W 9463   0.878   6.386  29.314 -0.2181 -0.6294  0.0931
 7264W        W 9464  12.556   6.297   5.729  0.2188 -0.3959  0.0631
 7265W        W 9465   8.348   1.460   1.561  0.0740 -0.1385 -0.1394
 7266W        W 9466   3.218   4.399  23.780  0.2436  0.1348  0.0388
 7267W        W 9467  15.934   2.077   1.618  0.1198 -0.4322 -0.1658
 7268W        W 9468  18.533   0.141  14.974 -0.0062 -0.0373  0.3613
 7269W        W 9469  15.342   5.070  31.074 -0.0935  0.1186 -0.1006
 7270W        W 9470   4.227   1.014  26.080 -0.0511 -0.2772 -0.1896
 7271W        W 9471   3.195   6.134  30.865 -0.0200  0.0661 -0.1110
 7272W        W 9472  12.580   3.217  29.950  0.2005  0.2269  0.0772
 7273W        W 9473   8.141   0.190  23.525  0.0086 -0.2152 -0.0121
 7274W        W 9474   9.498   7.196  27.498  0.0549  0.0067 -0.0954
 7275W        W 9475  10.632   3.936  18.970 -0.3280 -0.0536  0.1522
 7276W        W 9476  13.540   3.591   5.170  0.0919  0.2505  0.1821
 7277W        W 9477   7.352   1.284  32.031 -0.1737 -0.1080  0.0316
 7278W        W 9478  15.345   1.547  31.066 -0.1474  0.0151 -0.2748
 7279W        W 9479  15.652   5.333  14.746  0.1625 -0.4957  0.1140
 7280W        W 9480  23.736   3.480   4.519 -0.0229  0.1245  0.1699
 7281W        W 9481  13.250   3.856   7.992  0.3168  0.1177  0.0354
 7282W        W 9482  24.533   6.040   9.102 -0.1806  0.0408 -0.1286
 7283W        W 9483   4.366   3.486  23.888  0.2044  0.1372 -0.3364
 7284W        W 9484  13.086   3.945  12.655 -0.1556  0.1557  0.1032
 7285W        W 9485  21.101   3.989  25.184  0.0485 -0.1837 -0.0074
 7286W        W 9486  11.908   1.865  26.935  0.0775  0.0079 -0.0265
 7287W        W 9487  11.640   1.339   5.607 -0.2676 -0.1489  0.3436
 7288W        W 9488   1.626   2.182   4.752  0.2671  0.0330 -0.0411
 7289W        W 9489  24.290   2.523  30.384  0.0134  0.0601 -0.2744
 7290W        W 9490   6.495   5.234  27.627 -0.0365  0.2336  0.2356
 7291W        W 9491   0.661   0.945   8.433 -0.0450  0.0852 -0.0009
 7292W        W 9492  21.076   4.185   3.636 -0.1296 -0.1194 -0.3849
 7293W        W 9493  14.660   4.999  32.065 -0.3194 -0.4149  0.1174
 7294W        W 9494  20.215   2.390   5.994  0.2801  0.0393 -0.0978
 7295W        W 9495  21.201   2.593  28.721  0.1139 -0.1048  0.0161
 7296W        W 9496   8.988   4.919   4.280 -0.3110  0.0960  0.3420
 7297W        W 9497  23.394   7.008  29.991 -0.3110 -0.0695 -0.2259
 7298W        W 9498   4.236   7.196  19.815 -0.1785 -0.1704 -0.2113
 7299W        W 9499   7.006   0.997  23.718  0.0395  0.2445 -0.0490
 7300W        W 9500  21.250   0.061   4.319 -0.1404  0.1032  0.0994
 7301W        W 9501   7.612   5.750  26.992  0.1375  0.2979 -0.0618
 7302W        W 9502  15.883   5.497  29.630 -0.2206  0.1813  0.0146
 7303W        W 9503  13.973   5.117  12.687  0.0501  0.1534 -0.1348
 7304W        W 9504   3.055   7.095  21.227 -0.1529  0.2486  0.3001
 7305W        W 9505  22.676   6.096  15.047 -0.1712  0.0134 -0.0024
 7306W        W 9506   5.474   3.774  29.901 -0.0291 -0.0622  0.0700
 7307W        W 9507   8.279   6.637   1.265  0.1237 -0.0560 -0.1369
 7308W        W 9508   8.901   2.257  16.248 -0.0639  0.0971 -0.2269
 7309W        W 9509   6.124   6.391  31.647 -0.1659  0.2691  0.1168
 7310W        W 9510   4.678   0.306  26.476  0.0046 -0.0701 -0.1077
 7311W        W 9511  23.007   4.783   6.164 -0.0999  0.3181  0.0399
 7312W        W 9512  17.893   5.264   6.514 -0.3984 -0.0484 -0.1921
 7313W        W 9513   4.618   7.044  15.414  0.0906 -0.0665  0.2310
 7314W        W 9514  11.116   7.648  23.611  0.1559  0.1886  0.0763
 7315W        W 9515  14.328   1.001  13.611 -0.0833 -0.0930  0.0625
 7316W        W 9516  14.036   5.680  23.994 -0.1426 -0.2165 -0.0469
 7317W        W 9517   0.093   1.957  26.399 -0.0621  0.3415 -0.3324
 7318W        W 9518   3.936   7.739  28.553 -0.0917 -0.0626 -0.1012
 7319W        W 9519   5.482   7.468   8.303  0.0867  0.0087 -0.0113
 7320W        W 9520   5.566   3.168   4.746 -0.0333 -0.0185 -0.1529
 7321W        W 9521  20.431   6.887   6.244 -0.0022 -0.2064 -0.3112
 7322W        W 9522  16.764   1.203  12.037 -0.1797  0.1861 -0.1901
 7323W        W 9523  12.974   5.717   4.608 -0.1579 -0.1545  0.1907
 7324W        W 9524  19.942   5.039   5.089  0.0860 -0.0072 -0.1775
 7325W        W 9525  23.194   2.154   8.540 -0.0180 -0.1558 -0.2319
 7326W        W 9526  13.865   5.767  13.712 -0.0248 -0.0858 -0.0649
 7327W        W 9527  17.513   7.835   2.162  0.0385  0.1781  0.0467
 7328W        W 9528  24.764   3.215   8.165  0.1033  0.0850  0.0990
 7329W        W 9529  20.747   7.796   4.578  0.0316  0.0237 -0.1750
 7330W        W 9530   1.692   5.725  31.865 -0.3952 -0.3457  0.1506
 7331W        W 9531   8.364   0.669   0.343  0.2686 -0.1074 -0.0496
 7332W        W 9532  14.297   6.163  14.302 -0.3077  0.2063  0.1294
 7333W        W 9533   1.408   3.712   3.180  0.1300  0.3020 -0.2192
 7334W        W 9534  23.716   5.745  12.947  0.2022  0.0249  0.1923
 7335W        W 9535  10.701   5.627   1.291  0.0136 -0.1847  0.1100
 7336W        W 9536  20.090   6.204  16.814  0.0819 -0.2157 -0.2718
 7337W        W 9537   5.650   0.792  15.423 -0.0285 -0.1597 -0.0871
 7338W        W 9538  11.962   0.218   1.648  0.0205  0.0222  0.0698
 7339W        W 9539  16.688   0.927  30.537 -0.3868  0.1955 -0.0601
 7340W        W 9540   1.676   5.051  23.471  0.0520 -0.1078  0.0397
 7341W        W 9541  18.337   1.605  22.767 -0.2588 -0.0065 -0.0496
 7342W        W 9542  14.694   1.439  11.929  0.1712  0.0943  0.1097
 7343W        W 9543   7.309   4.048  27.552 -0.1427 -0.0013 -0.1949
 7344W        W 9544  24.108   2.647  31.270  0.5321 -0.0326 -0.0008
 7345W        W 9545  17.168   7.340  31.626 -0.0070 -0.0945  0.2712
 7346W        W 9546  19.395   6.456  24.893  0.2053  0.0654  0.1214
 7347W        W 9547  15.989   1.521  32.117 -0.1829  0.0509 -0.3445
 7348W        W 9548  21.522   3.296  30.739 -0.4137 -0.1135 -0.0694
 7349W        W 9549  24.719   7.792  13.158 -0.1952 -0.1124  0.0038
 7350W        W 9550  18.603   0.522   9.352  0.2116  0.1236 -0.2180
 7351W        W 9551  19.499   0.449   4.267  0.2137  0.2227 -0.0551
 7352W        W 9552   2.470   1.128  29.290 -0.0757  0.0670  0.1841
 7353W        W 9553  12.877   6.181  23.821 -0.0542  0.1553  0.2867
 7354W        W 9554   5.157   4.988   7.747 -0.0656 -0.0517 -0.1263
 7355W        W 9555  17.295   6.797  32.569 -0.1190  0.0890 -0.0093
 7356W        W 9556  24.447   0.093  25.677 -0.0705 -0.0037 -0.2359
 7357W        W 9557  17.869   1.330   9.357 -0.0182 -0.1944  0.2095
 7358W        W 9558  18.888   7.247   2.885  0.1643  0.0069 -0.1322
 7359W        W 9559  24.093   2.964   6.859 -0.1347  0.1565 -0.1791
 7360W        W 9560   9.855   7.590   9.033  0.1719 -0.0989 -0.0622
 7361W        W 9561   2.755   1.345  31.949  0.4532  0.3230  0.1250
 7362W        W 9562  15.586   3.125  26.653 -0.0718  0.0204  0.1722
 7363W        W 9563   6.048   3.047  29.799  0.0031 -0.1454  0.0259
 7364W        W 9564   1.669   2.354  19.724  0.0077  0.2123 -0.1049
 7365W        W 9565  21.260   5.414  10.578 -0.3480  0.1844  0.2420
 7366W        W 9566  13.494   5.816  13.226  0.2092  0.1139 -0.4556
 7367W        W 9567   0.281   2.050  21.685  0.2341 -0.0751 -0.0724
 7368W        W 9568  23.067   2.541  11.683 -0.2538  0.2905 -0.2437
 7369W        W 9569  25.142   7.436  26.772 -0.1040 -0.1339 -0.1783
 7370W        W 9570   8.421   3.727  31.020  0.0877 -0.1176  0.0370
 7371W        W 9571  14.815   6.375  26.358  0.1001  0.2717  0.0791
 7372W        W 9572   2.100   6.697  10.142  0.4271  0.0879  0.0374
 7373W        W 9573  21.403   3.143  16.170 -0.4527 -0.3878  0.0193
 7374W        W 9574  17.526   2.465   6.303  0.0439  0.0424 -0.2345
 7375W        W 9575  23.205   0.007   0.575  0.0468  0.1839  0.0776
 7376W        W 9576  13.109   2.156  19.746 -0.0410  0.2372  0.1665
 7377W        W 9577   0.882   2.933  24.710 -0.0222  0.0419  0.2729
 7378W        W 9578  13.456   4.609   0.911  0.0708 -0.1023  0.1559
 7379W        W 9579  11.472   0.618  10.777  0.0690  0.1938 -0.0864
 7380W        W 9580   9.059   3.333   0.277  0.2874  0.0095  0.1841
 7381W        W 9581  10.379   4.608   3.360  0.0406 -0.2210 -0.0372
 7382W        W 9582  22.639   1.900   3.785 -0.1515  0.0164 -0.0762
 7383W        W 9583   4.946   7.777   5.807 -0.2087  0.0326  0.1747
 7384W        W 9584   4.565   5.929  26.726 -0.1464 -0.1690 -0.4656
 7385W        W 9585  24.842   6.571   2.618  0.0214  0.1602  0.1482
 7386W        W 9586   9.621   1.225   7.220 -0.1442 -0.1297 -0.0779
 7387W        W 9587  11.715   7.739  31.677 -0.0835 -0.0757  0.4372
 7388W        W 9588   6.966   7.604  26.286  0.0286  0.1935  0.2250
 7389W        W 9589  20.014   0.997  32.044  0.3032  0.2277 -0.1351
 7390W        W 9590   0.199   3.057  29.156  0.0716 -0.1830 -0.1046
 7391W        W 9591   9.817   6.359  31.405  0.1759 -0.0142 -0.1496
 7392W        W 9592  14.168   4.668  29.648  0.1273  0.0895  0.2061
 7393W        W 9593   1.081   7.186   6.609  0.2450 -0.2095 -0.0369
 7394W        W 9594   7.362   4.446   1.328  0.0951  0.3200 -0.0817
 7395W        W 9595   8.518   6.337  26.575  0.1833  0.1375  0.1970
 7396W        W 9596  18.028   4.699   6.418 -0.1217 -0.3216  0.2758
 7397W        W 9597  14.456   1.780   4.099  0.1477 -0.2290  0.2230
 7398W        W 9598  12.681   3.638   4.126  0.1836  0.0172 -0.1123
 7399W        W 9599   3.066   6.618  20.412 -0.2451  0.1879  0.1840
 7400W        W 9600  21.627   4.597  29.466  0.0405 -0.1862 -0.2416
 7401W        W 9601   8.073   2.380  18.345 -0.0729 -0.1182  0.0155
 7402W        W 9602  25.011   6.830  30.097  0.0710  0.0319 -0.0593
 7403W        W 9603   4.966   4.159  23.935 -0.0973 -0.2116 -0.3059
 7404W        W 9604  17.956   7.025   7.446 -0.2354 -0.3711 -0.2238
 7405W        W 9605   6.387   2.551   8.926  0.5232  0.0323 -0.1105
 7406W        W 9606   2.764   2.284   5.519 -0.0820  0.0457  0.0188
 7407W        W 9607  19.761   4.428  25.432 -0.2373 -0.1439 -0.1236
 7408W        W 9608  25.071   6.737  28.070  0.2866 -0.4186 -0.0354
 7409W        W 9609  16.000   2.108  11.236 -0.0359 -0.1625  0.1292
 7410W        W 9610   4.360   5.985   7.846 -0.2538  0.0682  0.4038
 7411W        W 9611   1.317   7.183  26.452 -0.1789  0.3325 -0.0826
 7412W        W 9612  14.993   7.570  15.165  0.0921 -0.0437  0.1326
 7413W        W 9613  13.607   4.051   4.962  0.1026 -0.3777 -0.0673
 7414W        W 9614  10.234   0.822  10.908 -0.0732  0.1120  0.0715
 7415W        W 9615  23.932   4.686   7.254  0.2536  0.0298  0.1694
 7416W        W 9616  15.173   5.052  13.842  0.3213  0.0837  0.1794
 7417W        W 9617   1.758   3.424   5.137 -0.3267 -0.1701 -0.0823
 7418W        W 9618  22.765   2.020   9.577 -0.2521 -0.2728  0.0444
 7419W        W 9619  20.277   3.629  17.188 -0.1610  0.1206 -0.0884
 7420W        W 9620   1.915   6.219  21.138  0.0567  0.0634  0.4255
 7421W        W 9621   3.955   3.788   9.622 -0.0825 -0.0584 -0.5112
 7422W        W 9622  10.600   5.825   5.805 -0.0600 -0.0295 -0.2177
 7423W        W 9623   5.716   7.774   4.866  0.1493  0.1202 -0.1992
 7424W        W 9624   4.979   6.834   6.064 -0.0261 -0.0473 -0.1336
 7425W        W 9625   5.526   3.975  17.135 -0.0036 -0.0202  0.1109
 7426W        W 9626   8.607   5.236   1.311  0.1358  0.0119 -0.1146
 7427W        W 9627   6.445   1.731  28.512 -0.0605  0.1276 -0.2035
 7428W        W 9628   7.451   4.291  18.949 -0.0457  0.1915  0.2446
 7429W        W 9629  18.320   1.540  30.569  0.1231 -0.1398  0.0048
 7430W        W 9630  23.870   5.173  13.724 -0.0676 -0.1389 -0.0160
 7431W        W 9631   1.111   5.940   8.028 -0.1098 -0.1048 -0.1972
 7432W        W 9632  23.056   2.107   7.961 -0.2099 -0.0778  0.1428
 7433W        W 9633   4.845   1.201  29.994 -0.0717  0.1212 -0.3650
 7434W        W 9634   7.753   1.757   4.173  0.1678  0.1780 -0.0492
 7435W        W 9635   9.184   1.624  32.156  0.0635 -0.1715 -0.0277
 7436W        W 9636  12.291   3.107   8.547 -0.2187 -0.0812  0.0785
 7437W        W 9637  21.194   0.028  12.341  0.2186 -0.3975 -0.0301
 7438W        W 9638   8.458   4.109  17.254  0.1237  0.2749 -0.1976
 7439W        W 9639  10.514   1.170   2.676 -0.0950  0.2561 -0.0126
 7440W        W 9640  19.247   6.198  32.523  0.0586 -0.0779  0.1982
 7441W        W 9641  10.906   3.059  24.020  0.3840 -0.0784 -0.2729
 7442W        W 9642  13.536   0.799  19.729  0.0595 -0.1672  0.2374
 7443W        W 9643  23.322   0.151   3.561 -0.0295 -0.0202  0.3302
 7444W        W 9644   8.527   3.296   0.088  0.2786  0.0537 -0.2298
 7445W        W 9645  17.686   6.046  24.329  0.0315 -0.0554 -0.0783
 7446W        W 9646   8.566   3.007   4.617 -0.3403 -0.1624 -0.0264
 7447W        W 9647   8.860   6.413  31.052  0.0354  0.5144 -0.0779
 7448W        W 9648  15.475   7.058  24.070  0.3574 -0.0745  0.2532
 7449W        W 9649  16.854   0.340   4.231 -0.2764 -0.0628 -0.0007
 7450W        W 9650   7.765   0.680  22.566  0.3568  0.1470  0.3420
 7451W        W 9651   6.313   5.158   9.210 -0.1549 -0.3252  0.0775
 7452W        W 9652  10.410   4.078  31.460 -0.3807  0.0735 -0.1348
 7453W        W 9653   3.268   0.969  16.404 -0.0403  0.2768  0.3485
 7454W        W 9654  14.638   3.180  12.176  0.2120 -0.0104 -0.0031
 7455W        W 9655   3.412   5.418  23.589  0.0208  0.3434  0.2485
 7456W        W 9656  15.126   3.437   2.436 -0.1730 -0.0543 -0.3868
 7457W        W 9657  15.728   5.576  31.882  0.3869 -0.0607  0.0301
 7458W        W 9658   3.245   6.944   6.542  0.2305  0.0785 -0.1357
 7459W        W 9659   9.276   7.059  22.871  0.1165  0.0046 -0.0184
 7460W        W 9660  16.490   7.756  29.995 -0.3646 -0.1215  0.0805
 7461W        W 9661  15.854   7.628   7.512  0.0102 -0.0074 -0.0371
 7462W        W 9662  18.262   7.561  11.586  0.0897  0.1101  0.2859
 7463W        W 9663  20.996   2.584  27.425  0.3057 -0.0878  0.2612
 7464W        W 9664   1.417   3.857  19.711 -0.1811 -0.1944 -0.0548
 7465W        W 9665  10.367   3.974   7.675  0.0200  0.0992 -0.2539
 7466W        W 9666  18.665   3.879   1.259  0.0272 -0.0294 -0.2387
 7467W        W 9667  10.851   5.615  17.982  0.0775  0.0743  0.0288
 7468W        W 9668   4.273   7.423  24.308 -0.1173 -0.1190  0.1629
 7469W        W 9669  13.612   4.322   2.765 -0.0353  0.3585 -0.0943
 7470W        W 9670  10.661   4.137  29.195  0.1829 -0.2008  0.0698
 7471W        W 9671   1.833   5.265  29.655 -0.0874  0.0546  0.2058
 7472W        W 9672   4.183   0.204  21.897  0.1755 -0.0924 -0.0225
 7473W        W 9673  22.017   5.821  30.027  0.2428  0.1865 -0.0371
 7474W        W 9674  12.425   1.079  22.441 -0.1395 -0.2890 -0.3089
 7475W        W 9675   5.566   5.428  10.092 -0.0850  0.3548 -0.0020
 7476W        W 9676   6.175   0.875   8.358  0.0312  0.0016  0.0881
 7477W        W 9677  24.971   1.684  32.029 -0.1400  0.0746  0.0421
 7478W        W 9678   4.752   2.840   9.226  0.1828 -0.1052 -0.0358
 7479W        W 9679  22.138   4.993   4.680  0.0759 -0.0537  0.2951
 7480W        W 9680  15.200   3.343  29.502 -0.0680 -0.3370  0.1898
 7481W        W 9681  22.576   6.460   6.017  0.1236 -0.4316 -0.2871
 7482W        W 9682  18.623   3.679  10.296  0.0314 -0.1270 -0.1155
 7483W        W 9683  11.608   1.760  26.355  0.1951  0.0497  0.0839
 7484W        W 9684   8.814   3.255  27.644 -0.2925  0.3308 -0.2040
 7485W        W 9685  15.390   6.296   4.646 -0.3168 -0.1956  0.1685
 7486W        W 9686   0.177   2.553   6.272 -0.0662  0.1098 -0.0309
 7487W        W 9687  15.006   3.732  31.041  0.1275  0.1675 -0.1852
 7488W        W 9688  22.946   0.261  31.156 -0.4671 -0.3730  0.3798
 7489W        W 9689  22.376   4.038  12.153  0.0323 -0.0417  0.4563
 7490W        W 9690   2.330   1.783  23.430  0.4676 -0.0321 -0.0655
 7491W        W 9691  24.496   6.574   9.100  0.3006  0.3431  0.3451
 7492W        W 9692   4.132   1.322  30.643 -0.2851  0.0931  0.1079
 7493W        W 9693   3.733   0.815  19.865  0.2667  0.0348 -0.1143
 7494W        W 9694  17.447   1.121  13.700 -0.1530  0.1848  0.0595
 7495W        W 9695   9.073   3.797   8.605 -0.1345  0.0709  0.1660
 7496W        W 9696  18.061   4.962  17.231  0.1964  0.1914  0.6290
 7497W        W 9697  20.556   6.621  23.448 -0.1318  0.1905  0.3056
 7498W        W 9698   0.155   4.917   3.582 -0.2317  0.1088 -0.1615
 7499W        W 9699  19.306   3.501   8.438  0.1173 -0.2298  0.1599
 7500W        W 9700  22.717   7.806  27.067 -0.0850  0.0263  0.0613
 7501W        W 9701  10.689   2.411   7.323  0.0435  0.0839  0.1481
 7502W        W 9702  22.126   4.102  30.647 -0.1937  0.0303  0.0186
 7503W        W 9703  10.642   0.978   0.005  0.0143  0.2205  0.0143
 7504W        W 9704   5.382   4.684   4.608 -0.0862  0.0414  0.0646
 7505W        W 9705   7.683   1.932  29.480 -0.2760  0.1411 -0.1309
 7506W        W 9706   5.909   1.108  16.236  0.0938 -0.0117 -0.2168
 7507W        W 9707   6.678   4.022  30.444 -0.1045 -0.4445 -0.2043
 7508W        W 9708   4.691   2.392  18.221 -0.1899 -0.0520 -0.0456
 7509W        W 9709  20.738   1.291  30.920 -0.0203  0.1482 -0.1294
 7510W        W 9710  16.735   2.715   9.243 -0.4725  0.1323 -0.1019
 7511W        W 9711   3.425   4.016  24.050  0.0584  0.6489  0.1352
 7512W        W 9712   3.217   0.298   6.202  0.0871 -0.2581  0.2757
 7513W        W 9713   6.932   7.174   7.996  0.0880  0.2175  0.2209
 7514W        W 9714   5.534   7.055  20.960  0.0765 -0.2123 -0.0515
 7515W        W 9715   3.217   4.064  26.122  0.3336 -0.1609  0.1281
 7516W        W 9716   4.090   4.249   1.025 -0.0924  0.0989 -0.0075
 7517W        W 9717   5.906   3.385  31.309  0.1359 -0.0287 -0.1991
 7518W        W 9718   2.919   4.971  22.316 -0.0201 -0.2638  0.1340
 7519W        W 9719  21.794   6.055   6.621  0.3801 -0.1545  0.3509
 7520W        W 9720  22.799   5.504  29.306 -0.1229  0.1293  0.1636
 7521W        W 9721  15.090   3.663  13.331 -0.0313  0.1593  0.2420
 7522W        W 9722  18.785   2.917  24.512  0.1352  0.1300  0.1175
 7523W        W 9723  12.960   2.139   4.536 -0.0002 -0.0834  0.0463
 7524W        W 9724  19.499   2.176   6.443 -0.1240 -0.0721 -0.1520
 7525W        W 9725  21.454   6.891   3.101 -0.1096 -0.1991 -0.0554
 7526W        W 9726  19.758   5.608  11.491  0.2246 -0.1809 -0.2158
 7527W        W 9727   0.775   5.652   1.633 -0.1394  0.0798 -0.1521
 7528W        W 9728  16.078   0.929   8.393 -0.1006 -0.2412 -0.1422
 7529W        W 9729  25.109   2.181  12.282  0.0367 -0.1509 -0.1433
 7530W        W 9730   7.765   3.197  14.816 -0.2067 -0.0132 -0.0281
 7531W        W 9731  23.978   3.689  24.697 -0.4499 -0.0914 -0.1957
 7532W        W 9732  20.800   4.302   8.042 -0.0218  0.0692  0.0930
 7533W        W 9733   5.332   2.948  18.647  0.1951 -0.1037 -0.1667
 7534W        W 9734   2.046   2.039   5.823 -0.0339 -0.2349 -0.0941
 7535W        W 9735   1.152   4.546  30.709 -0.0675  0.0834 -0.0451
 7536W        W 9736   7.175   5.019   4.868  0.0945 -0.1607 -0.1029
 7537W        W 9737  13.918   4.691   3.675  0.0783 -0.0752 -0.0321
 7538W        W 9738  11.292   1.482   7.414 -0.0970  0.0449  0.4687
 7539W        W 9739   8.597   5.781  16.261 -0.3793  0.0270 -0.1535
 7540W        W 9740  15.090   3.907   6.925 -0.1589  0.2405 -0.0343
 7541W        W 9741   5.427   2.210  23.679 -0.2442  0.0041 -0.1811
 7542W        W 9742  21.166   0.172   2.220  0.2857  0.0441 -0.1309
 7543W        W 9743  18.906   6.788  22.996  0.2393  0.0824  0.1677
 7544W        W 9744   5.190   6.325  23.506 -0.1877 -0.1234  0.0861
 7545W        W 9745   6.545   2.432  19.691 -0.2374 -0.0655 -0.1544
 7546W        W 9746  20.157   1.549   8.241 -0.2265 -0.0589 -0.2935
 7547W        W 9747  15.042   1.797   0.361 -0.0911  0.1012 -0.1452
 7548W        W 9748   7.043   3.971  15.041 -0.1439 -0.0755  0.1035
 7549W        W 9749  12.286   7.418   2.482 -0.0087  0.1328 -0.0624
 7550W        W 9750   4.391   0.426   3.098 -0.0524 -0.1118 -0.0142
 7551W        W 9751  20.870   4.970  25.651  0.0858 -0.2279 -0.2259
 7552W        W 9752  18.353   7.379  12.305 -0.1536  0.1780 -0.1407
 7553W        W 9753  14.651   1.223  22.146  0.2223  0.4548  0.3107
 7554W        W 9754   2.871   4.820  31.786  0.0686  0.0729 -0.1263
 7555W        W 9755  21.982   2.052  16.164  0.1641 -0.0624 -0.1571
 7556W        W 9756   1.784   2.731   1.499 -0.6257 -0.2102  0.2367
 7557W        W 9757   3.847   0.227   8.330  0.2429 -0.2056  0.0529
 7558W        W 9758  24.721   5.848   2.165  0.1266  0.1141 -0.0095
 7559W        W 9759   2.783   2.619  30.924 -0.2557 -0.1406 -0.1368
 7560W        W 9760  21.793   6.254  13.065  0.3518  0.0243 -0.0304
 7561W        W 9761  23.473   7.833   7.909  0.1230 -0.0100  0.0143
 7562W        W 9762  21.365   2.349  25.492 -0.2503  0.0685 -0.0241
 7563W        W 9763  22.695   2.316  31.042 -0.0644 -0.0706 -0.1050
 7564W        W 9764   1.810   3.813  21.360 -0.1663 -0.1633 -0.0239
 7565W        W 9765   9.807   5.608  17.027 -0.1192  0.1834  0.2053
 7566W        W 9766   1.731   3.791   8.591  0.0941 -0.0220  0.3400
 7567W        W 9767  23.311   7.348  27.573  0.1159  0.1101 -0.3391
 7568W        W 9768   3.394   5.740  29.051 -0.1897 -0.0220  0.0048
 7569W        W 9769   7.422   4.148  31.049  0.2355  0.0260 -0.1704
 7570W        W 9770   1.228   3.021  29.280 -0.1194 -0.2306  0.0423
 7571W        W 9771  21.706   2.380   3.754  0.0108  0.0464  0.1356
 7572W        W 9772   2.799   4.080   4.951  0.1089 -0.0607  0.1613
 7573W        W 9773  24.650   0.432   0.841 -0.1050 -0.2335  0.0679
 7574W        W 9774  15.679   1.483  10.021  0.1538  0.1674  0.0076
 7575W        W 9775   1.906   6.068  12.026 -0.0193  0.0622  0.0939
 7576W        W 9776  16.412   5.292  22.415  0.1398  0.0884 -0.0946
 7577W        W 9777  14.576   1.269   8.141 -0.0456  0.1914 -0.2281
 7578W        W 9778  15.536   6.299  12.806  0.1135 -0.0074  0.0689
 7579W        W 9779   5.475   0.527  21.379 -0.4872  0.3021 -0.5937
 7580W        W 9780   9.824   2.510  16.135  0.0722 -0.1032  0.1295
 7581W        W 9781  15.921   2.599   7.336 -0.0993 -0.2586  0.3228
 7582W        W 9782   3.469   5.446   2.786  0.3336 -0.3446  0.1320
 7583W        W 9783  10.344   3.691  30.530 -0.0368 -0.2231 -0.1658
 7584W        W 9784  19.367   3.754  13.564  0.3303 -0.0028  0.0926
 7585W        W 9785  13.674   3.735   8.211 -0.0812 -0.3121 -0.2241
 7586W        W 9786   5.173   5.898   8.147  0.1648 -0.0669 -0.1314
 7587W        W 9787  15.914   7.113   6.593  0.2220 -0.0007 -0.1972
 7588W        W 9788  22.117   7.016  16.364 -0.0673 -0.1098 -0.0974
 7589W        W 9789   5.655   6.303  15.237 -0.1168 -0.0414  0.0020
 7590W        W 9790   6.084   0.492  17.230 -0.2705  0.0564 -0.2020
 7591W        W 9791  11.330   6.291  19.327  0.0576  0.3545 -0.0339
 7592W        W 9792  11.424   6.356  25.791  0.2180  0.0628 -0.2591
 7593W        W 9793   9.517   7.537   1.723  0.2107 -0.0625  0.3161
 7594W        W 9794  19.291   5.290  11.476 -0.0533 -0.3855 -0.0297
 7595W        W 9795  11.545   4.577  22.048  0.0934 -0.1596 -0.2690
 7596W        W 9796  16.123   2.226  13.829 -0.0948  0.3351  0.0049
 7597W        W 9797   0.235   2.794  10.808  0.1978 -0.3022 -0.0843
 7598W        W 9798  20.847   4.032  27.348  0.0287  0.0543 -0.0533
 7599W        W 9799  24.776   1.582   3.542 -0.2129 -0.3644 -0.2563
 7600W        W 9800   6.423   6.715  16.498  0.0120 -0.0748  0.0736
 7601W        W 9801  12.848   7.114   0.724 -0.3993  0.3720  0.0103
 7602W        W 9802   4.576   6.833  15.977  0.0289  0.2746  0.2654
 7603W        W 9803  14.513   4.020  31.049 -0.0640 -0.3478  0.1474
 7604W        W 9804  12.368   1.292  10.335 -0.1175  0.0187 -0.0202
 7605W        W 9805  11.454   6.983  23.266 -0.1078  0.0284  0.2953
 7606W        W 9806  17.092   7.254  14.640  0.0354 -0.2292  0.0855
 7607W        W 9807   9.256   2.325  27.589 -0.4729  0.2566 -0.0008
 7608W        W 9808  24.123   3.800  10.854 -0.0166  0.0610 -0.0149
 7609W        W 9809  11.456   6.110  26.205 -0.1343 -0.1956 -0.0671
 7610W        W 9810  12.512   2.598  11.520  0.0774  0.3097  0.0698
 7611W        W 9811  18.931   3.973   2.251  0.1717 -0.2206  0.1390
 7612W        W 9812  20.953   5.406  26.597 -0.3834  0.1097  0.3507
 7613W        W 9813   7.329   2.899  25.869 -0.0558  0.1399 -0.0927
 7614W        W 9814  10.005   5.497  29.875 -0.1988 -0.0329  0.1614
 7615W        W 9815  19.219   7.322   2.480  0.1360  0.0724 -0.0422
 7616W        W 9816  18.312   3.897  30.450 -0.1632 -0.0076  0.2385
 7617W        W 9817   4.417   0.609   6.253 -0.2110  0.0105 -0.2042
 7618W        W 9818  10.069   7.502   3.948  0.1965  0.0952  0.0713
 7619W        W 9819  10.970   1.397  10.387 -0.0854  0.1407  0.3831
 7620W        W 9820  16.799   6.794   8.276 -0.0902 -0.0851 -0.0563
 7621W        W 9821  22.382   4.561  27.645 -0.3149 -0.2179 -0.1027
 7622W        W 9822   4.526   3.986   2.494 -0.3424  0.1939  0.0813
 7623W        W 9823   3.762   1.167  30.271 -0.1101 -0.0501 -0.0059
 7624W        W 9824  24.221   5.637  13.116 -0.1371  0.2925  0.1134
 7625W        W 9825  17.974   5.913  32.323  0.0594 -0.2363 -0.0217
 7626W        W 9826   7.134   0.397  15.096  0.2936  0.3318  0.0410
 7627W        W 9827  12.241   2.541   8.220  0.1326  0.1468 -0.0703
 7628W        W 9828  18.379   0.498  23.703  0.2021 -0.3447  0.1298
 7629W        W 9829  16.387   6.130  11.211  0.1843  0.4559 -0.0070
 7630W        W 9830  14.456   7.436  30.746 -0.4248  0.1827 -0.2372
 7631W        W 9831   3.282   3.195  30.467  0.0026  0.2900  0.1072
 7632W        W 9832  13.773   2.502   0.398  0.0516 -0.0754  0.1186
 7633W        W 9833  14.730   4.558  10.967 -0.0373  0.1252 -0.1258
 7634W        W 9834   5.806   4.671  16.617 -0.3526  0.1626  0.0341
 7635W        W 9835  11.878   7.444   9.441  0.2627 -0.5110 -0.1979
 7636W        W 9836   4.028   7.118  16.205 -0.1399 -0.1286  0.2642
 7637W        W 9837  17.173   0.556   5.408 -0.0154 -0.0017  0.0579
 7638W        W 9838  12.231   7.490  28.873  0.0591  0.2132 -0.1463
 7639W        W 9839  12.099   7.603  22.916 -0.3486  0.1533  0.2271
 7640W        W 9840   6.179   4.795  32.109 -0.0760  0.0467  0.0623
 7641W        W 9841   5.322   4.784  20.711 -0.3041  0.3039 -0.1942
 7642W        W 9842  16.928   2.221   0.199  0.0613 -0.0893 -0.0108
 7643W        W 9843  22.345   6.663   4.223 -0.1090  0.0292  0.1367
 7644W        W 9844  18.102   4.511  16.419 -0.2921 -0.1942 -0.2696
 7645W        W 9845   4.974   5.705   1.639  0.1485 -0.2296  0.1515
 7646W        W 9846  15.340   3.949   8.874  0.0072 -0.1701  0.1927
 7647W        W 9847  18.968   5.792  13.512  0.1680 -0.0156  0.2702
 7648W        W 9848   3.835   0.267  19.638 -0.3130  0.0186 -0.1731
 7649W        W 9849  15.496   1.931  30.157  0.0348  0.1780  0.0466
 7650W        W 9850   7.734   2.684  25.053  0.0739  0.1044 -0.1390
 7651W        W 9851  13.227   6.102   7.047  0.2983  0.2011  0.1546
 7652W        W 9852  14.055   3.146   4.672  0.0569 -0.0065 -0.1038
 7653W        W 9853   3.431   1.164   4.284  0.3267  0.0388 -0.3179
 7654W        W 9854   9.510   1.951   5.773 -0.2356  0.1335  0.2728
 7655W        W 9855   7.399   0.798  30.211  0.0570  0.0854  0.1309
 7656W        W 9856  16.743   4.033   3.864 -0.1876  0.3132  0.1723
 7657W        W 9857  20.578   5.469  16.779  0.4063 -0.0063  0.0861
 7658W        W 9858  19.544   7.027   6.884  0.0219 -0.5305 -0.1306
 7659W        W 9859   5.325   0.284  31.438  0.1744 -0.0996  0.1225
 7660W        W 9860   4.283   5.039  31.603  0.1459 -0.2175 -0.0350
 7661W        W 9861   7.708   2.538  26.222  0.0517  0.1302  0.0443
 7662W        W 9862  10.373   7.561  11.404  0.0054  0.2015 -0.0128
 7663W        W 9863   0.985   2.865  21.671  0.0786 -0.0077 -0.0547
 7664W        W 9864   9.746   7.627   7.361  0.0709  0.3059  0.0264
 7665W        W 9865   8.483   7.605  14.940  0.3333  0.2611 -0.0986
 7666W        W 9866  16.242   1.311  15.039  0.0600  0.0199  0.0793
 7667W        W 9867  12.452   4.231  29.538 -0.0753 -0.2460  0.4216
 7668W        W 9868   8.386   5.408  16.540  0.1787 -0.2101 -0.0758
 7669W        W 9869  19.578   4.479   9.371 -0.1867  0.1430 -0.1676
 7670W        W 9870   5.326   4.103   5.468 -0.0605  0.0059 -0.3178
 7671W        W 9871  12.035   6.812   4.343 -0.1820 -0.0496 -0.0412
 7672W        W 9872  11.397   3.979  31.476  0.1242 -0.0240 -0.2854
 7673W        W 9873  17.089   2.619  29.547 -0.0506 -0.0722  0.3901
 7674W        W 9874  17.586   0.865  28.278  0.0342  0.1699  0.2861
 7675W        W 9875  12.969   1.459   8.037  0.2674 -0.2283 -0.2683
 7676W        W 9876   7.417   5.182  16.119 -0.0071 -0.0504 -0.1302
 7677W        W 9877   4.038   6.737   9.485 -0.1570  0.1092 -0.0851
 7678W        W 9878  10.416   5.097  21.417 -0.1592 -0.0658 -0.0361
 7679W        W 9879  15.694   0.492  16.238  0.1806 -0.2045  0.1375
 7680W        W 9880   1.391   0.157  24.479 -0.0349 -0.0000  0.0847
 7681W        W 9881   3.091   0.541  31.635  0.0748 -0.0972  0.1584
 7682W        W 9882   1.377   5.080  10.862 -0.3450  0.0617  0.0531
 7683W        W 9883   3.582   2.657   3.195  0.0875  0.0749 -0.1464
 7684W        W 9884  22.793   1.232  15.290  0.0825  0.1485  0.2851
 7685W        W 9885  22.981   0.836   1.226  0.0182  0.0039  0.1286
 7686W        W 9886  20.954   2.107  11.118  0.0283 -0.0100 -0.1311
 7687W        W 9887   8.210   3.241   3.721 -0.1822  0.2519  0.1693
 7688W        W 9888  20.206   3.973  10.138  0.1672  0.2099 -0.1146
 7689W        W 9889   8.348   1.320   8.910  0.0260 -0.2829 -0.0711
 7690W        W 9890  16.372   6.353  15.744 -0.0538 -0.4370  0.1548
 7691W        W 9891  14.590   4.088  11.126 -0.2973 -0.0204  0.0641
 7692W        W 9892  13.375   2.570  28.514 -0.0233 -0.4284 -0.2597
 7693W        W 9893   9.030   2.941   2.320 -0.0318  0.1315  0.0511
 7694W        W 9894  13.272   4.367  20.368 -0.2206 -0.1938 -0.6342
 7695W        W 9895  13.623   5.064  21.479 -0.1139  0.2891 -0.1246
 7696W        W 9896   9.671   4.604   8.203 -0.1541  0.0297  0.0787
 7697W        W 9897   7.266   5.498  25.841 -0.1258 -0.0419  0.1924
 7698W        W 9898   4.647   0.519  18.362  0.1915  0.2995 -0.2473
 7699W        W 9899   1.491   4.363  23.550 -0.0802  0.1957  0.2037
 7700W        W 9900   3.163   3.594   6.303  0.0227 -0.0401  0.0970
 7701W        W 9901   7.707   1.503  23.642 -0.1424 -0.0750  0.2336
 7702W        W 9902  13.285   7.561   5.896  0.3353 -0.1505 -0.2965
 7703W        W 9903  17.087   5.062  16.556  0.4280  0.1763 -0.1208
 7704W        W 9904  16.528   3.237  23.690 -0.0326 -0.0775  0.3192
 7705W        W 9905  13.379   1.690  27.519  0.1855  0.1103 -0.0105
 7706W        W 9906  23.551   7.092  12.900  0.1248  0.0298  0.0828
 7707W        W 9907  19.120   0.543  18.297 -0.0230 -0.0156  0.3707
 7708W        W 9908  15.267   0.039   0.239 -0.0045 -0.0743  0.0213
 7709W        W 9909   6.821   5.946  26.598  0.2040  0.3383 -0.2677
 7710W        W 9910   9.584   1.668  30.897  0.1490 -0.1437 -0.1123
 7711W        W 9911  21.169   6.151   2.464  0.3573 -0.0556  0.1445
 7712W        W 9912   3.970   3.611   8.629 -0.0686  0.0928  0.1522
 7713W        W 9913  13.593   1.967   1.964  0.3165  0.1070  0.0258
 7714W        W 9914  22.246   3.576  11.975 -0.1268 -0.7145  0.0689
 7715W        W 9915   6.568   1.808  26.082 -0.1645  0.1241  0.2159
 7716W        W 9916   2.564   6.181   1.785  0.1364  0.1709 -0.1876
 7717W        W 9917   1.825   4.550  11.398 -0.0329  0.1376  0.0273
 7718W        W 9918   7.382   0.961  19.097 -0.0782  0.2017  0.0098
 7719W        W 9919   6.722   0.717   3.563 -0.2072 -0.1672  0.0254
 7720W        W 9920  17.909   0.352   4.981  0.1718  0.1172 -0.0508
 7721W        W 9921  17.504   7.068  22.962 -0.1831 -0.1439  0.3161
 7722W        W 9922   5.392   1.558   1.233  0.1779 -0.0295 -0.2844
 7723W        W 9923   0.431   6.144   2.812  0.0043  0.0553 -0.1132
 7724W        W 9924   1.318   1.312  32.375 -0.0344 -0.1113  0.3113
 7725W        W 9925   8.007   4.762  31.557  0.1995  0.1168  0.2861
 7726W        W 9926  11.692   3.734  23.464 -0.0096 -0.1027 -0.0737
 7727W        W 9927  24.161   3.015  25.947 -0.0292 -0.1814 -0.0181
 7728W        W 9928   1.855   6.774   4.878  0.2962 -0.2161 -0.0512
 7729W        W 9929   6.744   3.959   1.486  0.1722  0.0410  0.0452
 7730W        W 9930  23.914   3.085   8.607 -0.0997 -0.0315  0.1010
 7731W        W 9931  24.123   2.291   6.056  0.5012 -0.0550 -0.2376
 7732W        W 9932  16.698   2.398  21.841 -0.1052  0.3492  0.2022
 7733W        W 9933  14.150   0.410   2.389 -0.0450  0.1837  0.1673
 7734W        W 9934  11.260   2.875   5.486  0.0260  0.1859 -0.1486
 7735W        W 9935   4.045   6.225  27.192 -0.2020  0.0586 -0.2013
 7736W        W 9936   8.362   1.439  15.803  0.3046  0.1673  0.0461
 7737W        W 9937  18.671   3.264  11.382 -0.1392  0.0406 -0.1890
 7738W        W 9938   9.162   7.200   8.036 -0.2855  0.2305  0.1070
 7739W        W 9939  23.677   5.765   8.668  0.0057 -0.0765 -0.2923
 7740W        W 9940  23.903   1.118  13.586 -0.0750  0.1934  0.0942
 7741W        W 9941   5.762   3.530  17.891  0.1189 -0.2002 -0.2079
 7742W        W 9942   7.540   7.375  22.359 -0.3948 -0.0842 -0.1378
 7743W        W 9943  16.979   7.781   5.381  0.0117 -0.3760 -0.3151
 7744W        W 9944   2.379   6.453  10.559 -0.2329 -0.0142 -0.0340
 7745W        W 9945  18.511   0.490  28.269  0.0142  0.3368 -0.0825
 7746W        W 9946   8.153   5.158  17.283  0.1530  0.2428  0.2275
 7747W        W 9947  23.133   4.090   9.326 -0.1981  0.0660 -0.1665
 7748W        W 9948  23.790   7.372   1.903 -0.0847  0.1705  0.0433
 7749W        W 9949  12.606   4.491   4.985 -0.3277 -0.0873 -0.1264
 7750W        W 9950   7.510   0.947  20.935  0.0724 -0.0396 -0.0819
 7751W        W 9951  17.602   7.229  26.568  0.1785  0.3050  0.0138
 7752W        W 9952  20.090   6.530  26.110 -0.0088 -0.1048  0.0031
 7753W        W 9953  15.686   4.418  15.166  0.2387  0.0505  0.1388
 7754W        W 9954  16.494   6.077  17.213 -0.0318  0.2212  0.4429
 7755W        W 9955  18.303   2.876   6.654 -0.0902 -0.0229  0.2926
 7756W        W 9956  19.907   5.054  13.636 -0.0878 -0.1140  0.0321
 7757W        W 9957  14.310   5.222  21.038 -0.2640  0.2079 -0.3178
 7758W        W 9958  14.239   1.490   0.150  0.2945 -0.1818 -0.0532
 7759W        W 9959   7.557   4.060  19.590  0.0660 -0.0309 -0.2632
 7760W        W 9960   2.759   4.429   1.266  0.1290 -0.0850 -0.1111
 7761W        W 9961  18.224   4.303  28.110  0.0328 -0.0061  0.2959
 7762W        W 9962  20.693   2.843  26.017 -0.1896  0.1238  0.0066
 7763W        W 9963  23.053   4.706  13.145  0.1451  0.0570 -0.2594
 7764W        W 9964  12.634   6.008  32.148 -0.1675 -0.0119  0.1100
 7765W        W 9965   7.549   2.046  18.307 -0.1117 -0.2378 -0.0382
 7766W        W 9966  24.320   5.022  21.410  0.3486 -0.2348 -0.1548
 7767W        W 9967   4.757   6.661  27.288  0.1465  0.0244 -0.1086
 7768W        W 9968   2.543   2.763   4.272  0.0375 -0.0723 -0.3949
 7769W        W 9969  18.747   1.862  32.046  0.3329  0.0814  0.1038
 7770W        W 9970  24.436   1.931   3.345  0.1185 -0.0772 -0.1815
 7771W        W 9971   1.378   2.414   0.902 -0.2018 -0.1440  0.3952
 7772W        W 9972   1.624   5.359  30.573  0.0191 -0.2056 -0.1225
 7773W        W 9973  14.989   5.541  26.718  0.1088  0.2270 -0.3524
 7774W        W 9974   4.823   6.692  16.851 -0.2064 -0.2068 -0.1172
 7775W        W 9975   9.617   3.604  31.262  0.2782 -0.1306  0.1578
 7776W        W 9976  23.404   4.723  27.731 -0.1160  0.1909 -0.2144
 7777W        W 9977  11.462   1.534  10.953  0.3799 -0.2529  0.3507
 7778W        W 9978  17.952   0.414  22.307  0.0631 -0.1670 -0.1007
 7779W        W 9979  13.243   6.636  12.519 -0.2168  0.0532 -0.2727
 7780W        W 9980  19.484   7.354   0.341 -0.0250 -0.0416 -0.3098
 7781W        W 9981   0.241   0.864  13.655  0.1018 -0.2673 -0.1116
 7782W        W 9982  10.835   7.560  18.746 -0.0878 -0.0895  0.0155
 7783W        W 9983   1.052   4.136  20.369 -0.1862  0.1616  0.0002
 7784W        W 9984  22.599   5.728   6.790 -0.1475 -0.3080 -0.0660
 7785W        W 9985   2.420   3.665  30.702  0.1131 -0.0981 -0.1009
 7786W        W 9986  20.236   6.593   3.447  0.1415 -0.1593 -0.0091
 7787W        W 9987   6.099   5.820  16.294 -0.2237 -0.2064 -0.1501
 7788W        W 9988  19.816   0.344  13.579 -0.0520  0.1840  0.0286
 7789W        W 9989  17.903   6.732   1.424  0.0399 -0.1165 -0.2541
 7790W        W 9990  16.378   6.453  24.138  0.1940  0.1392 -0.1942
 7791W        W 9991  21.652   2.573  28.312 -0.2371  0.1042 -0.0470
 7792W        W 9992  11.826   0.944   0.097 -0.3232 -0.0140  0.0841
 7793W        W 9993  13.936   0.675  25.677 -0.1281 -0.2133 -0.3542
 7794W        W 9994  22.447   3.891   5.101  0.5076  0.3611 -0.0056
 7795W        W 9995   9.799   7.691  21.175 -0.3206 -0.2447 -0.0902
 7796W        W 9996  20.717   5.484  27.544 -0.1063 -0.1133  0.2469
 7797W        W 9997  19.079   1.791   2.016  0.2236 -0.3424 -0.0709
 7798W        W 9998  21.620   6.567  23.365  0.0843  0.1791  0.3476
 7799W        W 9999  11.191   3.942  28.347  0.2072 -0.1317 -0.1355
 7800W        W10000  10.609   5.297  19.257 -0.1413  0.2573 -0.0766
 7801W        W10001   7.910   0.281  17.071  0.1685 -0.0085 -0.1133
 7802W        W10002  24.181   0.594  31.479 -0.2034  0.1626 -0.1422
 7803W        W10003  10.531   7.691  25.746 -0.2124 -0.2086  0.2389
 7804W        W10004   3.919   4.618   9.754  0.0977 -0.0920  0.1771
 7805W        W10005  14.281   2.767  27.419  0.2546 -0.0346  0.0210
 7806W        W10006  12.394   1.226   0.644 -0.1479  0.0158  0.0141
 7807W        W10007   3.195   5.682   1.480  0.0224  0.1471  0.0241
 7808W        W10008   3.262   0.781  25.825 -0.1954  0.2209  0.0663
 7809W        W10009   8.167   0.412   9.434 -0.0057  0.0522  0.0327
 7810W        W10010   1.085   3.189  10.994 -0.1042 -0.1257  0.0088
 7811W        W10011   7.596   0.388  16.699  0.4161  0.3017  0.0990
 7812W        W10012  15.985   4.492  13.676  0.0853  0.1436  0.0356
 7813W        W10013  14.946   7.480   3.515  0.3539 -0.0838  0.1162
 7814W        W10014   0.496   3.759   7.962  0.1450 -0.0853  0.0016
 7815W        W10015  10.961   7.798   4.855 -0.0109 -0.3056 -0.2849
 7816W        W10016  15.676   3.210   5.898 -0.1832  0.0811  0.1434
 7817W        W10017   2.735   2.625  29.872 -0.0200 -0.0923 -0.0227
 7818W        W10018   9.115   3.840  25.820  0.2031  0.0930 -0.0073
 7819W        W10019   7.436   5.051  10.285 -0.1954 -0.0522  0.2034
 7820W        W10020  14.584   6.279   8.396 -0.0374 -0.0499  0.2152
 7821W        W10021  10.667   1.861  20.461  0.4022  0.1936  0.2690
 7822W        W10022  24.339   6.503  13.205 -0.1020  0.0427 -0.0439
 7823W        W10023   7.826   6.503   5.092 -0.0233 -0.4311  0.1539
 7824W        W10024  20.685   5.038   7.442  0.1627  0.0301  0.0756
 7825W        W10025   6.175   5.425  20.001 -0.0071  0.3710  0.3633
 7826W        W10026  24.569   2.597   6.659  0.3405  0.1648 -0.2825
 7827W        W10027   0.833   7.679  11.695  0.1437 -0.2227 -0.2511
 7828W        W10028   4.541   7.591  17.302  0.4348 -0.0677 -0.1105
 7829W        W10029   0.865   3.227  31.785  0.0943 -0.3098 -0.0696
 7830W        W10030   6.887   1.916  21.883  0.3583  0.0531  0.3215
 7831W        W10031  10.428   0.578  17.455 -0.3047  0.1078  0.0345
 7832W        W10032   6.322   2.788  22.437  0.2781  0.1342 -0.2971
 7833W        W10033  23.847   6.657  13.155 -0.0594  0.1642 -0.1661
 7834W        W10034  23.231   6.167  28.615 -0.0114 -0.4581 -0.1328
 7835W        W10035   1.762   0.389  23.768 -0.3272 -0.0317 -0.1469
 7836W        W10036   3.416   6.657  20.060  0.0456  0.0002 -0.1018
 7837W        W10037   3.300   7.359  19.346  0.2027 -0.3092 -0.0329
 7838W        W10038  22.826   3.454  10.918  0.1032  0.0486 -0.1640
 7839W        W10039   7.457   6.514  30.010 -0.0276 -0.0089  0.2281
 7840W        W10040  16.837   3.024  12.318 -0.0322 -0.3099  0.0258
 7841W        W10041  25.047   4.609   0.319 -0.0597 -0.0426 -0.2034
 7842W        W10042  23.499   0.102   2.463 -0.1550 -0.1367 -0.4903
 7843W        W10043  16.185   1.770  25.796 -0.1337 -0.1623 -0.1307
 7844W        W10044  20.147   7.367  29.883  0.1204 -0.1711 -0.0073
 7845W        W10045   0.947   5.708   9.791  0.2527  0.0146 -0.0948
 7846W        W10046  21.315   6.784   1.251 -0.1261  0.0519 -0.1539
 7847W        W10047  16.363   0.726  13.403  0.3231 -0.2517  0.1304
 7848W        W10048  11.809   6.624  25.537  0.1969 -0.4411  0.2439
 7849W        W10049   2.890   1.339   9.942  0.0004  0.1457  0.0829
 7850W        W10050  13.520   4.521   5.056 -0.2735 -0.2825  0.0994
 7851W        W10051  22.534   0.262  29.259  0.1190  0.3665 -0.0448
 7852W        W10052   6.769   5.827  19.868  0.1332  0.1426  0.2697
 7853W        W10053   3.032   5.142  23.258  0.0064 -0.0860  0.1989
 7854W        W10054   0.527   2.723  10.322  0.0952 -0.5256  0.0517
 7855W        W10055  22.699   6.586  23.144  0.4105 -0.0097  0.1384
 7856W        W10056   8.811   0.688  25.845 -0.2318 -0.2554  0.0672
 7857W        W10057  16.996   5.616  11.383  0.1313  0.1417  0.1303
 7858W        W10058   4.313   6.019  29.892  0.1873 -0.2632  0.1124
 7859W        W10059  13.907   0.843   0.666  0.0665  0.1279  0.0925
 7860W        W10060  19.963   6.346  29.046 -0.0188  0.2637 -0.2609
 7861W        W10061   1.359   0.634   0.806  0.1986 -0.3934  0.2355
 7862W        W10062  22.180   7.412   6.913  0.0918 -0.0776 -0.2579
 7863W        W10063   2.283   4.442   8.928 -0.3237  0.0111 -0.0146
 7864W        W10064  23.663   2.954   1.939 -0.0308 -0.2084  0.0479
 7865W        W10065  21.425   7.186  26.126  0.0360 -0.0212 -0.2410
 7866W        W10066   0.098   0.709  26.865  0.1815  0.0658  0.1490
 7867W        W10067   6.507   4.116  31.369  0.0703 -0.2449 -0.1002
 7868W        W10068   7.207   1.998  19.341 -0.0092 -0.0150 -0.1136
 7869W        W10069  14.599   1.022   2.894 -0.2326  0.0572 -0.2847
 7870W        W10070  21.247   1.559  32.027  0.0019  0.0643 -0.0542
 7871W        W10071  17.361   6.497   4.413  0.1364 -0.2392  0.1321
 7872W        W10072  23.274   6.970   0.763  0.0688 -0.1753 -0.0972
 7873W        W10073  10.664   5.570   6.816  0.1514  0.0133  0.1197
 7874W        W10074  14.944   4.535   7.572 -0.2535 -0.4314  0.1804
 7875W        W10075   7.008   5.323  20.201 -0.1127 -0.0581 -0.0502
 7876W        W10076   7.171   0.987  21.971 -0.0395  0.1463 -0.2253
 7877W        W10077  14.171   6.327   3.637 -0.2025 -0.0100  0.2868
 7878W        W10078   6.816   2.627  17.945  0.0374 -0.2615 -0.1878
 7879W        W10079  20.937   3.874   1.124 -0.0231  0.0963 -0.2733
 7880W        W10080   5.840   0.031  25.454  0.4289 -0.1032 -0.1099
 7881W        W10081  12.019   2.585  31.434 -0.0020 -0.2025  0.0735
 7882W        W10082   2.004   2.053   5.147 -0.2124 -0.1194  0.0275
 7883W        W10083   7.629   0.694  29.811  0.0486  0.1853  0.0028
 7884W        W10084  16.760   4.903   3.390 -0.2169 -0.0664 -0.0707
 7885W        W10085  22.202   4.555   4.418 -0.0841 -0.1327  0.3339
 7886W        W10086  25.057   7.381  31.832  0.1956 -0.1839  0.0800
 7887W        W10087  20.668   4.887  17.886  0.3562 -0.0899 -0.4380
 7888W        W10088  20.167   7.094  14.283 -0.0346 -0.0854  0.0315
 7889W        W10089  18.539   6.228   5.389  0.0224  0.1538  0.2496
 7890W        W10090   6.955   1.281   2.386 -0.0186  0.0260  0.2217
 7891W        W10091  16.392   3.967  31.301  0.1186 -0.5195  0.0047
 7892W        W10092   9.659   3.009  10.636  0.1637 -0.4272  0.0545
 7893W        W10093  23.754   6.604   4.044  0.0889  0.1280  0.0410
 7894W        W10094  18.073   3.827  23.530 -0.0847  0.2369  0.0526
 7895W        W10095   7.946   5.682  20.093  0.1130 -0.1859 -0.0971
 7896W        W10096  20.803   3.802  31.050  0.0452 -0.2763  0.0730
 7897W        W10097  11.361   2.369  27.740  0.1087 -0.1873  0.0265
 7898W        W10098  15.152   0.309  23.312  0.0019  0.0338  0.1916
 7899W        W10099  14.853   7.777  27.918 -0.0183  0.0329 -0.0369
 7900W        W10100   0.854   3.030   4.995  0.0765 -0.1508  0.0143
 7901W        W10101   1.791   2.781  24.766 -0.0633  0.0424  0.3599
 7902W        W10102  22.553   1.100   1.064  0.3225 -0.2355  0.0852
 7903W        W10103   2.744   3.106   3.736  0.1950 -0.2228 -0.1567
 7904W        W10104   2.171   1.014  27.438 -0.2043  0.1201 -0.2563
 7905W        W10105   7.030   4.099  19.189 -0.0004  0.1469 -0.0761
 7906W        W10106  17.345   5.541   2.097 -0.0352 -0.0322 -0.0460
 7907W        W10107  23.446   2.372  31.784 -0.2249  0.3883  0.0277
 7908W        W10108  18.033   2.776  15.362 -0.0005  0.0257  0.4858
 7909W        W10109   6.704   2.094  18.004 -0.0360 -0.4123  0.4171
 7910W        W10110   8.322   7.792  24.867  0.0239  0.1580 -0.0165
 7911W        W10111   5.220   2.446  31.830  0.0730  0.0625  0.2059
 7912W        W10112  21.993   5.215  30.916  0.1498  0.0906  0.1641
 7913W        W10113  21.949   3.013  32.020 -0.0629  0.0029 -0.0177
 7914W        W10114   0.335   1.246   5.840 -0.2986  0.1690  0.0165
 7915W        W10115   9.861   0.500  21.340  0.1690 -0.0661  0.3979
 7916W        W10116   2.604   1.128   2.158  0.1475 -0.0660  0.2383
 7917W        W10117  25.126   0.308  21.378 -0.0227 -0.0344  0.0729
 7918W        W10118   4.660   7.754   8.679 -0.1351 -0.0093 -0.1379
 7919W        W10119   5.573   4.488  31.807 -0.2331  0.1017  0.0623
 7920W        W10120   0.295   3.124  20.751 -0.0094 -0.1690 -0.3381
 7921W        W10121  21.052   3.633   7.926 -0.1366  0.1361 -0.3778
 7922W        W10122  17.300   5.891  11.105 -0.3404  0.0892  0.0638
 7923W        W10123  17.595   0.682  26.079 -0.3050 -0.1908 -0.0557
 7924W        W10124   3.162   2.929  28.445  0.0685 -0.3004 -0.1032
 7925W        W10125  16.569   6.261  22.519 -0.0709  0.1715 -0.2690
 7926W        W10126  16.056   0.321   1.705 -0.1751  0.0527 -0.1148
 7927W        W10127  12.545   5.556  27.888 -0.0507  0.1245  0.1651
 7928W        W10128  11.299   5.619  18.128  0.2305 -0.1602 -0.1904
 7929W        W10129  20.286   2.338   4.361 -0.0408 -0.0046 -0.2594
 7930W        W10130   4.620   3.809   2.913 -0.0309  0.0328 -0.1645
 7931W        W10131   2.817   6.774  20.892  0.0697  0.1470  0.2118
 7932W        W10132  15.636   5.817  11.704 -0.2032  0.0147  0.1612
 7933W        W10133   6.081   2.433   5.851  0.0161 -0.2584  0.1557
 7934W        W10134  12.174   2.253  22.787 -0.0922 -0.0870  0.0657
 7935W        W10135   7.546   1.468  14.398  0.3673 -0.1641  0.0202
 7936W        W10136  15.036   2.732  22.727  0.1460 -0.0242  0.0122
 7937W        W10137  17.328   6.636   8.014  0.1738  0.2401 -0.0143
 7938W        W10138  24.956   1.407   9.829  0.0535  0.0689  0.0661
 7939W        W10139  11.285   7.805  17.964 -0.0140 -0.2210 -0.0731
 7940W        W10140  18.980   3.586  24.297  0.0260  0.1068 -0.0420
 7941W        W10141  16.322   1.176  26.990  0.0736 -0.0154  0.2183
 7942W        W10142   3.417   5.886  17.988  0.1785 -0.0183 -0.0002
 7943W        W10143  13.213   5.942  31.087 -0.1670  0.2962 -0.3219
 7944W        W10144  22.182   3.354  32.306 -0.2257  0.0494  0.0261
 7945W        W10145  18.904   1.537  12.034 -0.2506 -0.2118  0.2815
 7946W        W10146  15.690   5.287   6.654 -0.0899  0.2085  0.0651
 7947W        W10147  22.032   4.244  26.858 -0.0314  0.1121 -0.1586
 7948W        W10148  15.590   5.445   3.238  0.0775 -0.1175 -0.1775
 7949W        W10149   2.092   5.558  31.004 -0.0558 -0.0849  0.0610
 7950W        W10150  19.202   3.454  25.114  0.0613  0.3798 -0.1411
 7951W        W10151  16.182   4.652   5.107 -0.3019  0.2226 -0.1671
 7952W        W10152   6.497   3.394   0.065  0.1528 -0.0232  0.0267
 7953W        W10153  17.625   6.293  29.951 -0.0240  0.0991  0.0139
 7954W        W10154  16.046   6.756   4.943  0.0458 -0.2564  0.4559
 7955W        W10155   8.447   1.228  31.937 -0.1976  0.3408 -0.0432
 7956W        W10156   7.495   7.329   1.643  0.0715 -0.0790  0.2448
 7957W        W10157   9.563   3.052   7.249 -0.1405 -0.0995  0.1371
 7958W        W10158   6.238   0.188   5.640  0.4898  0.1648  0.3270
 7959W        W10159  18.432   7.549  31.809 -0.0255 -0.1531  0.0018
 7960W        W10160  21.285   6.647  31.497  0.2141  0.0968 -0.2034
 7961W        W10161  10.865   2.989  17.876 -0.0446  0.1379 -0.0108
 7962W        W10162  14.651   1.037  11.510  0.1092 -0.1054 -0.1871
 7963W        W10163   3.875   7.766  30.647  0.0737  0.0303 -0.2207
 7964W        W10164  12.657   1.501  12.982 -0.1453  0.2240 -0.1476
 7965W        W10165  17.391   1.526  27.128  0.1677  0.2265  0.0953
 7966W        W10166  11.009   3.958  21.839  0.1669 -0.0687  0.1254
 7967W        W10167   8.343   7.822   9.629 -0.0101 -0.0101  0.1680
 7968W        W10168  16.745   1.149  23.818 -0.2903 -0.0484  0.0524
 7969W        W10169  17.645   5.485  25.812  0.1252 -0.1873  0.1274
 7970W        W10170  19.596   0.098  13.173 -0.1818 -0.0680 -0.1680
 7971W        W10171  16.326   0.164  24.448 -0.0166 -0.3353 -0.4045
 7972W        W10172  16.409   4.351  14.998  0.2108 -0.1835 -0.3203
 7973W        W10173   6.049   5.452  24.055  0.1161  0.0203  0.0393
 7974W        W10174   6.753   1.359  16.386  0.2305  0.0069  0.0040
 7975W        W10175  15.710   3.686   5.714 -0.2003 -0.1283 -0.2375
 7976W        W10176  17.637   3.383   9.869 -0.2466  0.0636  0.0329
 7977W        W10177  11.704   1.458   4.889  0.0644  0.0586  0.1812
 7978W        W10178  13.588   6.062  21.420 -0.3248 -0.0532 -0.0693
 7979W        W10179  15.055   4.692   6.267  0.2486  0.0711 -0.1747
 7980W        W10180   4.025   0.833   2.816  0.2164  0.0450 -0.0304
 7981W        W10181  10.063   6.149  32.069  0.3986 -0.0033  0.1202
 7982W        W10182  20.512   1.204  31.891  0.1463  0.0682  0.4304
 7983W        W10183   7.783   1.342  18.983  0.1399  0.1210  0.0077
 7984W        W10184  16.890   6.725  23.601  0.0076  0.2527  0.0007
 7985W        W10185   2.835   6.407  25.459  0.3556 -0.0753 -0.2731
 7986W        W10186  12.742   1.316   9.955  0.1455  0.2805 -0.2152
 7987W        W10187   5.081   2.444   4.844 -0.2215  0.1144 -0.0172
 7988W        W10188   5.188   0.489  28.164  0.1491 -0.0597  0.0237
 7989W        W10189  12.964   2.572   1.038  0.2068  0.0652 -0.1466
 7990W        W10190  21.293   7.086  22.513 -0.1656 -0.2169  0.1042
 7991W        W10191   8.740   3.906  24.709 -0.1761  0.0189  0.1028
 7992W        W10192   4.998   5.661   4.605  0.1639 -0.1537 -0.2209
 7993W        W10193  13.181   5.241  20.562 -0.1118 -0.3071  0.0068
 7994W        W10194  23.130   1.384   6.037  0.1923  0.0610  0.2014
 7995W        W10195  20.663   7.136  13.133 -0.1286 -0.0552  0.1359
 7996W        W10196   7.662   6.205  15.153  0.0360 -0.3406 -0.0018
 7997W        W10197  15.534   1.551   9.520  0.2675  0.1784  0.2004
 7998W        W10198  11.534   3.599  19.996  0.1175  0.0106  0.1332
 7999W        W10199  15.078   3.576   5.011  0.0396  0.2527 -0.3186
 8000W        W10200   2.500   0.257   0.090  0.1074 -0.1921  0.1338
 8001W        W10201  21.384   6.809  12.507  0.2348  0.2013  0.2351
 8002W        W10202  11.302   6.551  23.178 -0.3809  0.2387 -0.1511
 8003W        W10203  21.588   0.699   5.414  0.5014 -0.0960 -0.2035
 8004W        W10204  13.088   2.648   4.580  0.1540 -0.0895 -0.1459
 8005W        W10205  22.355   6.484  31.330 -0.1831  0.1010 -0.0897
 8006W        W10206  10.813   0.462   8.400  0.2944 -0.2096  0.1090
 8007W        W10207   3.662   3.935   1.448 -0.0499  0.2670 -0.3975
 8008W        W10208   6.464   0.565   5.344  0.0110 -0.3613  0.1859
 8009W        W10209   7.332   0.384  26.843 -0.0531  0.3252 -0.1626
 8010W        W10210   8.335   2.110   0.303 -0.0450  0.1287  0.2395
 8011W        W10211  11.016   1.961  32.478 -0.1633 -0.0169  0.1651
 8012W        W10212  12.407   5.452  20.037 -0.0067  0.1030  0.0912
 8013W        W10213   1.568   7.025   7.413  0.1042  0.0714  0.0033
 8014W        W10214  19.800   3.659  17.093  0.3336  0.0551  0.5600
 8015W        W10215  18.978   0.381  15.187 -0.3511 -0.1090 -0.0783
 8016W        W10216  14.822   3.345  24.361 -0.1484  0.0841  0.4345
 8017W        W10217  17.859   3.346   2.477  0.2275  0.2059  0.2951
 8018W        W10218   2.189   5.078  20.143  0.1262 -0.1366 -0.0287
 8019W        W10219  24.942   5.424   7.169 -0.6891  0.2075  0.0632
 8020W        W10220   9.265   3.082  31.341 -0.2404  0.1015  0.1886
 8021W        W10221  24.827   1.590  12.887 -0.2621  0.1333  0.1559
 8022W        W10222   3.127   1.494  24.854 -0.1900  0.3131 -0.1060
 8023W        W10223  20.387   2.809   2.741  0.0914  0.2667  0.0345
 8024W        W10224  22.608   2.503  29.598 -0.0384 -0.0974  0.1693
 8025W        W10225  12.177   7.019  29.699 -0.3158 -0.0320  0.0217
 8026W        W10226   8.189   5.451   0.648 -0.0201  0.1892  0.2572
 8027W        W10227  19.192   2.895   5.009  0.0365  0.1773 -0.0410
 8028W        W10228  16.291   5.979  28.785  0.2267 -0.1078  0.2494
 8029W        W10229   6.175   6.598  18.842 -0.0164  0.0301  0.1355
 8030W        W10230  23.761   3.020   6.486  0.2384 -0.0226 -0.1291
 8031W        W10231   6.066   0.510  15.547 -0.1594  0.0985  0.2077
 8032W        W10232   8.921   2.375  19.220  0.0085 -0.0880  0.3245
 8033W        W10233   4.069   5.759  28.365  0.1173 -0.0418 -0.2295
 8034W        W10234   1.875   5.479   1.738  0.1667  0.0132 -0.0848
 8035W        W10235   4.104   3.949  24.596  0.2433 -0.2182 -0.2224
 8036W        W10236   7.949   4.258  17.469  0.2065  0.0701  0.0411
 8037W        W10237   0.160   7.777   1.025  0.2394  0.0413  0.2890
 8038W        W10238  19.544   0.437  16.170  0.2539 -0.2761  0.1981
 8039W        W10239   6.639   2.093  31.202  0.1652  0.4719 -0.0584
 8040W        W10240   7.280   7.798   7.289 -0.0138 -0.1636 -0.3690
 8041W        W10241  17.588   0.014   9.149  0.1715 -0.0216 -0.0319
 8042W        W10242   8.470   2.956  26.570 -0.0204  0.2912  0.0675
 8043W        W10243  23.493   2.624   2.357 -0.1175 -0.0194 -0.2259
 8044W        W10244   1.027   5.127  19.907  0.1255  0.1024  0.0226
 8045W        W10245   1.189   2.232  31.456  0.0066 -0.1856  0.1408
 8046W        W10246  12.010   0.999  11.974 -0.0589  0.3759 -0.0187
 8047W        W10247  20.847   5.913   1.006  0.4344 -0.1155 -0.1430
 8048W        W10248   5.115   3.920  30.245  0.0140  0.0174  0.0635
 8049W        W10249   0.485   2.952  27.059  0.1033  0.0710 -0.0472
 8050W        W10250  13.651   4.152  26.559 -0.1629 -0.2535 -0.2447
 8051W        W10251  13.495   5.464  30.953  0.1662 -0.0175 -0.0349
 8052W        W10252   0.022   2.025  10.558 -0.1700 -0.1199 -0.1293
 8053W        W10253   9.740   0.239  31.925  0.0903 -0.0922 -0.0078
 8054W        W10254  13.197   7.420   0.992 -0.1988 -0.0510  0.0385
 8055W        W10255  17.036   1.300  29.500 -0.0296  0.0320  0.3124
 8056W        W10256   6.732   7.525  17.521  0.0336 -0.1997  0.1166
 8057W        W10257  12.587   3.091  22.064 -0.3198 -0.1833  0.4981
 8058W        W10258  18.088   5.983  17.617 -0.0054  0.1333 -0.1139
 8059W        W10259  24.812   6.988  23.021  0.0572  0.0167  0.0448
 8060W        W10260  19.507   2.576  31.342  0.1179  0.1596 -0.2358
 8061W        W10261  18.608   1.846   7.635 -0.2021  0.0624  0.0040
 8062W        W10262  21.466   6.757   8.908  0.3184 -0.0496 -0.1354
 8063W        W10263   8.093   4.683  16.629 -0.1636  0.1206 -0.2500
 8064W        W10264  18.787   7.482   4.837  0.0206 -0.0239  0.0353
 8065W        W10265  18.669   0.454   0.674 -0.2575 -0.0551  0.2479
 8066W        W10266  23.307   2.632  13.218  0.0507 -0.0675  0.1644
 8067W        W10267  11.090   0.694  29.600  0.0341 -0.1727 -0.2919
 8068W        W10268  19.447   2.287   2.748 -0.1804 -0.1989 -0.0327
 8069W        W10269   6.092   0.211   5.109  0.0257 -0.2183  0.2266
 8070W        W10270  18.770   2.146  28.633  0.2424  0.2473 -0.0252
 8071W        W10271  15.724   3.025  13.696  0.1242 -0.0984  0.1345
 8072W        W10272  25.018   1.389   1.500  0.0029  0.0322 -0.0492
 8073W        W10273   2.286   5.761  24.213 -0.0363  0.0937  0.1221
 8074W        W10274  24.284   3.627  21.445 -0.1341  0.0099  0.0196
 8075W        W10275   2.689   2.044   8.951  0.0470  0.1209 -0.0273
 8076W        W10276   4.652   5.076   4.052  0.1694  0.0382  0.1803
 8077W        W10277  14.980   0.578   3.824 -0.0815 -0.0870  0.1516
 8078W        W10278   7.114   0.324   1.164 -0.1436 -0.0415  0.0166
 8079W        W10279   6.882   4.468   5.245 -0.0350  0.1170 -0.3642
 8080W        W10280  23.016   5.908  32.216 -0.1381 -0.2089  0.1185
 8081W        W10281  24.023   6.040  23.586  0.1543  0.1564  0.1212
 8082W        W10282   2.958   2.924   4.570  0.2151  0.1043 -0.2911
 8083W        W10283   2.603   7.224  10.549  0.1283 -0.1569 -0.0968
 8084W        W10284   6.910   7.296  10.173  0.3598 -0.3607 -0.1279
 8085W        W10285   5.469   2.162   6.893  0.0831 -0.1775  0.0860
 8086W        W10286   3.252   0.751  23.569 -0.0505  0.1248  0.0823
 8087W        W10287  24.015   6.532   6.969  0.2165 -0.2048 -0.1090
 8088W        W10288   4.660   5.177  28.834  0.1366 -0.1907 -0.0957
 8089W        W10289   8.539   0.338  23.960 -0.0149  0.0876  0.3826
 8090W        W10290  18.183   3.420  25.371 -0.2437  0.1541  0.0060
 8091W        W10291  11.720   4.700  25.274  0.1481 -0.1567  0.1192
 8092W        W10292   0.261   6.092  29.717 -0.0833  0.4960  0.1070
 8093W        W10293   5.956   7.163  30.896  0.2426  0.0316 -0.2566
 8094W        W10294  10.109   6.730  22.949 -0.2811 -0.2225 -0.0029
 8095W        W10295   1.828   3.038   6.929 -0.1767 -0.5450 -0.1242
 8096W        W10296   7.247   5.676  21.798 -0.0163  0.1438 -0.0038
 8097W        W10297  10.936   5.966   7.997  0.0386 -0.2949  0.0270
 8098W        W10298  17.242   5.970  16.614  0.1784  0.2406  0.1901
 8099W        W10299  20.439   2.959  17.168 -0.2273 -0.1959 -0.3087
 8100W        W10300   4.858   4.673  23.043 -0.0209  0.0651  0.0242
 8101W        W10301  19.339   7.416   3.009  0.0653  0.1082  0.2946
 8102W        W10302  25.001   3.910   7.050  0.1730 -0.1613  0.1304
 8103W        W10303  23.764   4.059   1.716  0.1574 -0.0608 -0.1742
 8104W        W10304   2.633   5.774  22.628 -0.2310  0.1766 -0.2432
 8105W        W10305   9.196   3.753  24.628 -0.0871  0.1963 -0.0872
 8106W        W10306   6.730   3.529  26.458  0.0932  0.3091 -0.1015
 8107W        W10307  22.889   6.342   8.259  0.1768  0.3412  0.0415
 8108W        W10308  17.250   4.726  13.175  0.0070 -0.2989 -0.2481
 8109W        W10309  12.046   4.909   9.170  0.1464  0.3276  0.2048
 8110W        W10310   0.554   1.873   9.934  0.0209  0.3356 -0.1687
 8111W        W10311  24.749   2.530  22.940  0.1705 -0.1463 -0.0845
 8112W        W10312   0.251   3.021   4.294  0.3035 -0.3516 -0.1060
 8113W        W10313  16.443   1.512  31.980 -0.2034 -0.1049 -0.0991
 8114W        W10314   8.107   0.054  29.532  0.0462 -0.1830  0.0680
 8115W        W10315   5.623   7.050  21.638 -0.0867 -0.0683 -0.0825
 8116W        W10316   0.308   0.217  22.646  0.0534 -0.1220 -0.1174
 8117W        W10317  19.263   1.774  13.399  0.2418 -0.0830 -0.1033
 8118W        W10318  15.874   5.326  26.263  0.0544 -0.0353  0.3225
 8119W        W10319  22.585   3.816  28.148 -0.3521  0.1853 -0.1022
 8120W        W10320  25.126   4.809  20.399  0.1200  0.0355 -0.1899
 8121W        W10321  16.768   1.039  27.136 -0.0539  0.1333  0.5348
 8122W        W10322  22.764   0.234  22.992  0.1945 -0.1969  0.2119
 8123W        W10323  23.476   3.774   5.454  0.0990  0.0844 -0.0766
 8124W        W10324   7.393   3.321   4.635 -0.1921  0.1033 -0.0837
 8125W        W10325  19.764   4.983  12.811  0.0146  0.2887  0.2069
 8126W        W10326   5.352   1.156  16.880 -0.2574 -0.1290  0.2490
 8127W        W10327  16.889   5.977  29.389 -0.2785  0.2256  0.0105
 8128W        W10328  16.736   3.535   1.664 -0.3581  0.1830 -0.3086
 8129W        W10329  18.616   6.781   2.069 -0.0623 -0.3753 -0.0644
 8130W        W10330  11.473   0.131   0.603  0.0555 -0.0293  0.1525
 8131W        W10331   5.644   6.353  19.989 -0.0263  0.0699 -0.0973
 8132W        W10332   1.166   6.975  20.154 -0.0771  0.0417  0.1851
 8133W        W10333  18.138   0.273   9.367  0.1449 -0.1328 -0.1372
 8134W        W10334   6.060   1.523  15.882  0.2199  0.0531 -0.1134
 8135W        W10335  12.621   0.484  28.872  0.1072 -0.0968  0.0973
 8136W        W10336   0.471   0.855   2.109 -0.1319 -0.1891  0.0775
 8137W        W10337  21.580   4.319   2.267  0.2818 -0.0983 -0.1976
 8138W        W10338  23.950   1.873  28.193 -0.1949 -0.3815  0.0318
 8139W        W10339  24.596   6.096  30.800  0.2425  0.2777 -0.0992
 8140W        W10340  21.945   1.409  28.193  0.0210 -0.0128 -0.4648
 8141W        W10341  16.778   6.937  13.025  0.0185 -0.1958  0.1173
 8142W        W10342  21.603   6.759   5.310  0.1059  0.1422  0.0434
 8143W        W10343   0.536   6.615   7.931  0.0709  0.1931  0.3254
 8144W        W10344  10.758   4.010  22.293  0.1831 -0.0898  0.1021
 8145W        W10345   6.128   7.386   2.500  0.0319 -0.1710 -0.0998
 8146W        W10346  16.293   1.614  22.359 -0.2296  0.0758 -0.2181
 8147W        W10347  18.410   6.163  28.046  0.0987 -0.0881  0.0410
 8148W        W10348  12.810   4.204   9.264  0.0458 -0.0487 -0.1365
 8149W        W10349   9.216   4.588   5.078  0.0969 -0.2343  0.0054
 8150W        W10350   5.521   1.552  24.752  0.0560 -0.1885 -0.1621
 8151W        W10351   1.502   0.413  18.766 -0.3671 -0.0535 -0.1839
 8152W        W10352   8.181   7.635   0.236 -0.0194 -0.2046 -0.0507
 8153W        W10353  15.093   3.623  14.915 -0.0297  0.0257  0.1958
 8154W        W10354  15.260   2.087  29.607  0.1224  0.1582 -0.0566
 8155W        W10355   3.303   0.270  18.694  0.0699  0.2673 -0.0488
 8156W        W10356   9.905   7.235   1.445  0.0427 -0.0473 -0.1191
 8157W        W10357  18.894   0.614  28.804  0.1930  0.1502  0.1003
 8158W        W10358  23.111   6.538   0.995 -0.3241 -0.0107 -0.1973
 8159W        W10359  15.969   7.509  22.375  0.2128  0.1176 -0.0571
 8160W        W10360   9.288   7.066   9.313 -0.1721  0.0926  0.1004
 8161W        W10361  19.082   5.506  18.644 -0.0736 -0.3835  0.2559
 8162W        W10362  19.937   1.081  30.513 -0.1679  0.2164  0.0423
 8163W        W10363  11.889   5.570  26.777  0.0818 -0.1185  0.0957
 8164W        W10364   9.949   6.137   3.223  0.0724  0.0974 -0.0815
 8165W        W10365  15.348   2.694  15.199 -0.1638  0.0132  0.0987
 8166W        W10366   8.017   6.308  21.600  0.3130  0.0590 -0.1169
 8167W        W10367  18.666   6.472   4.929  0.1942  0.1926 -0.0852
 8168W        W10368   6.854   7.568  15.496 -0.3734 -0.1222  0.1903
 8169W        W10369  11.090   0.884  21.321 -0.1689 -0.0235  0.0476
 8170W        W10370  25.103   0.293  19.700 -0.0374 -0.0338 -0.1316
 8171W        W10371   7.109   7.086   5.468 -0.1130  0.0088  0.1162
 8172W        W10372  24.582   3.355   1.466  0.1390 -0.0513  0.3039
 8173W        W10373  19.633   6.089   7.018  0.1661 -0.0396 -0.1806
 8174W        W10374   0.142   1.126   4.833  0.0568  0.0145 -0.0185
 8175W        W10375   4.904   5.482  22.134  0.2258 -0.2903 -0.3319
 8176W        W10376   9.101   5.223  23.056  0.2461  0.3904  0.1877
 8177W        W10377   9.727   2.424  29.069  0.0549 -0.4304  0.2999
 8178W        W10378   9.572   7.806   2.795  0.1372  0.0955 -0.0061
 8179W        W10379   0.309   3.704  31.199 -0.0336  0.2832  0.1674
 8180W        W10380   8.294   2.018  28.355  0.0938 -0.1520 -0.1494
 8181W        W10381  18.178   2.927  23.321 -0.1982  0.0845 -0.0213
 8182W        W10382   5.349   0.438  15.697  0.3821 -0.0858 -0.0396
 8183W        W10383   9.885   7.155  29.562 -0.4189  0.1270 -0.0817
 8184W        W10384  22.808   3.915   5.994  0.2778  0.3052  0.0164
 8185W        W10385  24.798   1.158  27.491 -0.1906  0.2642  0.3198
 8186W        W10386  17.481   1.448   4.688  0.1301  0.0524  0.0961
 8187W        W10387  23.079   1.056  23.383 -0.0058 -0.0503  0.0256
 8188W        W10388   5.849   1.265   8.805 -0.0848  0.0539 -0.0456
 8189W        W10389  16.198   7.155   9.345  0.1622  0.0250  0.2247
 8190W        W10390   7.072   4.289  23.777  0.2890  0.0354  0.0758
 8191W        W10391  16.229   4.640   0.806 -0.1647  0.1352 -0.2083
 8192W        W10392   6.733   0.591  29.556  0.0822 -0.0147  0.0091
 8193W        W10393   0.905   3.197  20.063  0.3208  0.0863  0.1505
 8194W        W10394   0.945   4.310   3.529  0.2262  0.3863  0.1181
 8195W        W10395  21.984   1.903  15.629 -0.0476 -0.2804 -0.0816
 8196W        W10396  15.017   4.555  13.940 -0.2453  0.0655  0.4169
 8197W        W10397   0.422   2.910  32.516  0.1515  0.0375  0.0489
 8198W        W10398  23.306   7.564  14.062  0.1521  0.1609 -0.0724
 8199W        W10399   7.960   2.336  22.165  0.0489 -0.0600 -0.0275
 8200W        W10400   1.268   7.651  28.599  0.2807 -0.2007 -0.2478
 8201W        W10401  24.906   7.710   3.925  0.2921 -0.0351 -0.0439
 8202W        W10402   7.531   2.836  16.677  0.1431 -0.0252 -0.0061
 8203W        W10403  17.211   3.916  28.377  0.0022 -0.0659 -0.0247
 8204W        W10404   2.330   1.286   6.646  0.0689  0.1860  0.4657
 8205W        W10405   7.972   0.955  28.043  0.3875  0.0341  0.2475
 8206W        W10406  21.539   3.796  29.823 -0.4763 -0.0198 -0.1471
 8207W        W10407  23.608   4.389  13.470  0.0156  0.3833  0.0735
 8208W        W10408   4.099   3.768  10.129  0.0644  0.3231  0.1838
 8209W        W10409   7.838   4.500   4.189 -0.2014  0.2757 -0.0084
 8210W        W10410  24.504   0.768  12.318 -0.0368  0.0083  0.0917
 8211W        W10411  18.792   4.183  12.370 -0.1873  0.2120  0.1652
 8212W        W10412  20.987   1.431   0.441  0.0137 -0.0654 -0.2480
 8213W        W10413  15.321   4.479   8.981 -0.0596 -0.2732  0.2029
 8214W        W10414  12.924   3.226   9.603  0.0046 -0.0014 -0.1892
 8215W        W10415   2.008   5.737   7.334  0.2632 -0.2276  0.2176
 8216W        W10416  12.657   2.951   0.946 -0.0753  0.2361  0.2874
 8217W        W10417   6.418   4.403   9.921  0.5685 -0.0021  0.1828
 8218W        W10418  12.240   6.783  19.386 -0.1421 -0.1379  0.2276
 8219W        W10419   6.513   3.947   6.557 -0.2391  0.0500 -0.1642
 8220W        W10420  19.792   3.617  29.721 -0.1615  0.0248 -0.1019
 8221W        W10421  17.290   2.314  31.839  0.2257 -0.1402  0.0995
 8222W        W10422  22.135   7.748  27.134  0.0997  0.4577 -0.2567
 8223W        W10423  18.792   1.101   2.075  0.1100 -0.0128  0.1096
 8224W        W10424  15.517   1.946   7.506  0.1020 -0.2757 -0.3273
 8225W        W10425  21.987   7.424  23.163 -0.1952  0.0497  0.4675
 8226W        W10426   2.806   3.302  20.638  0.2064  0.3185  0.0066
 8227W        W10427  23.727   6.608   0.050  0.0769 -0.1420  0.0578
 8228W        W10428  15.376   1.304   8.568 -0.0095  0.2047  0.1254
 8229W        W10429   2.002   6.100  31.751 -0.3020  0.1694  0.0539
 8230W        W10430   3.089   3.574  26.091 -0.2358  0.0157  0.1218
 8231W        W10431  11.308   3.329  18.559  0.1886 -0.0471  0.3854
 8232W        W10432  18.727   4.426  25.744  0.0859  0.1860 -0.3540
 8233W        W10433  21.438   7.571  28.858  0.1381 -0.1039 -0.4290
 8234W        W10434  11.297   5.381   8.784  0.1672 -0.1400  0.0585
 8235W        W10435  23.983   4.381   3.542  0.2623 -0.1704 -0.0092
 8236W        W10436   0.198   5.613  22.376  0.3848  0.0505  0.0079
 8237W        W10437   2.348   7.736  22.751 -0.0322  0.1343  0.0102
 8238W        W10438  10.755   7.525  22.199 -0.0447 -0.2695  0.0209
 8239W        W10439   7.512   5.976   8.722 -0.3067 -0.0704 -0.1287
 8240W        W10440  22.282   7.342   2.058 -0.1111  0.1337  0.5400
 8241W        W10441  22.437   1.735  13.231 -0.1118  0.0284 -0.1093
 8242W        W10442  11.375   2.679  18.208  0.0264 -0.2300  0.0264
 8243W        W10443  22.909   4.239   7.875  0.1624  0.0308  0.0163
 8244W        W10444   3.842   6.068  22.307 -0.0763  0.0545  0.3523
 8245W        W10445  17.552   4.231   9.081 -0.0893 -0.0208 -0.0592
 8246W        W10446   6.880   5.866   9.534  0.1760 -0.0606 -0.0185
 8247W        W10447   3.227   3.629   1.312  0.3917  0.2422 -0.1738
 8248W        W10448   2.005   0.352  28.984 -0.0043 -0.1217  0.0512
 8249W        W10449   5.278   7.784  17.990 -0.1316  0.2302  0.0759
 8250W        W10450  20.857   0.433  28.443 -0.3100 -0.0914 -0.4552
 8251W        W10451  17.815   7.077  23.955  0.0156 -0.0363 -0.0599
 8252W        W10452   4.742   4.521  10.013  0.1338  0.2720  0.3488
 8253W        W10453   0.488   4.442  28.678  0.2507  0.1153 -0.1400
 8254W        W10454   0.340   7.646   7.088  0.1602 -0.2267 -0.1613
 8255W        W10455   2.516   4.805   7.270  0.1154  0.2560  0.0902
 8256W        W10456  16.905   6.441  16.609 -0.1325 -0.1484  0.1658
 8257W        W10457   4.218   7.712   3.106  0.2639 -0.0078  0.2258
 8258W        W10458  19.341   7.813  16.355  0.0407  0.0285  0.0888
 8259W        W10459  13.524   2.939  10.471 -0.1866  0.2391 -0.0072
 8260W        W10460  12.343   3.560  29.648 -0.0765 -0.1931 -0.0029
 8261W        W10461   7.552   0.769  19.655  0.0121  0.0109 -0.1150
 8262W        W10462  17.164   7.613   8.243 -0.0771  0.0464  0.4250
 8263W        W10463  23.049   2.000  24.181  0.3030  0.1797 -0.0957
 8264W        W10464  23.317   4.498  29.951 -0.2835  0.0369 -0.2993
 8265W        W10465   9.013   3.227  18.754 -0.0759 -0.1562 -0.2234
 8266W        W10466  11.527   0.552   5.004  0.0196 -0.2237 -0.1362
 8267W        W10467  13.756   2.247  28.016 -0.1194 -0.4901  0.0493
 8268W        W10468  13.882   7.403  23.234  0.2948  0.3299  0.3563
 8269W        W10469  22.773   4.087  22.760  0.4360  0.2766 -0.2264
 8270W        W10470  21.571   7.841  24.703  0.1352  0.3603 -0.0367
 8271W        W10471  19.531   5.446  15.418  0.1779  0.3324  0.3394
 8272W        W10472   0.294   7.027   8.765  0.1128 -0.0835 -0.0137
 8273W        W10473   3.997   1.922  24.416 -0.2161 -0.1164  0.3320
 8274W        W10474   6.946   6.822  19.966 -0.2593 -0.1826 -0.0647
 8275W        W10475   9.046   4.839   9.420  0.1590  0.2619 -0.0529
 8276W        W10476   1.099   6.162  24.656  0.2312 -0.1581  0.1498
 8277W        W10477  19.233   2.772   3.882  0.1250 -0.0228  0.1783
 8278W        W10478  20.186   3.920   5.956 -0.0479 -0.1567 -0.1299
 8279W        W10479  18.071   4.371   0.273 -0.0715  0.0461  0.2586
 8280W        W10480   2.379   4.302   7.897 -0.1494  0.1165 -0.0576
 8281W        W10481  15.621   3.431  26.179  0.4495 -0.4683 -0.0334
 8282W        W10482  13.448   5.898  22.238  0.2557  0.1231  0.1756
 8283W        W10483  16.380   4.608   4.596  0.0566 -0.3338 -0.2425
 8284W        W10484   3.373   6.238  10.292  0.2574 -0.1330  0.1433
 8285W        W10485  20.679   5.294  28.826 -0.0314 -0.2739  0.0708
 8286W        W10486   4.233   5.124   2.942  0.3637  0.2436  0.1469
 8287W        W10487  13.591   3.448  10.567 -0.0596  0.0429 -0.0965
 8288W        W10488  12.491   5.249  22.405 -0.0241 -0.4038  0.2771
 8289W        W10489  13.258   0.389   6.607 -0.1036 -0.0107  0.4425
 8290W        W10490   3.080   6.777   6.087  0.1760  0.0169 -0.1433
 8291W        W10491  23.647   1.879   5.810 -0.1559  0.3009 -0.2739
 8292W        W10492  16.759   2.591  28.576  0.1758 -0.0526  0.3491
 8293W        W10493  10.366   1.153  19.720  0.0136  0.0345 -0.0162
 8294W        W10494  23.421   6.975  24.763 -0.1687 -0.2124 -0.1298
 8295W        W10495   7.074   4.695   3.114  0.1704 -0.0350  0.0413
 8296W        W10496   1.967   1.463   8.364 -0.2745  0.1868  0.1056
 8297W        W10497  23.561   0.695  27.655  0.0097  0.0119  0.5357
 8298W        W10498  13.185   3.739  26.110  0.1882 -0.2659  0.0768
 8299W        W10499   4.778   3.877  28.757 -0.0375  0.0071  0.2200
 8300W        W10500   6.811   0.327  14.508  0.0070 -0.0433  0.0109
 8301W        W10501  21.936   6.179  11.407 -0.0902  0.0038  0.2706
 8302W        W10502   3.186   4.419  20.605 -0.1293 -0.1123  0.0705
 8303W        W10503   9.573   3.930   0.823 -0.0520  0.0145 -0.2458
 8304W        W10504   0.166   3.064   6.239 -0.0068  0.2081  0.2975
 8305W        W10505  15.997   4.174   0.605  0.0085  0.2786 -0.0718
 8306W        W10506  23.121   3.284   3.460 -0.0109  0.0308  0.1631
 8307W        W10507   8.805   7.529  16.072 -0.0583  0.1864 -0.0100
 8308W        W10508   7.790   1.323   8.829 -0.1162  0.0634 -0.0728
 8309W        W10509  12.114   6.453  24.215 -0.1635  0.0142  0.0459
 8310W        W10510  24.051   0.869   8.696 -0.0003  0.3390 -0.1395
 8311W        W10511   1.065   2.647  26.382  0.0651 -0.0629  0.0162
 8312W        W10512  17.374   2.471  26.626  0.3236 -0.1300 -0.1468
 8313W        W10513  21.040   5.480  14.040  0.0097 -0.0476  0.1157
 8314W        W10514  11.711   3.782  28.371  0.1790  0.0619  0.1380
 8315W        W10515   3.394   2.813  28.019  0.0587 -0.1500  0.2049
 8316W        W10516   8.670   3.627   5.374  0.2853 -0.0191  0.4234
 8317W        W10517  12.625   4.201  11.855 -0.2817  0.0265 -0.0268
 8318W        W10518   8.102   0.903  32.047  0.1716 -0.3301  0.1024
 8319W        W10519   3.042   1.057   7.801  0.0213 -0.0699 -0.2086
 8320W        W10520   0.145   2.095   6.468 -0.1227  0.1666  0.0005
 8321W        W10521  15.991   5.172   1.997 -0.0969  0.1331 -0.2884
 8322W        W10522   6.003   4.335  25.028 -0.3269 -0.0583  0.0260
 8323W        W10523  10.395   1.309   0.333 -0.0049 -0.1724 -0.2069
 8324W        W10524  10.090   2.612   4.818 -0.0603  0.0640  0.4218
 8325W        W10525  23.801   2.776   3.550 -0.0612  0.2778  0.0158
 8326W        W10526  15.606   4.814  22.787 -0.0439  0.2505  0.2368
 8327W        W10527  12.792   1.225  22.078 -0.2194  0.0643  0.1249
 8328W        W10528   3.798   3.062   0.578 -0.2076  0.3389 -0.0855
 8329W        W10529  12.026   1.567   6.897 -0.0860 -0.0752 -0.4037
 8330W        W10530  14.775   4.999  11.255  0.0678  0.0114 -0.0117
 8331W        W10531   2.833   6.211  17.891 -0.4006  0.2178  0.1003
 8332W        W10532  14.869   5.773   7.197 -0.0477  0.1445 -0.0282
 8333W        W10533   3.350   4.216  30.422 -0.1128  0.1119 -0.1614
 8334W        W10534  22.009   3.991   3.268 -0.1382  0.1098  0.2585
 8335W        W10535  12.909   2.495   0.580 -0.0967 -0.1435  0.1016
 8336W        W10536  23.361   3.529  30.067  0.1461  0.1381  0.1570
 8337W        W10537  16.838   4.440  26.281 -0.1238 -0.1008  0.1201
 8338W        W10538   8.943   5.077  26.142  0.1889  0.0785 -0.2216
 8339W        W10539   0.081   3.428  25.367 -0.2482  0.4742  0.0479
 8340W        W10540  22.823   0.832   7.814  0.0866 -0.0439  0.0309
 8341W        W10541  14.111   5.005   7.202  0.2488  0.0295 -0.2698
 8342W        W10542   3.010   6.648  19.739  0.0173 -0.0771 -0.2616
 8343W        W10543   5.401   7.404  16.637 -0.1226  0.2333 -0.1522
 8344W        W10544  11.013   1.182  25.741 -0.1375 -0.1046 -0.0181
 8345W        W10545   1.721   6.924  26.685  0.0116  0.0651  0.0510
 8346W        W10546  13.797   6.267  10.874 -0.2088  0.1363  0.0771
 8347W        W10547   3.365   7.552   6.029 -0.0437 -0.4447  0.1577
 8348W        W10548  10.764   2.960   5.463 -0.2225  0.1036 -0.0428
 8349W        W10549  20.584   2.314   4.780  0.1524 -0.0259 -0.1653
 8350W        W10550   9.556   3.466   0.745 -0.0877  0.1568 -0.0138
 8351W        W10551   6.539   4.383  16.300 -0.2385 -0.2723  0.2984
 8352W        W10552  24.326   5.709  23.386 -0.0021  0.1886  0.1514
 8353W        W10553  12.469   6.070  24.049  0.3481 -0.0476 -0.3636
 8354W        W10554   9.273   4.274   4.198 -0.1502  0.4432 -0.2642
 8355W        W10555  15.672   0.771  26.406  0.5638  0.1457  0.0377
 8356W        W10556  10.615   3.273   6.012 -0.0129 -0.2820 -0.0630
 8357W        W10557  12.033   3.347  29.252 -0.0727  0.0899 -0.1882
 8358W        W10558  21.858   2.347  26.841  0.1451  0.1283 -0.0852
 8359W        W10559  13.631   4.834  10.065  0.0123 -0.0805  0.0293
 8360W        W10560  19.227   6.700   0.130 -0.2244 -0.3782  0.2143
 8361W        W10561  20.724   1.268   9.944  0.0173  0.0987  0.2971
 8362W        W10562  16.326   6.620  13.001  0.0051 -0.1524 -0.2043
 8363W        W10563  11.937   1.103   6.620  0.3201 -0.0960  0.1341
 8364W        W10564   8.995   0.092  21.201  0.0060  0.3452  0.3156
 8365W        W10565   2.004   4.150   3.584  0.2451  0.2746 -0.2119
 8366W        W10566  19.610   7.014   5.440  0.0369 -0.1489  0.1455
 8367W        W10567   2.457   3.097  27.706 -0.4208 -0.0044  0.2060
 8368W        W10568   9.841   0.029  16.894  0.0857  0.1080 -0.0458
 8369W        W10569  24.662   4.996   2.514  0.0899 -0.0331 -0.3661
 8370W        W10570   3.948   1.608   2.158 -0.2665 -0.3112 -0.1793
 8371W        W10571   2.718   2.598   3.617  0.2501 -0.0436  0.0213
 8372W        W10572  12.127   2.219   9.644  0.0587 -0.0852  0.1145
 8373W        W10573   1.821   5.102  30.928  0.2849 -0.1216 -0.5275
 8374W        W10574  22.105   7.346   9.127  0.1448  0.1423 -0.4121
 8375W        W10575   3.459   6.184  23.862 -0.0185  0.0767  0.3392
 8376W        W10576   2.152   7.193  10.191  0.1165  0.2503 -0.0485
 8377W        W10577   6.221   3.193   4.096  0.0610 -0.0427 -0.0763
 8378W        W10578   4.325   5.196   0.861  0.3051 -0.0116  0.0112
 8379W        W10579  24.577   2.113  11.140  0.3000 -0.0360  0.0470
 8380W        W10580   8.118   0.294   5.240  0.0090  0.0717  0.2199
 8381W        W10581  21.926   5.299   3.751  0.0299  0.3370  0.1121
 8382W        W10582  23.568   7.586  23.558  0.1814  0.0390 -0.2050
 8383W        W10583  11.534   6.076  28.986 -0.0403  0.2749  0.3282
 8384W        W10584   7.726   6.491   6.053 -0.1479 -0.5182  0.7525
 8385W        W10585  12.801   4.986   2.452 -0.0799 -0.1868  0.3659
 8386W        W10586  18.167   6.631  25.213 -0.3218 -0.1278 -0.5760
 8387W        W10587  11.400   0.845  11.450 -0.0301 -0.0131 -0.0132
 8388W        W10588  22.564   5.552  15.005 -0.0639 -0.0993  0.2197
 8389W        W10589   6.746   3.645  31.589  0.2969  0.2027 -0.0442
 8390W        W10590  15.554   2.412  29.893 -0.0337  0.2951 -0.2772
 8391W        W10591  10.907   0.818   3.856  0.0369 -0.2405  0.0397
 8392W        W10592  23.538   2.563  28.673  0.2753 -0.2734 -0.0822
 8393W        W10593   7.391   3.037  31.855  0.0918 -0.1492  0.1306
 8394W        W10594  20.376   6.416  17.128  0.0033  0.1231 -0.0583
 8395W        W10595   1.328   5.175  26.770 -0.1292 -0.0090 -0.1525
 8396W        W10596   1.966   5.017   1.043 -0.0361  0.0104 -0.0125
 8397W        W10597   5.360   5.664  24.374 -0.0664 -0.2271 -0.0016
 8398W        W10598   0.871   6.710   8.894  0.1786  0.0982 -0.1706
 8399W        W10599  21.219   4.621  24.908  0.0351  0.1067  0.0858
 8400W        W10600  21.382   4.175   4.841  0.0596 -0.0210 -0.4063
 8401W        W10601  19.468   6.879  15.829 -0.0520  0.0865  0.3496
 8402W        W10602   9.316   1.263   1.897  0.0285 -0.2063  0.0901
 8403W        W10603   8.675   1.101  23.544 -0.0607  0.0496 -0.2232
 8404W        W10604   6.202   3.494  26.660 -0.4838  0.3098 -0.0496
 8405W        W10605  20.211   6.914  10.097  0.2302  0.2346 -0.2323
 8406W        W10606   6.651   1.184  21.957 -0.0578 -0.0134  0.1485
 8407W        W10607  18.560   0.968   6.064  0.0856  0.2237  0.2012
 8408W        W10608  15.383   1.465  13.005  0.1982 -0.0365  0.0181
 8409W        W10609   5.300   6.005   5.844 -0.2271  0.0436 -0.0369
 8410W        W10610  21.466   1.932  15.832  0.2074 -0.0365 -0.0045
 8411W        W10611  15.264   6.249  28.557  0.0389  0.1198  0.2239
 8412W        W10612   2.439   4.931  31.495  0.0975  0.1727 -0.0226
 8413W        W10613   2.654   5.602  11.586 -0.0327 -0.0982 -0.2594
 8414W        W10614  19.088   6.349  23.099  0.2136  0.0524 -0.3637
 8415W        W10615  16.763   5.463   0.555  0.1231  0.2570  0.1680
 8416W        W10616  21.249   0.531  16.086 -0.0570  0.0317  0.1184
 8417W        W10617  11.091   5.794   6.601 -0.0651 -0.0944 -0.2837
 8418W        W10618  11.695   2.064   6.570  0.0105 -0.0843  0.1710
 8419W        W10619  19.153   1.071  10.608 -0.1815 -0.1204 -0.0857
 8420W        W10620  16.491   6.194   1.481 -0.0786 -0.0524  0.1651
 8421W        W10621  24.264   0.340   1.748 -0.3833 -0.0793 -0.0866
 8422W        W10622  21.521   7.154  24.978  0.0622  0.3155  0.0898
 8423W        W10623  13.267   2.066  10.747 -0.1075 -0.2316  0.2777
 8424W        W10624  12.939   6.260   3.007 -0.0080  0.1575 -0.0518
 8425W        W10625  22.238   5.918  23.816  0.0333  0.1881  0.0331
 8426W        W10626   0.056   4.643  23.958  0.1992  0.1323  0.2269
 8427W        W10627   9.551   6.343  17.522  0.3562 -0.2301  0.1078
 8428W        W10628  10.478   6.272   0.137 -0.1179 -0.0581  0.2955
 8429W        W10629   7.483   1.933  30.675 -0.0255  0.1902 -0.2079
 8430W        W10630  22.272   3.043  15.981 -0.1451  0.0451  0.1220
 8431W        W10631  18.319   6.823   6.215  0.1093 -0.1209 -0.3402
 8432W        W10632  14.277   2.155  27.142 -0.2018  0.1023  0.0067
 8433W        W10633   7.683   3.545  18.710 -0.4908  0.0759  0.1051
 8434W        W10634  21.686   0.420  29.486  0.4988 -0.2732  0.0823
 8435W        W10635  13.141   0.181  25.565 -0.0575 -0.1128  0.2159
 8436W        W10636   8.466   2.067  16.503 -0.2472 -0.1142 -0.1946
 8437W        W10637   0.743   4.793   3.122 -0.0788  0.0136  0.1173
 8438W        W10638  17.452   0.579  11.283 -0.0970 -0.2642  0.0939
 8439W        W10639   7.608   7.108  31.778  0.1996 -0.1655 -0.0239
 8440W        W10640  15.444   2.486  29.347 -0.0764  0.0641 -0.1777
 8441W        W10641  19.258   0.181   5.634  0.1179  0.1730 -0.2543
 8442W        W10642   9.893   6.895  24.025 -0.4877  0.1948 -0.0405
 8443W        W10643   5.804   4.006  23.578 -0.1620 -0.1934 -0.0695
 8444W        W10644  24.778   7.556   2.829  0.0425  0.0485 -0.0329
 8445W        W10645  18.054   0.469   5.667  0.0290 -0.0435  0.0708
 8446W        W10646  21.924   1.672   5.711  0.2587 -0.0250 -0.0896
 8447W        W10647  14.149   1.437  26.271 -0.2169 -0.2531  0.1101
 8448W        W10648  13.633   2.620  29.054 -0.0781 -0.4529 -0.0470
 8449W        W10649   5.330   1.447   4.923 -0.0928 -0.1846  0.1015
 8450W        W10650  22.891   1.886  24.716  0.2214 -0.0583  0.0055
 8451W        W10651  12.155   3.620   9.066  0.1790  0.1419  0.3016
 8452W        W10652   5.167   4.819  18.551  0.2090 -0.0776  0.0384
 8453W        W10653  14.963   6.603  11.565  0.0540 -0.1315  0.2203
 8454W        W10654  24.192   3.190   4.561  0.2091  0.0189  0.0384
 8455W        W10655  17.558   5.943   2.304 -0.1389  0.2279  0.0157
 8456W        W10656  22.752   1.211  22.113 -0.2103  0.0816 -0.1464
 8457W        W10657   1.705   0.569  17.929 -0.0909  0.0038 -0.0348
 8458W        W10658  19.924   1.982  23.460 -0.1005  0.0179 -0.4995
 8459W        W10659   1.451   1.532  30.996  0.2773 -0.2362  0.0424
 8460W        W10660  21.980   2.607  13.022 -0.1943  0.1347 -0.0966
 8461W        W10661   8.381   5.938   0.827  0.1780  0.1645 -0.0096
 8462W        W10662   6.328   2.398   3.638 -0.0477  0.1945 -0.0063
 8463W        W10663   7.093   0.118  23.590 -0.0108  0.3633 -0.2458
 8464W        W10664  17.307   6.082   9.247  0.2746 -0.0565  0.2581
 8465W        W10665   5.581   5.142  22.814 -0.0385  0.1774 -0.0639
 8466W        W10666   4.454   7.697   3.619 -0.0480  0.2418  0.0424
 8467W        W10667  20.531   0.897  10.317 -0.2247  0.0101  0.1455
 8468W        W10668  17.286   7.328   8.612  0.0747  0.2050 -0.1552
 8469W        W10669   5.507   4.585  30.878  0.0168 -0.0051 -0.2705
 8470W        W10670  14.148   1.550  30.699 -0.0935 -0.0733  0.0724
 8471W        W10671   4.783   3.705  18.258  0.1843 -0.0481 -0.3952
 8472W        W10672   7.986   3.161  19.481  0.2856  0.1250  0.1490
 8473W        W10673   7.834   3.588  20.174 -0.1668  0.0545 -0.2933
 8474W        W10674  18.300   4.356  27.191 -0.1440  0.3214 -0.0537
 8475W        W10675  14.225   3.278  23.046  0.4588 -0.1985  0.1077
 8476W        W10676  14.969   7.731   6.726 -0.0127  0.0377 -0.0787
 8477W        W10677   7.110   0.328  28.727 -0.1520  0.1094 -0.1395
 8478W        W10678   5.388   5.727  30.114  0.1253 -0.1177  0.1774
 8479W        W10679   8.065   6.796   4.675 -0.0622  0.3813 -0.4579
 8480W        W10680   0.426   3.160   8.233  0.1972 -0.3161  0.0002
 8481W        W10681  13.692   5.959   0.411 -0.0009 -0.0985 -0.1703
 8482W        W10682   0.438   1.124  19.204 -0.2605 -0.2146 -0.0455
 8483W        W10683   2.653   5.251  22.622 -0.0431  0.1320  0.0431
 8484W        W10684  19.282   2.323  11.034  0.0196 -0.1139  0.0139
 8485W        W10685  14.732   3.743  15.707 -0.3972 -0.2193 -0.0493
 8486W        W10686   3.273   6.831  23.674  0.2288  0.0467  0.4561
 8487W        W10687   7.410   1.364  21.741 -0.0413  0.0289 -0.4729
 8488W        W10688   9.576   2.199  30.764  0.1152 -0.0392  0.2600
 8489W        W10689   8.277   5.596  19.706  0.1520  0.0722 -0.1253
 8490W        W10690  24.698   2.755   1.024 -0.2977  0.0628  0.0898
 8491W        W10691   4.991   0.920   9.625 -0.0101 -0.0654 -0.1687
 8492W        W10692  19.175   0.012  18.420 -0.0179 -0.1387  0.2811
 8493W        W10693  14.909   3.084   7.938 -0.1082 -0.1192 -0.0281
 8494W        W10694  11.447   0.565  20.511  0.0212  0.0777 -0.2476
 8495W        W10695   9.393   0.525  18.868  0.1437 -0.1373 -0.1309
 8496W        W10696  14.648   6.920   4.806  0.0675  0.0770 -0.1489
 8497W        W10697   9.369   4.094  23.086  0.1730 -0.2113  0.2024
 8498W        W10698  17.619   5.487  11.198 -0.2046 -0.2546 -0.2191
 8499W        W10699   8.798   7.389   0.234 -0.1711  0.0907 -0.0972
 8500W        W10700   7.015   0.561   6.680  0.0274  0.1541  0.2391
 8501W        W10701  11.397   7.007  29.130  0.0893  0.0234 -0.0312
 8502W        W10702   7.974   3.406  16.081  0.1200 -0.0632 -0.1245
 8503W        W10703   4.182   2.158  22.366 -0.2690 -0.1064  0.0292
 8504W        W10704  19.594   5.569   1.934 -0.1298 -0.1580 -0.4256
 8505W        W10705   8.309   3.265   8.188  0.1940 -0.1224 -0.0638
 8506W        W10706  12.030   2.092   6.909 -0.3277 -0.1192 -0.3044
 8507W        W10707  24.438   6.628  29.962 -0.0612  0.1504  0.1051
 8508W        W10708   3.923   4.707  30.808  0.1153 -0.2072 -0.0437
 8509W        W10709   7.983   5.753  23.971  0.2874  0.0030 -0.2056
 8510W        W10710  20.633   3.880  22.344  0.0512 -0.0304  0.0407
 8511W        W10711   8.409   7.178   0.015 -0.4405 -0.1760  0.0048
 8512W        W10712   7.054   6.810  22.770  0.0025  0.0439  0.2916
 8513W        W10713  18.157   4.635   2.676  0.5807 -0.1065 -0.3693
 8514W        W10714  12.182   7.611   1.147 -0.0967  0.1093 -0.1358
 8515W        W10715   7.925   0.744  23.530  0.1641  0.0907  0.1125
 8516W        W10716  10.750   4.382   8.844 -0.1782 -0.0148 -0.1792
 8517W        W10717   2.858   4.103  32.236  0.0058 -0.0050 -0.2525
 8518W        W10718  24.055   0.513  13.088 -0.1790 -0.0887  0.1731
 8519W        W10719  11.646   4.117  22.926 -0.0373  0.0227 -0.4943
 8520W        W10720  18.846   6.266   2.966 -0.2777 -0.1564 -0.0043
 8521W        W10721  12.927   0.351  21.914  0.1344  0.2952  0.2091
 8522W        W10722  17.207   5.305  10.964  0.0982  0.1535 -0.3168
 8523W        W10723  20.290   3.938  12.815 -0.1005 -0.2469 -0.2618
 8524W        W10724  23.896   4.259  20.310  0.0546  0.2723  0.4079
 8525W        W10725  21.893   2.374  27.315 -0.1608 -0.1649 -0.1785
 8526W        W10726  23.884   0.358  27.795 -0.2649 -0.0341  0.1553
 8527W        W10727  19.627   1.955   0.717  0.0609  0.2892 -0.2034
 8528W        W10728   3.263   7.046   0.133 -0.2101  0.3060 -0.1369
 8529W        W10729  21.250   3.809  30.862 -0.0816  0.1978  0.2528
 8530W        W10730  24.974   7.108  28.496 -0.0455  0.1079  0.4271
 8531W        W10731   5.434   0.899   3.744 -0.2782  0.2306  0.0379
 8532W        W10732  22.167   6.183   5.170  0.0344  0.0561 -0.0857
 8533W        W10733  19.408   1.015  11.598  0.2885  0.1667  0.0229
 8534W        W10734   6.602   0.667  27.178 -0.1127 -0.1930 -0.0606
 8535W        W10735  14.318   2.225   7.818  0.2006  0.0668  0.1812
 8536W        W10736  23.673   1.186   8.827 -0.3489  0.1193 -0.1557
 8537W        W10737  24.161   3.710  22.185 -0.1312  0.0953 -0.1576
 8538W        W10738  21.710   3.963   5.895  0.0101 -0.0302 -0.2824
 8539W        W10739   1.926   1.008   3.048  0.1780 -0.1882 -0.0255
 8540W        W10740  24.515   6.328   0.241 -0.1057  0.0624  0.0024
 8541W        W10741  22.127   3.494   4.941  0.3386 -0.1908  0.2176
 8542W        W10742  11.047   4.015  23.988 -0.2467  0.0683 -0.1026
 8543W        W10743  22.485   7.503  11.757  0.2183  0.2941 -0.1455
 8544W        W10744   2.368   5.193  27.362 -0.0696 -0.0334 -0.3534
 8545W        W10745  18.874   2.596   9.130 -0.1021 -0.1428 -0.1551
 8546W        W10746   6.593   7.566   7.296 -0.1232 -0.0171 -0.0653
 8547W        W10747  14.116   2.588  13.280 -0.0535  0.2363  0.5035
 8548W        W10748  16.780   6.838   3.364  0.0762 -0.1099 -0.3348
 8549W        W10749  15.570   2.647  26.653  0.0148  0.1501 -0.1033
 8550W        W10750   4.053   5.963  26.737  0.1183  0.0409  0.1120
 8551W        W10751   9.518   0.591   7.946 -0.0313  0.2027 -0.0607
 8552W        W10752   6.932   3.979  29.669  0.1782  0.1672  0.0207
 8553W        W10753  20.744   2.900  28.996  0.2495 -0.0591  0.1777
 8554W        W10754   3.751   0.159  24.209  0.1858 -0.0200  0.0364
 8555W        W10755  11.667   6.614  22.813 -0.0329  0.0528 -0.3233
 8556W        W10756  17.196   6.855   2.069 -0.3489  0.0925 -0.1493
 8557W        W10757   4.899   4.175  31.468  0.2931 -0.3984  0.0184
 8558W        W10758  10.197   3.583  15.988  0.0278  0.2006 -0.3074
 8559W        W10759  12.896   4.009  22.893 -0.1229  0.0092  0.1044
 8560W        W10760  22.481   0.106  11.588  0.0307 -0.2035  0.1871
 8561W        W10761   8.922   0.643  26.344 -0.0580  0.0657 -0.0552
 8562W        W10762  23.274   6.152  26.673  0.0250  0.2723  0.1472
 8563W        W10763   8.203   2.142  14.774 -0.0351  0.3260  0.2588
 8564W        W10764  16.001   0.522  31.449  0.0299 -0.0722 -0.1732
 8565W        W10765   8.577   7.553   4.907 -0.2376 -0.2046 -0.3052
 8566W        W10766  23.294   3.222  27.251 -0.2557  0.1532  0.3019
 8567W        W10767  18.798   3.896   5.533 -0.1797 -0.3120 -0.1699
 8568W        W10768  21.084   0.059  15.885 -0.1587 -0.1353  0.2284
 8569W        W10769   8.711   3.396  26.762 -0.1083 -0.0160 -0.0339
 8570W        W10770   1.860   7.668  20.814  0.1618  0.1421  0.0643
 8571W        W10771   8.251   5.475  21.014  0.2422  0.1089  0.0290
 8572W        W10772   6.839   5.338   7.609 -0.2381 -0.2731  0.1095
 8573W        W10773  16.303   7.398   7.745 -0.3960 -0.1845 -0.3576
 8574W        W10774   4.834   6.263  29.755  0.1257 -0.1874  0.0889
 8575W        W10775   7.858   7.569  23.711 -0.1552 -0.1812 -0.0553
 8576W        W10776  11.007   2.948   7.318  0.1762 -0.2363 -0.1506
 8577W        W10777   0.997   2.992  27.093  0.1265  0.0190  0.2066
 8578W        W10778   3.470   6.556   0.008 -0.1169  0.4080 -0.0536
 8579W        W10779   3.849   6.952  22.547 -0.1818 -0.1261 -0.1121
 8580W        W10780  20.813   5.987  27.447  0.1378 -0.1597  0.0318
 8581W        W10781   8.214   6.366  27.091  0.2539  0.1952 -0.1476
 8582W        W10782   6.517   6.565  28.392 -0.2269  0.1452  0.1374
 8583W        W10783   1.987   5.956   9.942 -0.0946  0.0868 -0.0786
 8584W        W10784   3.447   2.897  31.013 -0.0419  0.2033 -0.1890
 8585W        W10785  22.848   6.878  30.687  0.1239 -0.3285  0.0464
 8586W        W10786  13.435   5.081  21.966  0.1607  0.1380 -0.1080
 8587W        W10787  10.416   4.092   3.310 -0.1737 -0.2637 -0.1248
 8588W        W10788   6.883   0.798   1.227 -0.2185  0.0716 -0.4480
 8589W        W10789  18.301   5.584   9.657  0.0145 -0.1052  0.0561
 8590W        W10790  13.449   3.815  22.040  0.3788  0.2517  0.1612
 8591W        W10791  19.735   0.678  24.060  0.0713  0.0813  0.1524
 8592W        W10792  17.743   2.319   7.565 -0.1431 -0.2370  0.2405
 8593W        W10793   8.613   2.524   8.695 -0.0224  0.0654  0.1015
 8594W        W10794  19.412   1.036  17.610  0.2058 -0.0726  0.4804
 8595W        W10795  11.823   0.256   4.672  0.3519 -0.1507  0.0855
 8596W        W10796  16.727   3.255   1.290 -0.1616  0.1141  0.3478
 8597W        W10797  13.235   5.377  27.257  0.1165  0.0929 -0.0837
 8598W        W10798   8.672   1.364  26.800 -0.2717  0.1744  0.0263
 8599W        W10799  15.650   2.956   9.682 -0.0984 -0.1637 -0.0330
 8600W        W10800   8.370   1.671   2.923  0.2130 -0.0857  0.1684
 8601W        W10801   8.553   1.990  27.888 -0.1040  0.0383  0.0018
 8602W        W10802  13.582   1.338  22.938  0.2826  0.2115  0.2428
 8603W        W10803  17.035   2.312  25.416  0.1821 -0.1441  0.0767
 8604W        W10804  15.580   1.685  23.442  0.2044  0.0174  0.1518
 8605W        W10805   2.071   6.542  27.542 -0.0619  0.1402  0.1351
 8606W        W10806  14.734   5.098  28.475 -0.3374  0.2301 -0.2526
 8607W        W10807  12.118   6.518  20.200 -0.0702 -0.2263 -0.0744
 8608W        W10808   8.180   0.903   6.510 -0.0346 -0.2034 -0.0461
 8609W        W10809  10.763   4.646  30.702 -0.2059  0.0001 -0.2677
 8610W        W10810  22.443   3.563   4.095  0.0484  0.0140 -0.1640
 8611W        W10811  11.975   4.090   9.079 -0.2384 -0.1582 -0.1771
 8612W        W10812  17.345   6.148  13.502 -0.2191  0.0624 -0.4031
 8613W        W10813   4.438   1.999  20.449 -0.1726 -0.1658 -0.1585
 8614W        W10814  23.400   2.923  26.863  0.0820  0.1356  0.0019
 8615W        W10815  11.656   6.962   7.268 -0.1285 -0.1051  0.0112
 8616W        W10816  16.002   1.062  24.270 -0.1624 -0.0400  0.2178
 8617W        W10817   2.277   3.300   3.454  0.0707 -0.0931 -0.2244
 8618W        W10818   4.756   1.126   2.174 -0.0123 -0.0944  0.2904
 8619W        W10819  13.559   0.437  22.946  0.0306  0.2007 -0.2605
 8620W        W10820  20.525   2.297   8.434 -0.0399 -0.0695 -0.0609
 8621W        W10821  23.982   0.224  28.326  0.0767  0.0823 -0.1020
 8622W        W10822  10.374   3.016   3.857  0.1486 -0.1929  0.1792
 8623W        W10823   0.932   6.525  20.148  0.0243  0.1778 -0.0102
 8624W        W10824  13.727   5.373   5.427 -0.1317  0.3519 -0.2696
 8625W        W10825   6.817   5.747  30.513  0.1179  0.0854 -0.2543
 8626W        W10826  19.340   5.664  16.331 -0.0947  0.1444  0.1896
 8627W        W10827   4.509   6.930  24.243  0.0093  0.3068 -0.1555
 8628W        W10828  22.151   5.894  13.215 -0.0678  0.0965  0.1069
 8629W        W10829   5.043   3.139  28.317  0.0081  0.0006 -0.0777
 8630W        W10830   3.664   1.245  22.739  0.4659  0.0977 -0.1765
 8631W        W10831  24.606   4.074   8.787  0.0438 -0.2014 -0.2236
 8632W        W10832   0.428   6.761   5.155 -0.0307  0.3971  0.0240
 8633W        W10833  10.697   1.509   2.313  0.1875 -0.2596  0.3407
 8634W        W10834   5.645   1.003  21.119 -0.0126  0.0273  0.2057
 8635W        W10835  23.619   7.066   4.238 -0.0954 -0.3101  0.0327
 8636W        W10836   4.474   4.365  22.422 -0.1611 -0.1681  0.2544
 8637W        W10837   5.371   1.249  27.768  0.0920 -0.0855  0.0050
 8638W        W10838  14.162   0.423   6.557  0.0146 -0.1027 -0.0307
 8639W        W10839   4.633   0.548  27.377 -0.2651 -0.0820 -0.1305
 8640W        W10840  22.754   2.981   0.633  0.1389 -0.2533  0.0180
 8641W        W10841  10.013   2.561  10.625 -0.2062  0.0310  0.0515
 8642W        W10842   3.404   0.611   9.718  0.0615 -0.0201  0.1595
 8643W        W10843  18.379   0.479  31.879 -0.0473 -0.3610  0.0487
 8644W        W10844  15.171   7.578  25.806 -0.1970 -0.0598 -0.1834
 8645W        W10845  18.489   3.105   0.185  0.3298  0.0545  0.0585
 8646W        W10846  10.206   0.170   8.930  0.0483  0.0876 -0.1148
 8647W        W10847  16.886   2.968   9.605 -0.3337 -0.2448  0.0806
 8648W        W10848  21.500   3.453   3.342 -0.2790  0.2464 -0.0443
 8649W        W10849  15.784   2.683  28.521  0.1160 -0.3213  0.3258
 8650W        W10850  21.419   1.727  21.663 -0.2374 -0.0839 -0.3275
 8651W        W10851   3.244   4.337  29.158  0.4292  0.0809 -0.0197
 8652W        W10852   4.475   5.121  32.170 -0.1322 -0.1107 -0.0925
 8653W        W10853  18.547   4.454  10.028 -0.0208  0.1544 -0.2048
 8654W        W10854   9.474   2.976   2.061  0.1659  0.0212  0.0487
 8655W        W10855  12.193   3.471   7.431 -0.1497  0.0076  0.1934
 8656W        W10856  21.337   4.965  25.538  0.0858  0.1295  0.2751
 8657W        W10857   8.861   6.026   4.112 -0.1230 -0.1131 -0.0417
 8658W        W10858   9.401   5.140  10.186  0.2302 -0.1588 -0.2033
 8659W        W10859   3.082   3.895  22.745 -0.0127  0.0894 -0.3080
 8660W        W10860   9.685   4.948   5.173 -0.1540 -0.1144  0.2234
 8661W        W10861  22.285   4.733  21.610 -0.2059  0.0552  0.2923
 8662W        W10862   1.631   0.905   7.150 -0.0635  0.0483 -0.0703
 8663W        W10863   6.859   4.695   9.651  0.1335  0.1351  0.2423
 8664W        W10864  17.322   3.115  17.571  0.0502  0.3022  0.3485
 8665W        W10865   6.690   3.667   5.769 -0.1124  0.1325  0.5454
 8666W        W10866  23.910   1.535   6.485  0.1755  0.0201 -0.0079
 8667W        W10867  19.843   3.310  28.892 -0.0567  0.0184  0.2877
 8668W        W10868  23.246   4.914  31.477 -0.0547  0.1597 -0.0426
 8669W        W10869  22.889   0.188   4.651 -0.0502 -0.0412 -0.0437
 8670W        W10870  22.031   6.618  12.618  0.3352  0.0323  0.0153
 8671W        W10871  18.847   0.886  16.094 -0.0220  0.1789  0.0356
 8672W        W10872  18.062   2.280   9.036  0.2030  0.1585 -0.0094
 8673W        W10873   8.036   6.111  30.006  0.1853 -0.1169 -0.0242
 8674W        W10874  16.402   0.264  13.352 -0.1419  0.1778 -0.0296
 8675W        W10875   0.423   4.221  10.685 -0.2016 -0.0202  0.1204
 8676W        W10876  14.806   2.243   8.022  0.0485 -0.3617  0.0359
 8677W        W10877  23.702   2.898  24.018  0.1429 -0.3126  0.1417
 8678W        W10878   3.739   2.031  28.482 -0.0331  0.0611  0.2425
 8679W        W10879   6.592   0.470   1.395  0.1105 -0.0894 -0.2982
 8680W        W10880   5.039   3.387   1.064  0.1667 -0.0560  0.0169
 8681W        W10881  21.028   4.685  15.610  0.1580 -0.1981  0.3602
 8682W        W10882  14.216   2.549  25.380  0.0348 -0.2772  0.0309
 8683W        W10883  12.131   5.203  26.509 -0.3194  0.1222 -0.1076
 8684W        W10884  10.674   7.773  19.237 -0.0853 -0.3356  0.2113
 8685W        W10885  23.826   1.961  11.090  0.0392  0.1682  0.1875
 8686W        W10886  19.581   0.669   9.524 -0.2599 -0.1127  0.3245
 8687W        W10887  16.482   0.671  11.651  0.1154 -0.1837  0.3012
 8688W        W10888  11.856   1.808  29.711  0.1874  0.0482  0.1815
 8689W        W10889   3.841   1.981  19.525  0.1329  0.2016 -0.0154
 8690W        W10890  17.111   5.843   0.324  0.1858  0.2765 -0.0640
 8691W        W10891  11.962   6.320  32.005 -0.2472 -0.0238  0.1178
 8692W        W10892  13.804   5.452  13.025 -0.2097 -0.1117 -0.3567
 8693W        W10893   5.859   3.042   2.844 -0.1321  0.0985 -0.0382
 8694W        W10894   0.660   3.432  11.610 -0.1010 -0.2077 -0.4774
 8695W        W10895   0.717   4.077   8.219 -0.0129 -0.0727 -0.3485
 8696W        W10896  16.149   6.210  14.024 -0.0158 -0.0299 -0.1725
 8697W        W10897  10.724   4.297   7.779 -0.0651 -0.0732 -0.1065
 8698W        W10898   9.321   3.917  19.379  0.3211 -0.0204  0.0651
 8699W        W10899  18.728   0.091  16.602  0.0084  0.2971 -0.0479
 8700W        W10900   8.081   2.882  15.371  0.2891 -0.1072  0.3567
 8701W        W10901   6.392   4.792  30.840  0.0167 -0.1109  0.2017
 8702W        W10902  18.054   0.329  12.429  0.5748  0.1840 -0.0778
 8703W        W10903   5.168   3.133   9.340  0.2171 -0.3423 -0.0317
 8704W        W10904  18.877   1.269   0.613  0.3469 -0.0055 -0.0914
 8705W        W10905  21.020   2.005  15.538  0.3031 -0.4280  0.3206
 8706W        W10906   1.675   1.990  32.185  0.0950 -0.0775 -0.0960
 8707W        W10907  16.863   4.733  28.719 -0.0345  0.0298  0.0149
 8708W        W10908  20.642   0.742   6.917 -0.1351  0.1362 -0.0276
 8709W        W10909  10.503   7.018  26.726 -0.1408 -0.0316 -0.1584
 8710W        W10910  11.139   6.353  29.780  0.1780  0.2222 -0.0894
 8711W        W10911  10.141   6.874  30.351  0.2359  0.2089  0.0479
 8712W        W10912   9.552   5.836   7.962 -0.1933  0.2274 -0.2337
 8713W        W10913  11.812   6.299   6.482 -0.0741 -0.1641 -0.1563
 8714W        W10914   5.555   1.337  15.913  0.1757  0.1660 -0.2512
 8715W        W10915  18.077   2.290  25.720  0.2851  0.2254 -0.3457
 8716W        W10916   1.613   0.615   4.585  0.2804  0.1074  0.1433
 8717W        W10917   4.931   6.971  31.875  0.0615  0.1981 -0.3618
 8718W        W10918   6.577   0.320  20.534 -0.1404  0.1238  0.1238
 8719W        W10919  12.123   4.722   2.827 -0.2291  0.1257 -0.0378
 8720W        W10920  12.781   3.419  30.530 -0.2392  0.0806 -0.0996
 8721W        W10921  16.466   3.599   4.089 -0.0787 -0.0823  0.0518
 8722W        W10922  21.371   4.645  30.386  0.0101  0.1964 -0.0567
 8723W        W10923  18.863   1.255  17.011 -0.0747 -0.1711  0.1250
 8724W        W10924  17.468   4.623  12.696  0.0219  0.0706  0.0128
 8725W        W10925   3.033   4.412   4.322  0.1509  0.0154  0.0349
 8726W        W10926  22.691   0.737  10.867  0.2497  0.0089 -0.2019
 8727W        W10927  16.266   1.689   8.382 -0.0164 -0.0005 -0.2247
 8728W        W10928   7.403   6.769  30.385  0.0355  0.4021 -0.1204
 8729W        W10929   2.044   1.743   4.669  0.3257  0.0601 -0.0087
 8730W        W10930  18.695   6.026   1.588  0.2975  0.3241  0.1442
 8731W        W10931   8.613   6.223  15.556 -0.1677 -0.0772  0.0255
 8732W        W10932  12.267   3.948   2.136  0.0460  0.2191  0.1213
 8733W        W10933  10.032   7.372   4.553  0.1651 -0.1902  0.0809
 8734W        W10934  15.041   4.075  27.634  0.0447  0.0989  0.0037
 8735W        W10935   4.122   7.101  32.188 -0.0706  0.0339  0.0563
 8736W        W10936  24.330   1.404   6.267  0.1806  0.0938 -0.0243
 8737W        W10937   8.326   4.739  22.025  0.0284  0.0527 -0.2628
 8738W        W10938   0.037   2.034   7.058 -0.1330 -0.0493  0.1887
 8739W        W10939  19.298   1.773  11.227  0.3839  0.0341 -0.0424
 8740W        W10940   0.054   1.893  26.924  0.0165 -0.0819  0.0651
 8741W        W10941   6.194   3.458  25.667 -0.1418  0.2726  0.3693
 8742W        W10942  24.102   5.009   1.661 -0.1859 -0.1973 -0.0907
 8743W        W10943   3.117   3.552  16.882 -0.0385 -0.0702  0.0108
 8744W        W10944  22.996   5.608   0.060  0.0301 -0.0508 -0.0192
 8745W        W10945  14.110   6.340  23.319  0.1032  0.1126  0.1995
 8746W        W10946   1.277   4.041   7.049  0.1023 -0.1666  0.3076
 8747W        W10947   6.112   1.506  18.938 -0.5114  0.1564  0.2194
 8748W        W10948  23.413   2.200   6.617  0.2130  0.1042 -0.1945
 8749W        W10949  23.501   6.128  31.252 -0.0879  0.1085 -0.0901
 8750W        W10950  10.372   3.411  25.244  0.0884 -0.0735 -0.0992
 8751W        W10951   1.473   5.669  17.878  0.0415  0.0816 -0.0676
 8752W        W10952  12.048   2.685  24.955 -0.1941  0.0005 -0.1378
 8753W        W10953  13.675   6.603   7.609 -0.4213 -0.0653 -0.2211
 8754W        W10954   5.374   7.477   2.401  0.1113 -0.4380  0.1697
 8755W        W10955  13.732   5.828  26.701 -0.0238  0.0886 -0.0047
 8756W        W10956   6.676   1.650   5.895 -0.1398 -0.3143  0.1334
 8757W        W10957  11.957   4.151  18.570 -0.0659  0.0431 -0.1762
 8758W        W10958  12.618   6.554  24.222 -0.2782  0.0175 -0.1361
 8759W        W10959   8.310   1.976   5.575  0.1899 -0.0703  0.0848
 8760W        W10960  14.667   4.176  30.570  0.3534  0.1115 -0.1058
 8761W        W10961  11.022   1.098   7.160  0.3218  0.1310  0.0047
 8762W        W10962  13.499   1.858  21.108  0.2086 -0.0222  0.4672
 8763W        W10963  10.732   4.332   7.317  0.0416 -0.0099  0.4927
 8764W        W10964  17.338   4.577  24.651 -0.2957  0.0650 -0.2288
 8765W        W10965  24.919   2.147   4.987 -0.3006 -0.1598 -0.2156
 8766W        W10966  11.404   7.166  19.109 -0.0115  0.2338 -0.3937
 8767W        W10967  10.784   0.074   6.028  0.1225  0.1075  0.1312
 8768W        W10968  13.196   0.632   9.430  0.2910 -0.1056 -0.0815
 8769W        W10969  14.039   1.606  10.284 -0.0370  0.0543 -0.2404
 8770W        W10970  18.754   2.710  26.260 -0.1314  0.0667  0.0306
 8771W        W10971   2.259   4.862   2.387  0.0156 -0.1814 -0.1119
 8772W        W10972   0.345   3.539  31.677 -0.0688  0.1611 -0.2359
 8773W        W10973  19.631   2.785  32.160 -0.1549 -0.0269 -0.3516
 8774W        W10974   4.217   7.287   8.222  0.0646 -0.0780 -0.0111
 8775W        W10975  18.449   3.037   9.662  0.0078  0.1219  0.1622
 8776W        W10976   6.100   3.988  21.731  0.1469 -0.0439 -0.2932
 8777W        W10977  23.698   4.169  29.174  0.0056  0.0872 -0.0882
 8778W        W10978   7.982   0.212  30.467 -0.1116  0.0111  0.0484
 8779W        W10979   0.878   0.985  28.294 -0.0086  0.0719  0.0694
 8780W        W10980  18.478   4.660   7.113  0.0648  0.1943  0.0560
 8781W        W10981  11.130   7.062  31.249  0.2459 -0.0494  0.1903
 8782W        W10982   8.962   1.753  21.534  0.0017 -0.0676  0.0834
 8783W        W10983   2.633   6.999  27.737 -0.1382  0.1966  0.0373
 8784W        W10984   1.030   5.038   6.018 -0.0579 -0.1696  0.0111
 8785W        W10985  21.276   7.721  17.874  0.0377 -0.2248  0.0752
 8786W        W10986  13.851   5.051   1.413  0.1007  0.2445 -0.4272
 8787W        W10987  10.316   1.298  23.456 -0.2069  0.0877  0.0675
 8788W        W10988  21.426   5.799   2.732 -0.1319 -0.0964 -0.2135
 8789W        W10989  17.894   2.215  28.298 -0.3160  0.2494 -0.1661
 8790W        W10990  21.161   4.803   9.380 -0.0404 -0.2195 -0.1937
 8791W        W10991   3.610   3.103   4.075  0.0853  0.1800 -0.0251
 8792W        W10992  22.577   6.548   5.154 -0.0137  0.2818  0.0825
 8793W        W10993   7.281   0.608  15.947  0.0841  0.0417 -0.0662
 8794W        W10994  12.921   7.277   1.870 -0.0297 -0.0531 -0.0757
 8795W        W10995  21.633   7.161   9.072  0.2742  0.0337 -0.0283
 8796W        W10996  15.037   2.093  27.092  0.1506  0.0372 -0.3602
 8797W        W10997  15.371   0.318  26.339 -0.1027  0.0036 -0.0320
 8798W        W10998  11.525   5.321   1.138  0.0047 -0.0623  0.1582
 8799W        W10999  23.428   3.750  31.083 -0.0089  0.2090  0.0821
 8800W        W11000  14.871   5.958  32.495  0.3888  0.1969  0.0412
 8801W        W11001   2.720   7.043  25.094 -0.0874  0.0740  0.2301
 8802W        W11002  13.064   1.276  13.210 -0.0092  0.1017  0.1468
 8803W        W11003  24.702   4.523  26.494 -0.1429  0.0882 -0.1258
 8804W        W11004  19.038   6.523   9.428 -0.0011 -0.1530  0.0751
 8805W        W11005  24.703   4.400  30.044  0.0048  0.2128 -0.2784
 8806W        W11006   1.287   1.948   1.976  0.3727 -0.1097  0.1843
 8807W        W11007  10.895   5.074   0.421  0.0784  0.1465  0.2057
 8808W        W11008  10.919   6.337  23.553 -0.1316 -0.0915  0.0943
 8809W        W11009   3.358   6.629  16.565 -0.0604  0.3178  0.0166
 8810W        W11010   6.379   2.540  28.961 -0.1480 -0.1280 -0.3614
 8811W        W11011  14.741   7.442  14.103 -0.3056  0.0576 -0.0372
 8812W        W11012  12.673   6.500   8.469  0.0065 -0.1632 -0.4221
 8813W        W11013  23.179   1.251   8.114  0.1127 -0.0844  0.0541
 8814W        W11014  23.660   5.865   5.469  0.2675 -0.2773  0.2223
 8815W        W11015   6.223   7.257   0.913  0.3363 -0.1448  0.3168
 8816W        W11016   4.440   7.056  18.300 -0.2156 -0.3421  0.1051
 8817W        W11017  18.396   1.497  12.905  0.1240  0.1307  0.0778
 8818W        W11018   1.275   1.546  23.842 -0.0425  0.1584 -0.2384
 8819W        W11019   3.238   3.126  18.241  0.1750  0.0044 -0.0027
 8820W        W11020  14.239   4.608  23.349  0.1278 -0.2552  0.3740
 8821W        W11021  22.955   4.858  24.789 -0.0132  0.3005  0.1746
 8822W        W11022  11.501   3.607   6.138 -0.0895  0.0990  0.0727
 8823W        W11023  15.565   4.675  29.366  0.0440 -0.3446  0.1069
 8824W        W11024   4.035   4.068   8.563  0.2955 -0.0304  0.3365
 8825W        W11025   8.203   5.991  20.379 -0.0264  0.1360  0.3412
 8826W        W11026   5.921   5.688  23.038 -0.0957 -0.1037  0.1787
 8827W        W11027   0.557   1.972  31.326  0.1886 -0.0823  0.2197
 8828W        W11028  23.562   7.629  24.072 -0.0294  0.2625  0.1460
 8829W        W11029  17.299   7.095  23.863  0.0501  0.1224  0.1205
 8830W        W11030  17.152   2.168   2.719  0.2748  0.2725  0.1720
 8831W        W11031  22.153   1.294  16.701  0.1031 -0.2433  0.2388
 8832W        W11032  22.575   4.302   7.437  0.0093  0.1950  0.0925
 8833W        W11033  11.943   1.412   9.402 -0.0642  0.1042  0.3952
 8834W        W11034  20.694   2.645  24.159  0.0134  0.1343  0.0375
 8835W        W11035   8.769   1.124  19.946 -0.1574  0.2221  0.0864
 8836W        W11036   8.784   5.718  15.739  0.2036  0.0027 -0.0289
 8837W        W11037  24.400   1.702   7.541  0.0125 -0.0519 -0.0860
 8838W        W11038   7.251   7.252  15.339 -0.1343 -0.0169  0.3457
 8839W        W11039  16.023   2.237   3.939 -0.3111 -0.1560 -0.1205
 8840W        W11040  17.000   4.834  12.341  0.0358  0.3589  0.0382
 8841W        W11041  12.854   4.276  24.759  0.2262  0.1792  0.0359
 8842W        W11042  16.443   6.308  26.887 -0.3541 -0.0965 -0.2768
 8843W        W11043  22.083   5.147  11.563  0.0568 -0.0485  0.1027
 8844W        W11044  25.034   1.127  26.112  0.2751  0.1174  0.1083
 8845W        W11045  18.374   1.888  18.865 -0.0876 -0.1230  0.1174
 8846W        W11046  20.214   1.847  10.824 -0.4506  0.1615  0.1238
 8847W        W11047  17.903   5.667   1.388 -0.3717 -0.0777  0.1892
 8848W        W11048  22.902   6.933  29.185 -0.3336  0.0622  0.2346
 8849W        W11049   2.413   1.203  25.713 -0.1556  0.0156  0.1968
 8850W        W11050  24.326   3.568  12.134  0.0414  0.1704 -0.1575
 8851W        W11051  24.167   2.239  27.909  0.0816  0.2403  0.1890
 8852W        W11052   0.420   0.613  32.229  0.1033  0.2520  0.1165
 8853W        W11053  23.674   2.427   1.283  0.0067  0.2606  0.0162
 8854W        W11054  14.678   7.559   9.191 -0.0953 -0.2574 -0.2226
 8855W        W11055   5.862   6.976  25.987  0.0674 -0.0223 -0.0207
 8856W        W11056  11.002   7.387  21.323 -0.0046  0.0183  0.1896
 8857W        W11057  20.353   3.160  28.893 -0.3722 -0.2994  0.4268
 8858W        W11058  15.627   6.222  23.858 -0.1134  0.0613 -0.3352
 8859W        W11059   6.630   0.783  27.650  0.0025 -0.2934 -0.1140
 8860W        W11060   5.847   5.065  22.401 -0.0153 -0.0510 -0.0567
 8861W        W11061  14.321   3.712  22.132  0.0630 -0.0868  0.1494
 8862W        W11062  17.583   1.639  22.219  0.3041 -0.2186 -0.2746
 8863W        W11063   4.892   1.344  14.531  0.1088 -0.1339  0.0180
 8864W        W11064  15.428   6.739  13.003 -0.2194  0.0227 -0.3664
 8865W        W11065   0.952   7.769   2.988 -0.3214 -0.1743 -0.1086
 8866W        W11066  25.111   4.150   0.571  0.0031 -0.3581 -0.0920
 8867W        W11067   1.204   5.262   4.173  0.1291  0.0897  0.0422
 8868W        W11068   1.957   3.534   4.217  0.0089  0.2000 -0.2994
 8869W        W11069  23.821   6.347  21.941  0.1196 -0.0877 -0.1280
 8870W        W11070  23.723   1.945  13.138  0.3430  0.0138  0.3088
 8871W        W11071  16.152   4.386  10.475  0.0459  0.0221 -0.1683
 8872W        W11072  13.055   0.496  22.727 -0.0394  0.0891 -0.1083
 8873W        W11073   1.518   6.790   9.601  0.3215  0.2447  0.0869
 8874W        W11074  13.523   5.790  27.140  0.1242  0.1157 -0.0769
 8875W        W11075  21.918   4.267  28.470  0.2144 -0.5789  0.2678
 8876W        W11076  19.829   7.731  30.490 -0.0538  0.1626  0.2089
 8877W        W11077   7.784   2.520  24.578  0.1113  0.1202  0.1456
 8878W        W11078  20.964   3.876  15.015  0.1775  0.0059  0.0327
 8879W        W11079  21.293   4.484  16.013 -0.1611  0.0468  0.0305
 8880W        W11080  17.374   2.402  16.791 -0.0248  0.1594  0.0075
 8881W        W11081  17.471   2.403  14.578 -0.0024 -0.0941  0.3447
 8882W        W11082   8.905   0.754  27.376  0.4008 -0.2123  0.0908
 8883W        W11083  24.787   1.273   9.336 -0.4121 -0.0574 -0.0616
 8884W        W11084  18.267   5.823  28.818  0.0697 -0.0168 -0.0387
 8885W        W11085  22.564   0.597   1.975 -0.2483  0.1719  0.2493
 8886W        W11086  13.830   3.171  11.429 -0.1075 -0.0548 -0.1305
 8887W        W11087  18.831   4.377   5.648 -0.1607 -0.1706 -0.2687
 8888W        W11088   3.073   0.683   8.352  0.1168 -0.3096  0.0530
 8889W        W11089  17.429   2.705   6.789  0.2153  0.3360  0.2539
 8890W        W11090   4.775   7.213   2.200 -0.0769 -0.0067  0.2144
 8891W        W11091  20.270   4.644   5.539  0.0815 -0.0702  0.0395
 8892W        W11092  18.633   7.245  27.450 -0.0003  0.0437  0.1037
 8893W        W11093   3.167   4.059   6.043 -0.2363 -0.1463  0.0523
 8894W        W11094  13.736   6.252  28.548 -0.0291  0.2323 -0.0475
 8895W        W11095  24.753   3.577  13.324  0.0832 -0.0349  0.1379
 8896W        W11096  24.903   0.640   2.791 -0.0114 -0.1579  0.1060
 8897W        W11097   2.359   1.268  25.168  0.1336 -0.0822  0.1117
 8898W        W11098  22.741   2.153  10.080 -0.1241 -0.0899 -0.1704
 8899W        W11099  24.605   5.006  22.941  0.2282  0.2289  0.1708
 8900W        W11100   9.095   6.848   4.788  0.1966 -0.5811  0.0111
 8901W        W11101  13.303   3.090   4.579 -0.0454  0.2077  0.1141
 8902W        W11102  19.400   0.074  25.290 -0.3338  0.4064  0.0093
 8903W        W11103  24.900   2.765   4.290  0.0726  0.2692  0.2358
 8904W        W11104  15.146   5.836   0.414 -0.1925  0.1222 -0.0893
 8905W        W11105  17.510   1.068   0.488  0.0912 -0.0736  0.1854
 8906W        W11106   0.531   3.013   5.376  0.0234 -0.2576 -0.0897
 8907W        W11107  15.453   6.649  23.752 -0.0590 -0.1063  0.0912
 8908W        W11108   4.378   4.684   9.668  0.0503  0.0855 -0.0305
 8909W        W11109  22.312   3.634   2.557 -0.2843  0.0835 -0.1146
 8910W        W11110  10.727   3.292   7.632  0.1514 -0.0501  0.1921
 8911W        W11111  21.532   0.552  16.514 -0.1532  0.1713  0.1935
 8912W        W11112  19.862   0.002  23.660 -0.2102  0.0961 -0.1132
 8913W        W11113  22.303   3.725   3.620  0.0453  0.0623 -0.0520
 8914W        W11114   8.271   0.388   6.422 -0.0764  0.1517 -0.1786
 8915W        W11115   9.591   4.381   1.176  0.1497 -0.1391 -0.0105
 8916W        W11116  21.595   0.431  27.240 -0.1659  0.0057 -0.3087
 8917W        W11117  21.242   5.235   6.801 -0.1697 -0.3690 -0.2455
 8918W        W11118   4.708   0.164   8.053 -0.0010 -0.0829 -0.0515
 8919W        W11119  19.454   2.034   5.622  0.0082 -0.1166 -0.1316
 8920W        W11120   6.152   1.665   4.071  0.0591 -0.1947 -0.1600
 8921W        W11121  10.141   5.440  28.718  0.0095 -0.1428 -0.0964
 8922W        W11122  15.955   6.920  13.121 -0.0361 -0.1348 -0.0050
 8923W        W11123  11.291   7.686  18.597  0.0472 -0.0872  0.0033
 8924W        W11124  21.524   5.976  28.304 -0.2317  0.0357  0.1488
 8925W        W11125  24.143   4.818   7.784  0.1322 -0.1996  0.2431
 8926W        W11126  12.855   1.243  32.449  0.0940  0.0579  0.2582
 8927W        W11127   0.306   6.877  28.377  0.0203 -0.2808 -0.1854
 8928W        W11128  20.550   7.031  10.446 -0.2332 -0.1849 -0.1563
 8929W        W11129  19.976   1.402   5.636 -0.0027  0.4597 -0.1367
 8930W        W11130   2.512   4.489  20.536  0.1245  0.2025  0.0229
 8931W        W11131  20.100   1.726  11.305 -0.2229 -0.2123 -0.2034
 8932W        W11132   3.004   4.515  30.731 -0.0841  0.0555  0.1688
 8933W        W11133   0.581   4.514   8.262 -0.0536 -0.0497  0.1583
 8934W        W11134  21.688   0.984  23.694 -0.3153 -0.2367  0.1645
 8935W        W11135   6.389   1.263  22.945  0.1447  0.1622  0.0841
 8936W        W11136  15.992   2.302  32.339 -0.1504 -0.2860  0.1280
 8937W        W11137  20.335   2.114   1.726  0.1401 -0.0416  0.0196
 8938W        W11138  23.773   1.605  24.540  0.0014 -0.1164 -0.2294
 8939W        W11139   4.143   4.387  26.924 -0.1105 -0.0510  0.1029
 8940W        W11140  11.451   1.635  17.850  0.0655  0.1324 -0.1412
 8941W        W11141   6.406   7.086  26.260  0.0912  0.1641 -0.0234
 8942W        W11142   2.201   6.899  10.613 -0.2519 -0.0468 -0.1549
 8943W        W11143  12.387   2.330  28.983  0.1612 -0.0392  0.1048
 8944W        W11144   4.392   4.174  28.638  0.1414  0.0213  0.2754
 8945W        W11145  13.610   1.349  25.271  0.0065 -0.0908 -0.0757
 8946W        W11146  19.520   2.492  16.844 -0.0472  0.1955  0.1064
 8947W        W11147   3.163   0.504  18.273 -0.0445  0.0285  0.4159
 8948W        W11148   9.407   0.758  28.055  0.1683  0.2069  0.2252
 8949W        W11149   8.142   5.691  17.454 -0.0497  0.3012  0.2703
 8950W        W11150   4.579   0.462  30.950 -0.1135  0.0244 -0.1574
 8951W        W11151   6.143   5.254  20.485 -0.1396  0.3285 -0.0670
 8952W        W11152   3.926   2.267   2.773 -0.0844 -0.0522 -0.0947
 8953W        W11153  17.677   5.996  18.879 -0.1806  0.2675  0.1279
 8954W        W11154   0.431   5.588  27.731 -0.0816 -0.0152 -0.3456
 8955W        W11155   0.967   6.581  21.026 -0.1240  0.0211 -0.1442
 8956W        W11156  11.614   4.694  18.522 -0.1246 -0.0819  0.0315
 8957W        W11157  12.196   2.453  21.492 -0.0266 -0.3425  0.3524
 8958W        W11158   2.319   4.881   2.902 -0.2369 -0.1990 -0.0446
 8959W        W11159  12.394   0.265   5.879  0.0562  0.0090  0.0240
 8960W        W11160  20.204   5.835  24.516  0.0466 -0.0498  0.1510
 8961W        W11161  16.617   6.116  13.934  0.1692  0.1037  0.1149
 8962W        W11162   3.554   4.536   3.917 -0.0218 -0.0441  0.0279
 8963W        W11163  19.920   3.043  10.063 -0.2613  0.2549 -0.1758
 8964W        W11164   2.270   4.428   1.305 -0.3838  0.2171 -0.1016
 8965W        W11165  19.967   5.501  15.162  0.0361 -0.1312 -0.0281
 8966W        W11166  10.412   7.312  24.901  0.3494 -0.1837 -0.0490
 8967W        W11167  11.380   6.505  27.702  0.2881  0.1342  0.1520
 8968W        W11168  19.057   2.505   9.911  0.1609  0.0819  0.2401
 8969W        W11169  18.903   3.957  32.373 -0.3164  0.2015  0.0022
 8970W        W11170   3.860   5.861  10.070  0.0056  0.1381 -0.1414
 8971W        W11171   8.352   4.633  26.442  0.0185  0.0246 -0.1299
 8972W        W11172  18.365   1.546  31.895 -0.1363  0.1496 -0.0121
 8973W        W11173  14.135   4.984  29.030  0.2406 -0.0918 -0.2462
 8974W        W11174   0.205   4.840  25.939 -0.0199  0.1815  0.0973
 8975W        W11175   6.527   3.545   8.986 -0.1374 -0.1881 -0.1121
 8976W        W11176  14.459   4.511   4.534  0.0522 -0.0545  0.2203
 8977W        W11177  17.418   6.408  16.515  0.1834  0.2554 -0.0574
 8978W        W11178   5.871   7.606  32.209 -0.3562 -0.0896  0.2225
 8979W        W11179  19.151   1.771   3.885  0.3855  0.3155  0.2186
 8980W        W11180  12.032   1.849  25.635 -0.1096 -0.1973  0.0835
 8981W        W11181   5.620   5.216  25.331 -0.0555 -0.1509  0.1235
 8982W        W11182  22.707   5.818  24.379 -0.2084 -0.1056 -0.1403
 8983W        W11183   2.007   7.353  28.464 -0.1982  0.3139  0.0732
 8984W        W11184  19.058   1.906   6.700 -0.0038  0.1993  0.0576
 8985W        W11185  13.757   5.293  10.906 -0.0534 -0.0923 -0.2621
 8986W        W11186  11.221   6.329  20.143  0.1677  0.0450 -0.0891
 8987W        W11187  21.512   6.831  16.338 -0.2652 -0.0450  0.1311
 8988W        W11188  12.372   3.913  28.521  0.5653  0.2207 -0.1989
 8989W        W11189  23.112   4.309   9.797 -0.2176 -0.3091 -0.1270
 8990W        W11190   7.740   3.140  19.941 -0.0874 -0.1928 -0.1358
 8991W        W11191  16.157   0.597   7.494 -0.0988 -0.0104 -0.2142
 8992W        W11192  24.629   3.868   0.171  0.0876  0.1951 -0.1800
 8993W        W11193   5.104   6.042   4.020  0.0050  0.2677 -0.2844
 8994W        W11194   0.104   2.242   0.450  0.1616 -0.2004  0.1434
 8995W        W11195  22.442   5.377   4.196  0.1614  0.0037  0.3124
 8996W        W11196   5.042   0.034  24.535 -0.1492  0.0788  0.0998
 8997W        W11197   6.955   7.401  28.732 -0.0881 -0.0470 -0.3606
 8998W        W11198   8.038   1.115   6.053 -0.1639 -0.2237  0.1489
 8999W        W11199   9.325   5.976   6.467  0.0356 -0.3245  0.4043
 9000W        W11200   3.205   2.800  18.610  0.1975  0.0244 -0.1388
 9001W        W11201  19.016   0.839  23.070  0.2336 -0.2166  0.2300
 9002W        W11202  21.495   5.434  25.683 -0.2129  0.0346 -0.0672
 9003W        W11203  22.992   0.299   1.302  0.0717  0.0190  0.1023
 9004W        W11204   9.498   0.150  17.808  0.0668 -0.1575  0.1956
 9005W        W11205  17.042   3.410   6.395  0.2052 -0.2328  0.2675
 9006W        W11206  21.364   4.201  24.159  0.0503 -0.1214 -0.0984
 9007W        W11207  21.014   7.079  16.909 -0.0518  0.0434  0.5594
 9008W        W11208  17.424   2.737   1.483 -0.1945 -0.0667 -0.0439
 9009W        W11209   1.671   1.534  11.488  0.1331  0.2376 -0.0426
 9010W        W11210  11.358   2.851   3.634  0.3568 -0.1847  0.0544
 9011W        W11211  20.634   0.238  15.723  0.2634 -0.0550  0.0849
 9012W        W11212   2.454   2.332  22.771  0.0305 -0.2568  0.4154
 9013W        W11213   0.984   0.547  32.239 -0.0904  0.3095  0.3191
 9014W        W11214   6.012   2.270  21.602 -0.0023 -0.0357  0.0821
 9015W        W11215  19.612   2.375  28.298  0.2266  0.1964  0.0637
 9016W        W11216  10.379   5.935  16.635  0.0158 -0.1061 -0.1932
 9017W        W11217  23.434   6.164   2.742 -0.1927 -0.0161 -0.0227
 9018W        W11218  15.056   6.373   4.058  0.2931 -0.2410  0.0001
 9019W        W11219   7.819   3.590  21.596 -0.2354  0.0515 -0.1052
 9020W        W11220   4.917   4.633  19.398  0.0426  0.0519 -0.1360
 9021W        W11221  16.017   6.054  30.505  0.1941  0.0368  0.0899
 9022W        W11222  16.146   3.861   7.646  0.0659 -0.0069  0.1452
 9023W        W11223   3.118   5.225   1.894 -0.0692 -0.1359 -0.0696
 9024W        W11224  11.154   0.160  24.133 -0.0720 -0.2340  0.2415
 9025W        W11225   9.859   7.383  32.452 -0.3353  0.0727 -0.0083
 9026W        W11226  13.979   4.015  23.456  0.1337  0.0208 -0.0083
 9027W        W11227  17.838   7.613  14.754  0.2908 -0.0487 -0.0279
 9028W        W11228  20.331   7.707   7.986  0.0089 -0.1533  0.2708
 9029W        W11229   7.505   0.798   0.864  0.2390 -0.1459  0.1800
 9030W        W11230  16.419   3.776  23.641  0.3470  0.2048 -0.1232
 9031W        W11231  13.117   3.046  28.848  0.2487 -0.1516  0.3361
 9032W        W11232   9.630   2.752  15.756  0.0261  0.0508  0.0871
 9033W        W11233  17.564   3.687  14.495 -0.4094  0.1565 -0.1417
 9034W        W11234   3.531   2.435  11.301 -0.0621 -0.3104  0.0475
 9035W        W11235  14.538   5.111  12.125 -0.0774 -0.1213  0.0405
 9036W        W11236  14.232   6.789   3.937  0.0589 -0.1155  0.0374
 9037W        W11237  23.792   1.671   9.626 -0.1284  0.1468 -0.1603
 9038W        W11238   7.849   3.798   2.306 -0.2591  0.0386 -0.0691
 9039W        W11239   9.433   4.351   3.484  0.2662 -0.2616  0.0582
 9040W        W11240   8.985   6.647   9.416  0.2026  0.2877  0.2139
 9041W        W11241  14.078   1.686   9.766 -0.0223 -0.1529  0.1246
 9042W        W11242  20.027   7.805  14.870  0.0603 -0.1551 -0.2499
 9043W        W11243  10.301   2.302   6.971 -0.1572  0.1510 -0.0974
 9044W        W11244   6.624   3.792  19.619  0.0527 -0.0952 -0.1228
 9045W        W11245   7.626   2.106  27.527 -0.0383 -0.1322  0.0208
 9046W        W11246  14.543   2.302  11.619  0.0040  0.0804  0.0039
 9047W        W11247   6.753   5.941  17.707 -0.0989  0.0656 -0.1221
 9048W        W11248  18.118   3.456  12.191  0.1438  0.0474  0.0800
 9049W        W11249   3.287   6.734   8.167 -0.2518 -0.1865 -0.0686
 9050W        W11250  13.943   0.903  22.830  0.0623  0.0782 -0.1032
 9051W        W11251  10.392   7.009   2.979  0.0325  0.2340  0.1627
 9052W        W11252  18.014   0.986   9.821 -0.1891 -0.2463 -0.3489
 9053W        W11253  23.465   5.206   9.325  0.1031 -0.2808 -0.0527
 9054W        W11254   4.945   4.944  26.632 -0.1740  0.2360  0.0262
 9055W        W11255   9.636   5.381  25.702  0.0648  0.0893  0.0393
 9056W        W11256  18.058   6.739  16.062  0.1251 -0.1604 -0.0674
 9057W        W11257   9.947   5.226   7.476 -0.1331 -0.0288 -0.3383
 9058W        W11258   3.188   5.826  10.057 -0.1140  0.1272  0.0810
 9059W        W11259   3.902   5.300   0.092  0.0430  0.0602  0.0908
 9060W        W11260  15.687   4.916  14.998  0.1008 -0.0859 -0.0196
 9061W        W11261  14.669   1.762   7.734 -0.0454  0.0908  0.4844
 9062W        W11262  22.273   2.642  26.733  0.6668 -0.2234  0.2747
 9063W        W11263  21.311   0.909  17.015 -0.2964 -0.1952 -0.4226
 9064W        W11264  13.254   3.286  11.896  0.2879  0.0756  0.0230
 9065W        W11265   5.423   4.733  19.411  0.0633 -0.0029 -0.1319
 9066W        W11266   6.921   6.236   6.772  0.1173 -0.2305 -0.0434
 9067W        W11267   6.013   7.726  16.071 -0.0817  0.0322 -0.0602
 9068W        W11268  24.577   3.627   6.874  0.1817 -0.0004 -0.1228
 9069W        W11269   2.717   0.880  26.633  0.1006 -0.1116  0.0737
 9070W        W11270  11.148   0.178  20.668  0.0345 -0.0621  0.1943
 9071W        W11271  19.720   4.951   7.689  0.0597  0.0249  0.2265
 9072W        W11272   5.635   5.107  26.390 -0.4706  0.1244  0.1967
 9073W        W11273   9.505   0.123  23.231  0.1093  0.2039 -0.1369
 9074W        W11274  24.930   0.036  30.985 -0.2108 -0.0616 -0.0229
 9075W        W11275  10.460   4.893  11.014 -0.2599  0.0980  0.1518
 9076W        W11276  13.446   5.235  29.294 -0.2670  0.4174 -0.1172
 9077W        W11277  14.993   1.510   1.982  0.1859 -0.0189  0.2965
 9078W        W11278  22.361   0.347  26.420  0.1527 -0.1763 -0.2189
 9079W        W11279  13.375   1.193  32.033 -0.0634  0.0127  0.2444
 9080W        W11280  10.574   1.943   5.632 -0.0460  0.1300  0.0730
 9081W        W11281  16.428   0.878  27.552  0.3159 -0.0369 -0.2214
 9082W        W11282  24.887   4.742  23.284  0.1857 -0.0392  0.0664
 9083W        W11283  14.352   5.838   8.573 -0.0683  0.0106  0.2274
 9084W        W11284  23.391   4.938  11.696  0.0168  0.4138 -0.0347
 9085W        W11285  20.050   3.209  26.736 -0.1411  0.0727  0.0387
 9086W        W11286  14.348   5.079  11.133 -0.3822 -0.0324  0.1722
 9087W        W11287  10.271   5.373  29.241  0.1362 -0.1605  0.0830
 9088W        W11288  20.779   3.798  17.260  0.1406 -0.1268  0.0534
 9089W        W11289  23.163   7.471  10.474 -0.1345  0.1132  0.1102
 9090W        W11290   4.897   1.982  16.251  0.3935 -0.0664 -0.1609
 9091W        W11291   7.374   5.082  29.751  0.1256 -0.1857  0.2156
 9092W        W11292  12.186   7.372   5.595  0.2854  0.3450 -0.1482
 9093W        W11293  21.667   2.623  10.560 -0.0773  0.0591  0.0680
 9094W        W11294   6.559   7.331   8.240 -0.3052  0.1369  0.0850
 9095W        W11295  20.571   6.787   6.790 -0.0189  0.0429 -0.3104
 9096W        W11296  15.652   0.017   0.670  0.1660 -0.2370 -0.1058
 9097W        W11297   6.903   7.624   8.486 -0.0773  0.0646  0.0272
 9098W        W11298  22.991   5.273  14.062 -0.2313  0.4069  0.0204
 9099W        W11299   4.594   1.567   2.176 -0.0252  0.1073 -0.3696
 9100W        W11300   5.954   7.556   8.574 -0.1342  0.2187  0.1336
 9101W        W11301  25.014   0.028   8.448  0.3225  0.0916  0.0292
 9102W        W11302  21.452   5.897  25.897 -0.0781 -0.0545 -0.2464
 9103W        W11303   7.094   6.301  26.235  0.0423 -0.3184 -0.0456
 9104W        W11304   2.271   6.421   0.905  0.1828 -0.0823 -0.0591
 9105W        W11305  22.144   2.077   5.937  0.1228 -0.0555 -0.0953
 9106W        W11306   1.721   5.385  11.180 -0.1374  0.2101 -0.0040
 9107W        W11307  23.979   5.712   5.905 -0.1653 -0.1626  0.2012
 9108W        W11308  20.870   6.405  29.431  0.2089 -0.0185 -0.1116
 9109W        W11309   4.108   4.288  25.023  0.1935  0.1898  0.0621
 9110W        W11310   4.482   4.224   6.897  0.0077 -0.1579 -0.0667
 9111W        W11311  12.607   0.703   6.049 -0.1816 -0.2489  0.2380
 9112W        W11312   0.113   7.428   9.636  0.1846 -0.0257  0.5045
 9113W        W11313   8.533   2.474   7.303  0.1698 -0.2015  0.2851
 9114W        W11314   3.811   2.489   6.478  0.1262 -0.0276 -0.0434
 9115W        W11315  23.654   2.874  10.369 -0.0755  0.2656  0.2400
 9116W        W11316  12.118   0.835   8.708  0.0232 -0.1068 -0.1788
 9117W        W11317  17.325   6.334  14.087 -0.0735 -0.2131  0.1215
 9118W        W11318  14.907   6.991  14.336  0.0770 -0.0818  0.1867
 9119W        W11319   9.252   7.455  26.281 -0.1589  0.0017  0.1637
 9120W        W11320  15.614   0.485  22.094 -0.0105  0.0576  0.0058
 9121W        W11321  14.705   7.849  23.381  0.0362 -0.1892 -0.0936
 9122W        W11322   3.014   0.645  32.515  0.1152  0.1204 -0.2767
 9123W        W11323  24.975   3.834  20.966 -0.2716 -0.1243 -0.1936
 9124W        W11324  10.302   6.021  27.634 -0.0297  0.1280  0.0973
 9125W        W11325  14.342   5.013   6.792  0.2024 -0.0927  0.2712
 9126W        W11326   9.511   3.094  27.235 -0.0688 -0.2007  0.0476
 9127W        W11327   6.214   1.941   2.005 -0.1249 -0.1164  0.0245
 9128W        W11328  22.960   6.949   6.185  0.0326 -0.0994 -0.2623
 9129W        W11329  20.503   5.551   8.156 -0.0257 -0.1122  0.1249
 9130W        W11330   4.305   2.519   6.415 -0.0661  0.1727  0.1246
 9131W        W11331  10.885   2.035   5.973 -0.1177  0.2424 -0.1454
 9132W        W11332   7.871   6.224  27.809  0.0418 -0.0739  0.0787
 9133W        W11333   5.094   4.519  27.051  0.0706 -0.2303  0.2403
 9134W        W11334   0.434   6.405  12.415  0.0054 -0.4594 -0.1427
 9135W        W11335   4.406   4.177   5.558 -0.6658  0.3304 -0.0746
 9136W        W11336   7.080   2.123   4.849  0.1137  0.1105 -0.2321
 9137W        W11337  14.947   1.148  21.724 -0.0684  0.0332  0.0303
 9138W        W11338  20.841   3.113  29.958 -0.1558 -0.0048 -0.2012
 9139W        W11339   7.268   3.342   7.860 -0.1841 -0.1129  0.3186
 9140W        W11340   6.213   3.932  25.212  0.0180 -0.0764 -0.3838
 9141W        W11341  17.656   1.543   3.000  0.2256 -0.3641  0.1291
 9142W        W11342   6.019   5.096   6.311 -0.0858 -0.4012 -0.2449
 9143W        W11343  11.696   5.242   5.576 -0.0167  0.2023 -0.3122
 9144W        W11344  12.487   6.920  20.030 -0.0454  0.3007 -0.3099
 9145W        W11345  17.891   6.645  26.041  0.4269 -0.2512  0.0209
 9146W        W11346  18.834   6.798  31.058 -0.1253 -0.3203  0.2169
 9147W        W11347   7.983   6.804   4.133  0.0496 -0.3685 -0.3055
 9148W        W11348   5.124   3.270  32.307  0.2392  0.2689  0.3369
 9149W        W11349  18.262   0.694  30.035  0.0990  0.2248  0.3907
 9150W        W11350   0.367   6.085  22.016 -0.1226  0.1912  0.0423
 9151W        W11351  19.240   3.770  16.456 -0.2353 -0.0320 -0.0432
 9152W        W11352   8.468   4.143  15.520 -0.0665  0.2416  0.0547
 9153W        W11353   1.449   5.233  20.106 -0.1079 -0.0021 -0.1686
 9154W        W11354  20.519   5.366  14.926 -0.1124  0.1771 -0.2678
 9155W        W11355  17.328   4.147  16.387  0.1392 -0.0461  0.1121
 9156W        W11356   7.073   2.472  19.066 -0.0761  0.4398  0.0933
 9157W        W11357  22.934   2.585  16.393 -0.0168 -0.1862  0.1273
 9158W        W11358  13.849   2.135  26.868  0.2775 -0.0191  0.1486
 9159W        W11359  20.170   3.526  22.303 -0.0953 -0.1388  0.1023
 9160W        W11360   2.825   2.461  27.624 -0.1904  0.1351  0.3647
 9161W        W11361  23.024   2.567  15.173  0.2046 -0.0695 -0.0866
 9162W        W11362  19.256   4.931   4.027  0.0365  0.0503  0.2583
 9163W        W11363   7.014   0.777  21.037 -0.1725  0.0078 -0.0762
 9164W        W11364  20.413   2.226  10.061  0.2596  0.1923 -0.0187
 9165W        W11365   3.047   5.902  10.682 -0.0573 -0.2862 -0.0219
 9166W        W11366  20.869   6.886   1.528 -0.1801  0.0678 -0.2557
 9167W        W11367  25.151   5.443   3.424 -0.0794  0.0697 -0.1446
 9168W        W11368  16.943   0.687  23.859 -0.0573  0.1560  0.1384
 9169W        W11369   8.571   3.758  16.766  0.2651 -0.0329 -0.0962
 9170W        W11370  20.278   3.602  28.059  0.4596 -0.3308  0.3639
 9171W        W11371  15.076   2.352  29.014 -0.0793  0.1459 -0.0905
 9172W        W11372  12.512   1.935  19.416 -0.2247 -0.1527 -0.0732
 9173W        W11373  10.297   0.176   0.034  0.0002 -0.2853  0.2006
 9174W        W11374  11.678   2.675  25.929 -0.4692  0.1051  0.4889
 9175W        W11375  18.492   6.295   2.054  0.2873 -0.0812  0.1306
 9176W        W11376   5.721   0.884  17.086  0.1226 -0.1042 -0.0016
 9177W        W11377   4.006   5.077  17.260  0.0703  0.1773  0.0992
 9178W        W11378  22.858   7.323   7.575 -0.0293  0.1337  0.2621
 9179W        W11379  16.808   1.412   9.433 -0.0416 -0.0455 -0.1528
 9180W        W11380  17.147   5.917   2.509  0.2747  0.3370 -0.0806
 9181W        W11381  13.599   6.156  32.551 -0.0005  0.1418  0.3616
 9182W        W11382  21.198   1.860  12.800  0.0793  0.0392  0.0024
 9183W        W11383   4.915   5.990  22.285 -0.2386  0.0917 -0.0325
 9184W        W11384  10.652   3.637   9.203 -0.2465 -0.0752  0.1349
 9185W        W11385  11.604   2.111  23.634 -0.1163 -0.0009 -0.0360
 9186W        W11386  24.942   7.369   1.049  0.1148 -0.0912 -0.2175
 9187W        W11387  13.230   1.578  32.349 -0.1145  0.1278 -0.0876
 9188W        W11388  22.748   1.953   1.623  0.0186 -0.0555  0.3196
 9189W        W11389  15.277   0.951  24.772 -0.2066  0.0555 -0.0494
 9190W        W11390  21.649   5.332   2.721 -0.1755 -0.0550 -0.0350
 9191W        W11391  12.874   5.799  29.618 -0.3670 -0.2537  0.1496
 9192W        W11392   5.615   0.456  16.815  0.1555 -0.0718 -0.0335
 9193W        W11393   0.502   0.248  25.825  0.0027 -0.0288 -0.1927
 9194W        W11394   0.076   3.728  24.622  0.0653  0.1358  0.0295
 9195W        W11395  24.068   7.290   2.276  0.1440 -0.0226 -0.0420
 9196W        W11396  14.659   7.786   5.966  0.0617 -0.0358 -0.1098
 9197W        W11397  23.591   1.193  24.235 -0.0155 -0.7630  0.0614
 9198W        W11398  16.342   1.247   9.227 -0.0217  0.1645 -0.1180
 9199W        W11399   7.554   1.389   5.798 -0.1901  0.2498  0.2942
 9200W        W11400  15.855   6.145  14.830 -0.1577  0.2670  0.1263
 9201W        W11401  25.020   3.827  22.687 -0.2262 -0.0725  0.0458
 9202W        W11402  24.924   4.221   1.197  0.1972 -0.4001 -0.1235
 9203W        W11403   1.357   0.805  10.127 -0.0572  0.0326 -0.1430
 9204W        W11404  12.774   2.280  31.843  0.1258  0.2043 -0.1668
 9205W        W11405   8.638   3.313  16.595  0.2963  0.2262  0.0248
 9206W        W11406  14.443   1.128  10.975 -0.4218  0.0908 -0.3155
 9207W        W11407  18.147   3.210  22.242 -0.0274 -0.0815  0.1257
 9208W        W11408  12.425   0.781  27.191  0.0221  0.0065 -0.1313
 9209W        W11409  19.624   7.396   0.783 -0.1028 -0.0116 -0.0635
 9210W        W11410  17.607   7.147  31.727 -0.1843 -0.3960  0.0503
 9211W        W11411   7.523   4.140  22.045 -0.2033 -0.1627 -0.0989
 9212W        W11412  10.211   1.587   5.720  0.1143  0.1098 -0.3667
 9213W        W11413  19.829   2.648  11.753  0.2313  0.1410  0.0933
 9214W        W11414  11.019   7.601  26.457 -0.1755 -0.1933  0.1330
 9215W        W11415  17.890   7.661  10.878 -0.1465 -0.0341  0.1623
 9216W        W11416  15.477   0.527  29.387 -0.0985 -0.0578 -0.2561
 9217W        W11417  22.322   4.720   1.566  0.1390  0.1199 -0.1867
 9218W        W11418   9.198   6.287  29.349  0.0851  0.2499 -0.0046
 9219W        W11419  23.480   0.150  11.138  0.0582  0.2932 -0.0638
 9220W        W11420   7.726   0.169  27.559  0.0726  0.1467 -0.0976
 9221W        W11421  13.161   6.756   9.059 -0.4457  0.1652 -0.1143
 9222W        W11422   4.901   0.020   6.887  0.0783  0.1845 -0.2116
 9223W        W11423  16.581   6.705   4.138 -0.2631 -0.1353 -0.0518
 9224W        W11424  11.018   2.849  27.825  0.0087  0.0122  0.0346
 9225W        W11425   1.973   7.289  30.979  0.0155 -0.0379 -0.0864
 9226W        W11426  24.530   2.375  23.800 -0.1212 -0.0463 -0.1942
 9227W        W11427   5.846   4.368  28.464  0.0821  0.1718  0.3117
 9228W        W11428  17.205   4.381  28.484  0.0278 -0.1234  0.0640
 9229W        W11429   5.222   1.595   0.398 -0.0204  0.0833  0.0298
 9230W        W11430  16.420   1.387  29.198 -0.1245  0.0529  0.0814
 9231W        W11431   9.868   1.381  24.659  0.0221 -0.4427  0.1209
 9232W        W11432  20.220   3.858  30.717 -0.1199 -0.2612 -0.1544
 9233W        W11433   2.165   1.900  19.787  0.0050  0.2476 -0.1490
 9234W        W11434  16.563   6.102  29.734 -0.0971  0.0421 -0.1828
 9235W        W11435  19.441   5.607   1.014  0.3038 -0.0163  0.1551
 9236W        W11436  18.203   0.175  14.614 -0.2958  0.0813 -0.2543
 9237W        W11437  14.444   2.053  28.827  0.2080 -0.1734  0.0386
 9238W        W11438  21.252   4.209  14.764  0.0948  0.0756 -0.1079
 9239W        W11439   7.285   0.670  14.647  0.0845 -0.2209  0.0529
 9240W        W11440  17.526   4.528  30.272 -0.0237  0.1219  0.0894
 9241W        W11441  17.240   2.772  27.086  0.1339  0.2425 -0.3624
 9242W        W11442  18.901   7.116  14.658  0.3177  0.2891  0.0054
 9243W        W11443   3.868   4.616   4.276 -0.0495 -0.2155  0.2919
 9244W        W11444  21.838   1.441   7.530 -0.0726 -0.2791  0.1265
 9245W        W11445  14.807   0.815  22.433 -0.2544 -0.1494  0.1540
 9246W        W11446  10.421   5.187   1.322  0.1696 -0.1515  0.1569
 9247W        W11447  23.577   6.308  27.363 -0.0942  0.0175  0.0310
 9248W        W11448   5.736   4.992  31.859  0.0011  0.3083  0.1159
 9249W        W11449   7.543   4.121  20.678  0.1852 -0.0798 -0.0037
 9250W        W11450  23.565   4.727   2.413 -0.1954 -0.3685  0.1148
 9251W        W11451  15.897   4.838   7.379  0.0973  0.1496 -0.0445
 9252W        W11452   0.436   2.668   3.884 -0.0906  0.3860  0.1513
 9253W        W11453   2.941   4.988  10.736  0.3540  0.1035 -0.0987
 9254W        W11454   4.465   1.634   0.933 -0.1703  0.0209  0.2288
 9255W        W11455  21.689   3.872  31.676 -0.0694 -0.0477 -0.1922
 9256W        W11456   9.952   1.203  32.205  0.0493  0.1322  0.0523
 9257W        W11457   5.979   2.036  21.166 -0.0967 -0.1653  0.2587
 9258W        W11458   6.617   6.499  32.473  0.1277 -0.1437  0.1902
 9259W        W11459   1.861   2.466  28.798  0.1459  0.2843  0.4819
 9260W        W11460   9.323   3.447  20.501 -0.2320  0.3610 -0.1158
 9261W        W11461  22.234   0.948  15.426  0.0544 -0.3515  0.2279
 9262W        W11462  23.663   1.678   4.071 -0.1673  0.1331 -0.1918
 9263W        W11463  19.476   7.544  25.646  0.0063  0.1256  0.1574
 9264W        W11464  16.816   3.326   0.781  0.0186  0.1020 -0.1459
 9265W        W11465   3.976   0.115  30.182 -0.1997  0.1438 -0.0009
 9266W        W11466  15.145   3.831   2.124 -0.1624  0.2408 -0.3732
 9267W        W11467  16.987   7.332   4.205 -0.0605 -0.2748  0.1218
 9268W        W11468   9.063   7.303   2.579  0.2143 -0.3898  0.0080
 9269W        W11469  14.783   0.934  13.907  0.0382 -0.0449  0.2437
 9270W        W11470   6.248   6.819  24.464 -0.0528  0.2568  0.0499
 9271W        W11471   4.391   2.011  18.268  0.0089  0.1335  0.3541
 9272W        W11472   4.087   3.838  23.611  0.3459  0.1155  0.0442
 9273W        W11473   0.980   6.528  26.154 -0.3611  0.0438  0.0891
 9274W        W11474   9.234   5.607   1.111 -0.0327  0.2119  0.0206
 9275W        W11475   0.083   3.372   3.258 -0.1002 -0.0884 -0.1065
 9276W        W11476  19.654   6.000  15.284  0.0152 -0.1969 -0.0515
 9277W        W11477  21.294   4.353  27.565 -0.2896 -0.1031  0.1214
 9278W        W11478   2.165   6.294  28.026  0.2308  0.1306  0.1526
 9279W        W11479  19.556   4.760  24.017  0.0252 -0.0764  0.1511
 9280W        W11480  15.207   5.352   4.894  0.0439 -0.2571 -0.1114
 9281W        W11481  21.830   5.068  26.897 -0.1615 -0.1426 -0.0435
 9282W        W11482   0.907   2.786  25.865 -0.3430  0.1613 -0.2213
 9283W        W11483  11.370   1.923  26.790 -0.2955 -0.1351  0.0660
 9284W        W11484  16.897   5.990  13.316 -0.0363 -0.0409  0.0605
 9285W        W11485  16.289   5.216   9.440  0.0799  0.0839 -0.2680
 9286W        W11486  20.203   0.456  32.377  0.1434  0.0684 -0.0549
 9287W        W11487  18.119   3.551  13.876  0.0515 -0.0105 -0.2967
 9288W        W11488  18.950   2.632  12.144  0.1373 -0.2466  0.1032
 9289W        W11489  11.351   7.400   4.926 -0.2522 -0.1965  0.0683
 9290W        W11490  11.715   1.200   6.109 -0.0293  0.2929 -0.0933
 9291W        W11491   2.910   0.998   0.222  0.0841  0.0992 -0.0398
 9292W        W11492   0.045   5.921  14.030 -0.0690  0.3539  0.1894
 9293W        W11493   1.689   2.124  21.633 -0.2635 -0.0772  0.0786
 9294W        W11494  23.724   6.100  28.347  0.0955 -0.1299  0.0319
 9295W        W11495   6.964   2.737  24.583  0.0386 -0.0760  0.1721
 9296W        W11496   5.694   7.217  16.232 -0.1486 -0.1349  0.4122
 9297W        W11497  22.430   3.602   9.086 -0.0242 -0.1096 -0.2139
 9298W        W11498   5.979   5.427  24.898  0.1035  0.0174  0.0954
 9299W        W11499  24.100   1.060   4.809 -0.2713  0.0142  0.0952
 9300W        W11500   4.045   4.053   6.318 -0.0577  0.0128  0.2234
 9301W        W11501   4.209   0.381   8.646 -0.0391  0.0196 -0.3953
 9302W        W11502   4.807   1.531   5.959  0.1208  0.1282 -0.2175
 9303W        W11503   3.546   0.498  29.427 -0.0050  0.0492 -0.1482
 9304W        W11504  21.303   7.056  28.838 -0.0201  0.0164  0.0026
 9305W        W11505  13.466   3.408  24.295 -0.2403  0.0165  0.0198
 9306W        W11506  15.704   0.351   0.246 -0.1406 -0.1897 -0.0241
 9307W        W11507  21.333   1.633  11.842  0.0783 -0.0225  0.1606
 9308W        W11508   4.716   4.703   6.094  0.1860  0.4446 -0.0169
 9309W        W11509  21.437   2.539  27.739 -0.2214 -0.3375  0.0612
 9310W        W11510   1.137   0.426  24.787  0.0631 -0.1631 -0.0959
 9311W        W11511  12.726   1.966   9.183  0.2046 -0.0475  0.0347
 9312W        W11512  12.280   3.678  20.577 -0.1364 -0.1918  0.0242
 9313W        W11513   6.004   0.707  26.584  0.1217  0.0901 -0.0925
 9314W        W11514  18.718   0.333   7.401  0.0804  0.0988  0.2086
 9315W        W11515   0.726   3.078   9.236 -0.2181 -0.0793 -0.1580
 9316W        W11516   4.258   5.605  20.123 -0.0275 -0.0121 -0.0044
 9317W        W11517  16.378   1.703   6.632  0.2347  0.6800 -0.1350
 9318W        W11518  22.176   0.037   7.946 -0.1264 -0.1096 -0.0447
 9319W        W11519  17.119   7.451   7.773  0.0600 -0.0761 -0.0403
 9320W        W11520   5.613   6.025   3.191  0.0939  0.1935 -0.1995
 9321W        W11521   2.721   5.718   4.805 -0.2596  0.0436  0.0271
 9322W        W11522  14.447   1.447  10.011 -0.1348 -0.0939  0.3514
 9323W        W11523   2.657   4.005  29.846 -0.3813 -0.1905  0.3650
 9324W        W11524  16.046   3.413  23.883 -0.0116  0.2410  0.0631
 9325W        W11525  10.004   6.551   9.165 -0.0362 -0.2921  0.0629
 9326W        W11526  10.661   5.414  25.077  0.0178 -0.3977  0.0320
 9327W        W11527  19.739   3.383   3.480 -0.0333 -0.2146 -0.0162
 9328W        W11528   6.845   4.928  27.365  0.0240  0.0933  0.0145
 9329W        W11529  21.822   0.583   7.009  0.0191  0.5178  0.0766
 9330W        W11530  19.369   1.154  13.432  0.0410  0.2584 -0.2117
 9331W        W11531  23.395   4.983  28.710  0.0656 -0.4322  0.0963
 9332W        W11532  22.284   7.731  13.067 -0.2063 -0.1506  0.2332
 9333W        W11533  13.281   0.433   9.924 -0.0488 -0.4762 -0.3499
 9334W        W11534   3.370   3.577  27.075  0.1411 -0.0371  0.1874
 9335W        W11535  22.282   1.986  10.206  0.0640 -0.0611 -0.0680
 9336W        W11536  24.104   5.863   3.537  0.0429  0.0507  0.0577
 9337W        W11537   6.934   6.362   9.400  0.2286  0.1691 -0.0932
 9338W        W11538   5.651   4.581  14.758  0.4106 -0.0963  0.1601
 9339W        W11539   7.210   3.965  24.715 -0.2572  0.1648  0.3455
 9340W        W11540   9.874   5.553   7.151  0.0816  0.3001  0.2282
 9341W        W11541   0.119   1.226  20.133  0.2029 -0.0654 -0.3399
 9342W        W11542  14.827   4.472   4.913 -0.1475  0.2464  0.0690
 9343W        W11543   7.359   3.820  17.805  0.2783  0.0994  0.2276
 9344W        W11544  19.765   3.158   3.048  0.0476  0.0002 -0.0989
 9345W        W11545   4.737   1.239  23.349 -0.3155  0.0670 -0.1084
 9346W        W11546   5.371   3.600   7.767  0.0885 -0.0379 -0.2322
 9347W        W11547   0.443   6.741   7.110 -0.1268 -0.1214  0.0276
 9348W        W11548  23.524   7.463   2.296 -0.2251  0.0415  0.3062
 9349W        W11549  22.202   2.080  26.494 -0.1203 -0.0947 -0.3831
 9350W        W11550  24.960   7.288  24.753  0.1115  0.0608  0.0484
 9351W        W11551   0.478   2.246  30.903 -0.1410  0.0472  0.2992
 9352W        W11552   1.518   0.181  26.542 -0.0487  0.3120  0.2580
 9353W        W11553  23.499   6.737  25.547  0.0511  0.1183 -0.0349
 9354W        W11554   6.951   1.915  23.343 -0.1739 -0.3342 -0.1719
 9355W        W11555  17.817   2.699  12.023 -0.1365  0.0109 -0.2131
 9356W        W11556  13.692   2.222  28.645 -0.0464 -0.0812 -0.0085
 9357W        W11557  14.337   6.614   0.522 -0.1476 -0.0911 -0.0785
 9358W        W11558  12.294   4.339   9.959 -0.1348  0.0736 -0.2523
 9359W        W11559   8.816   6.166  20.984 -0.1181 -0.1259  0.0820
 9360W        W11560   4.166   2.963  27.544 -0.0256  0.0684 -0.0748
 9361W        W11561   2.592   6.583  27.468 -0.0486  0.1720 -0.0978
 9362W        W11562  20.513   6.733  12.853 -0.2553  0.2619  0.0167
 9363W        W11563  20.905   6.255  28.073 -0.0921  0.0177 -0.1884
 9364W        W11564  12.793   5.490   2.775 -0.2381  0.0999  0.2201
 9365W        W11565  19.453   7.384  23.545  0.0970 -0.2546 -0.1632
 9366W        W11566  21.573   4.535  10.393 -0.1293  0.2521 -0.0539
 9367W        W11567  10.327   6.729  21.084  0.1257 -0.0906  0.0141
 9368W        W11568  15.625   1.028  31.984 -0.0033 -0.1435 -0.0039
 9369W        W11569   9.194   0.078   8.561  0.2130 -0.1831 -0.1903
 9370W        W11570  12.816   2.954   8.858  0.2290  0.0567 -0.0046
 9371W        W11571   4.452   5.795  15.212 -0.0700 -0.1689  0.1991
 9372W        W11572  19.864   0.211  24.314 -0.1283 -0.0669  0.1213
 9373W        W11573  24.268   6.072   6.868 -0.0229  0.0396  0.1049
 9374W        W11574  15.991   0.519  24.613  0.0181 -0.0472 -0.2703
 9375W        W11575  19.224   6.540   6.571  0.2649  0.0890  0.1452
 9376W        W11576   4.951   4.503  25.355  0.0587 -0.1155  0.1218
 9377W        W11577   4.357   1.374  31.621  0.2955 -0.0620  0.2976
 9378W        W11578  24.661   6.126   1.721  0.0084  0.2195 -0.0731
 9379W        W11579   4.266   2.392   7.362  0.1417 -0.2483  0.0320
 9380W        W11580   9.025   4.140  26.229 -0.1463  0.1527 -0.0026
 9381W        W11581  24.597   0.341  22.224  0.0515 -0.0045 -0.0408
 9382W        W11582  14.454   7.008   7.797 -0.2558  0.1008  0.1368
 9383W        W11583  21.408   5.999  16.916 -0.4596 -0.1600  0.1137
 9384W        W11584  22.229   7.072  24.981 -0.0799 -0.1392  0.2956
 9385W        W11585  25.141   4.183   8.864 -0.4680  0.0467  0.0687
 9386W        W11586  13.118   2.995  22.051  0.0392  0.0762 -0.0309
 9387W        W11587   7.217   3.453  31.567 -0.0118  0.1619 -0.3042
 9388W        W11588  15.809   1.184  10.448 -0.1899 -0.2728  0.0334
 9389W        W11589   8.746   5.817  25.388 -0.1008  0.0879  0.1876
 9390W        W11590   8.268   6.868   7.339 -0.3473  0.1723 -0.1738
 9391W        W11591  22.713   7.766  29.689 -0.0527 -0.3415  0.0040
 9392W        W11592   6.539   5.454  30.190 -0.0604  0.1658 -0.2514
 9393W        W11593   7.112   0.790  30.618  0.1510  0.0705 -0.1995
 9394W        W11594   8.411   7.128  23.905  0.3807 -0.0765 -0.1543
 9395W        W11595  12.593   4.496   1.130 -0.0414  0.0832  0.3307
 9396W        W11596  23.822   6.968   8.622 -0.0208 -0.0173  0.2685
 9397W        W11597  19.157   2.382   1.322  0.0144 -0.0859 -0.1079
 9398W        W11598  23.590   5.317   8.801 -0.0692 -0.1809 -0.0598
 9399W        W11599   5.667   6.676  23.266 -0.0869 -0.0956 -0.0352
 9400W        W11600  24.841   4.815  31.506 -0.3721  0.1473 -0.0570
 9401W        W11601  24.477   5.797   8.587 -0.1028  0.2435  0.1114
 9402W        W11602   8.108   2.745   3.567 -0.1283  0.0070 -0.1642
 9403W        W11603  20.754   4.944  26.625  0.0907  0.2063  0.1057
 9404W        W11604  23.233   5.354  26.000  0.0909  0.0256  0.1518
 9405W        W11605  16.475   1.127   9.783  0.0098  0.2176  0.2354
 9406W        W11606   5.683   4.745   6.457  0.0882  0.0497 -0.0854
 9407W        W11607  19.818   1.425  29.539  0.2092  0.0149 -0.0605
 9408W        W11608   0.324   1.445   2.701  0.3876  0.0186  0.4559
 9409W        W11609  15.728   0.786  32.463  0.0881 -0.0886  0.0326
 9410W        W11610  12.680   7.247  12.347 -0.0807 -0.1431 -0.0466
 9411W        W11611  10.148   6.110   4.650 -0.0219 -0.1522  0.2529
 9412W        W11612   8.303   2.973   7.738  0.2913 -0.2857  0.0192
 9413W        W11613   6.940   0.448  20.209 -0.0803 -0.2251 -0.1576
 9414W        W11614  11.636   6.074  22.417 -0.0812  0.1092  0.0370
 9415W        W11615  14.370   1.183  26.704 -0.0572  0.0990 -0.1065
 9416W        W11616  20.776   2.148   4.277  0.0130 -0.0611 -0.0142
 9417W        W11617   0.368   6.061   6.154 -0.0536  0.0421 -0.0899
 9418W        W11618  11.237   5.117  17.371 -0.2843 -0.2111  0.0416
 9419W        W11619  21.006   3.256  17.416 -0.0709 -0.0306 -0.3420
 9420W        W11620  14.579   4.619   9.955  0.1319  0.2100 -0.0831
 9421W        W11621  24.260   0.489   8.950 -0.0345  0.1053  0.0045
 9422W        W11622   0.761   3.453   5.542 -0.1975 -0.1060  0.0717
 9423W        W11623  22.345   3.080  22.796 -0.2550 -0.0282  0.0100
 9424W        W11624  12.049   1.229   1.931  0.1878  0.1711 -0.0965
 9425W        W11625  13.959   4.776  22.475  0.1725  0.2475  0.1008
 9426W        W11626  22.408   2.060  25.996 -0.1944 -0.5470 -0.0284
 9427W        W11627   9.297   7.457  19.903  0.1006 -0.1733 -0.1789
 9428W        W11628   3.415   1.066   0.077 -0.1683 -0.1238  0.1547
 9429W        W11629  19.956   5.950  14.254  0.2879 -0.1306  0.1336
 9430W        W11630   8.430   5.829   4.444 -0.0329  0.1222 -0.1813
 9431W        W11631   7.295   3.270   2.048 -0.0230 -0.1460 -0.0613
 9432W        W11632   7.417   4.269  17.589  0.2152  0.3135  0.1167
 9433W        W11633   5.329   7.133   4.173  0.3176 -0.0514  0.0248
 9434W        W11634   2.543   2.750   8.124 -0.2892  0.3930  0.0641
 9435W        W11635   9.245   3.257  15.081  0.1224  0.0876 -0.3513
 9436W        W11636   6.360   5.848  22.281  0.0598 -0.1347 -0.2683
 9437W        W11637  24.422   6.724  26.825 -0.0430  0.0848 -0.0402
 9438W        W11638   7.363   7.272  26.460  0.0281 -0.1447 -0.0579
 9439W        W11639  12.173   7.285   4.335  0.0097  0.0378 -0.1012
 9440W        W11640  10.507   1.177  18.774  0.1760 -0.0837 -0.0374
 9441W        W11641  12.504   7.168   3.304  0.0521  0.1262 -0.0111
 9442W        W11642   3.186   5.892   4.189  0.0588  0.3088 -0.1322
 9443W        W11643  13.686   4.230  19.495 -0.2477  0.0198  0.0440
 9444W        W11644  20.152   5.034  14.087 -0.0113  0.1168 -0.2373
 9445W        W11645  25.064   3.263  32.322 -0.1467 -0.1087  0.1211
 9446W        W11646   1.170   5.573  30.811  0.0488  0.1892  0.3435
 9447W        W11647   0.241   1.825  12.582  0.0361  0.2051  0.1395
 9448W        W11648  11.208   1.012   4.236  0.2405  0.0438  0.1035
 9449W        W11649   2.298   6.128   4.527 -0.1779 -0.0404 -0.0711
 9450W        W11650  24.664   2.721  26.748 -0.2953  0.0906 -0.4950
 9451W        W11651  12.867   0.580   8.336  0.2041  0.1584  0.5670
 9452W        W11652  13.712   4.466  12.151  0.2173  0.2279  0.0854
 9453W        W11653   6.885   4.755   0.191  0.0090  0.0310 -0.2455
 9454W        W11654   2.357   4.920  26.948 -0.3963  0.0782 -0.1448
 9455W        W11655   9.784   0.507  24.128 -0.1269 -0.0442  0.0271
 9456W        W11656  23.590   6.828   7.102 -0.0442  0.1536  0.3372
 9457W        W11657   0.294   0.094  19.409  0.0284  0.1861  0.0081
 9458W        W11658  21.189   7.829  22.860 -0.2193  0.2928 -0.1048
 9459W        W11659  20.330   3.580  28.572 -0.1177  0.0322  0.0291
 9460W        W11660  16.677   4.380  17.174 -0.4307  0.1857 -0.0822
 9461W        W11661  22.813   6.804   8.909 -0.0452 -0.0417 -0.2539
 9462W        W11662   1.030   5.452  21.895  0.2202  0.4705  0.1170
 9463W        W11663  19.122   1.687   8.909  0.1913 -0.1383 -0.1168
 9464W        W11664  20.878   7.432  26.782  0.2537 -0.2171 -0.1618
 9465W        W11665  23.944   3.342  13.547  0.1531 -0.0211  0.1410
 9466W        W11666  18.332   5.052   6.132  0.2405 -0.0299 -0.1628
 9467W        W11667   1.414   3.954   8.201  0.1216  0.0450 -0.0367
 9468W        W11668  17.893   1.599   5.776  0.3336  0.2179  0.4617
 9469W        W11669  22.245   1.225   3.788  0.2071 -0.0421  0.1101
 9470W        W11670   9.142   1.435   3.670  0.1607  0.1633 -0.1992
 9471W        W11671   8.990   7.721  27.028 -0.1264 -0.0585  0.1500
 9472W        W11672  20.929   3.903  14.454 -0.2030  0.0450  0.0336
 9473W        W11673   1.697   7.339  21.157 -0.0699  0.0385  0.3219
 9474W        W11674  16.255   3.055  27.805 -0.1690 -0.0047 -0.2943
 9475W        W11675  18.998   0.607  24.377  0.1776 -0.0215  0.4553
 9476W        W11676  23.577   0.427  30.475 -0.0585 -0.2728 -0.0049
 9477W        W11677  22.374   0.591   2.432 -0.1061 -0.1360 -0.1960
 9478W        W11678   3.299   7.480   7.916 -0.2285  0.4351  0.1645
 9479W        W11679   2.381   1.604  29.057 -0.0113  0.0644 -0.0359
 9480W        W11680  16.336   6.151   6.172 -0.0610  0.1506  0.5620
 9481W        W11681  20.320   4.895   2.309 -0.2660 -0.1995  0.0839
 9482W        W11682  25.045   3.001  22.949 -0.0908  0.1000  0.0965
 9483W        W11683  24.396   4.504   2.089  0.3930  0.1154 -0.2576
 9484W        W11684  10.967   2.102  23.926  0.0395  0.0325  0.1789
 9485W        W11685  23.755   4.690  13.785  0.2915 -0.0113  0.1849
 9486W        W11686   0.557   5.992  32.225 -0.2272 -0.0921  0.1433
 9487W        W11687  14.248   5.071   1.769  0.0385 -0.2478 -0.2183
 9488W        W11688   8.928   3.212   5.500 -0.0170  0.0088  0.0843
 9489W        W11689  15.748   7.343  29.110  0.2902 -0.1113 -0.1280
 9490W        W11690   4.108   2.894   8.508 -0.0717  0.0389 -0.0342
 9491W        W11691   5.349   2.460  21.796  0.1876 -0.2877 -0.0945
 9492W        W11692  10.061   6.725  18.719 -0.1231 -0.0458  0.0973
 9493W        W11693   0.648   0.742  28.944 -0.2630  0.2023  0.2049
 9494W        W11694  17.425   5.479  10.123 -0.2697  0.1770 -0.1421
 9495W        W11695  14.839   5.833  31.090 -0.1281 -0.3344 -0.1943
 9496W        W11696  21.948   0.065   6.478 -0.1538 -0.0686 -0.1739
 9497W        W11697   9.329   0.076   0.593  0.0945  0.0425  0.0091
 9498W        W11698  17.132   0.923   5.813  0.1255  0.0788  0.1093
 9499W        W11699   1.223   6.325  11.081  0.1274 -0.3079  0.2262
 9500W        W11700  14.398   4.866  13.036  0.1518  0.3771  0.3411
 9501W        W11701   3.336   1.900   0.188  0.0648  0.2484 -0.0567
 9502W        W11702   2.662   2.104  11.706  0.0405  0.0944 -0.2280
 9503W        W11703  19.849   4.407  17.528  0.0077  0.1243  0.4280
 9504W        W11704  16.004   2.481   5.659 -0.1432  0.0265  0.0831
 9505W        W11705  20.401   5.408  25.683  0.0084  0.0358  0.0231
 9506W        W11706   0.149   6.271  25.169  0.3193  0.4085 -0.1502
 9507W        W11707   9.755   3.736   5.297 -0.0781  0.2820 -0.2001
 9508W        W11708  12.652   7.686  32.458 -0.2533 -0.1582 -0.0556
 9509W        W11709   5.283   7.516   5.011 -0.2662  0.2269 -0.2639
 9510W        W11710   6.689   0.297   4.466 -0.5502 -0.0211  0.1429
 9511W        W11711  20.039   1.236  11.495  0.2999  0.0498  0.1795
 9512W        W11712   4.439   6.762   0.018  0.2473  0.1782  0.0171
 9513W        W11713   7.335   5.871  26.566 -0.1094 -0.0334  0.2724
 9514W        W11714  24.362   0.836   6.004 -0.0985  0.0891  0.1949
 9515W        W11715  18.245   4.518   5.978 -0.2685 -0.0358 -0.0125
 9516W        W11716   3.821   0.252  10.069 -0.2965  0.1522  0.2421
 9517W        W11717  20.016   7.420  23.520 -0.3421  0.0458 -0.2184
 9518W        W11718  16.147   0.902   1.540 -0.1180 -0.3856 -0.2704
 9519W        W11719  13.415   5.368   4.169 -0.0517  0.0150 -0.0115
 9520W        W11720  22.172   6.385   9.972 -0.1960 -0.0552  0.0112
 9521W        W11721  15.829   7.025  15.892  0.0627  0.0667  0.0673
 9522W        W11722   7.467   3.715  15.277 -0.3384  0.0061  0.3284
 9523W        W11723   4.634   0.766  26.307 -0.2583 -0.0447 -0.1774
 9524W        W11724  13.996   6.398  28.959  0.2338 -0.0828  0.1302
 9525W        W11725  13.015   7.575  12.693 -0.1297  0.1977  0.1831
 9526W        W11726  17.739   2.910  22.495 -0.2088  0.1655  0.5715
 9527W        W11727  10.074   1.602  31.993  0.1304 -0.1262 -0.0680
 9528W        W11728  18.319   0.369   4.702  0.1980 -0.2080 -0.0787
 9529W        W11729  22.726   1.437  29.459  0.0133  0.0786  0.1131
 9530W        W11730  23.629   3.932   2.465 -0.3706 -0.0711 -0.2274
 9531W        W11731  10.552   1.917   7.300 -0.2342 -0.0949 -0.1450
 9532W        W11732  12.325   2.274   9.199  0.2944  0.0810  0.1912
 9533W        W11733   3.576   4.955   0.258 -0.2113  0.1423 -0.1020
 9534W        W11734  19.585   0.047   0.808  0.0991 -0.0542 -0.3305
 9535W        W11735   2.392   2.471  24.234 -0.2141 -0.1293 -0.0375
 9536W        W11736  19.653   1.813  25.353 -0.1518  0.0982 -0.1532
 9537W        W11737   2.131   1.908   9.170 -0.2783  0.1257 -0.0403
 9538W        W11738   0.714   7.822  10.260 -0.1605  0.0180  0.3386
 9539W        W11739  21.507   4.762  27.180  0.5003 -0.0414  0.0106
 9540W        W11740  18.985   6.211   2.041  0.3744  0.1751 -0.2746
 9541W        W11741   2.194   1.564   5.111  0.0895 -0.0500  0.2607
 9542W        W11742   4.064   7.518   0.635  0.1249  0.3402 -0.2885
 9543W        W11743   0.744   7.525  25.157  0.0734 -0.2472  0.4513
 9544W        W11744  16.936   6.538  31.356 -0.1234 -0.0056 -0.0336
 9545W        W11745  25.062   5.958  24.427 -0.1750 -0.2506  0.1526
 9546W        W11746  18.271   4.673   1.835  0.1185  0.0206  0.1376
 9547W        W11747  20.924   2.481   9.915 -0.2418  0.1105 -0.0296
 9548W        W11748  14.666   5.618   3.545 -0.1327 -0.2410  0.4144
 9549W        W11749  10.623   4.486   8.314  0.1612  0.0911  0.0389
 9550W        W11750  22.728   7.343  30.774 -0.0887  0.1911  0.4354
 9551W        W11751  19.572   7.594  24.040  0.1797 -0.0483  0.0024
 9552W        W11752  12.583   6.765  26.104  0.3028  0.2204  0.1316
 9553W        W11753   0.044   4.035  24.194  0.1054 -0.1218 -0.0893
 9554W        W11754  12.721   6.484  11.913 -0.0713  0.2227 -0.1905
 9555W        W11755  20.251   7.662  32.188 -0.0054  0.1984 -0.1040
 9556W        W11756  17.221   2.254   1.642  0.0754  0.1711  0.0342
 9557W        W11757  16.949   3.521  22.632  0.2221 -0.2607 -0.0054
 9558W        W11758  16.598   4.298   1.204  0.0797 -0.2851 -0.1572
 9559W        W11759   9.271   5.386   5.486  0.2721 -0.2231 -0.2906
 9560W        W11760  14.559   4.601  13.644  0.2869  0.1224  0.1030
 9561W        W11761   0.097   1.682  30.499 -0.1808  0.0317  0.0233
 9562W        W11762   0.820   0.831   9.886  0.2193 -0.0864  0.0450
 9563W        W11763  10.251   5.910  32.487 -0.1482  0.1825  0.2336
 9564W        W11764   3.280   7.217  17.385 -0.4714  0.0476 -0.1981
 9565W        W11765   5.967   1.198  22.628 -0.1149 -0.2723  0.0627
 9566W        W11766  20.803   4.509   6.969 -0.2143  0.2436  0.0905
 9567W        W11767   7.217   2.876   8.987 -0.0169  0.2326 -0.0485
 9568W        W11768   1.290   2.636   5.463  0.0703  0.0427  0.2416
 9569W        W11769  19.276   7.154  30.129  0.0609 -0.1136  0.0885
 9570W        W11770  12.439   6.768  23.346  0.3177 -0.1659 -0.0409
 9571W        W11771  10.449   6.711   8.992  0.0280 -0.1821  0.1923
 9572W        W11772  17.777   6.152  23.771  0.4111  0.0592 -0.0138
 9573W        W11773   0.810   4.956  24.522  0.1358 -0.0076  0.0752
 9574W        W11774   9.531   5.279  17.363 -0.1303 -0.0678  0.0918
 9575W        W11775  21.329   3.235   6.672 -0.4513  0.1597 -0.2275
 9576W        W11776   1.981   6.392   6.603  0.0045 -0.1094 -0.0664
 9577W        W11777  21.606   4.068   6.422  0.0443  0.0485 -0.0414
 9578W        W11778  19.445   3.637  10.666 -0.0270 -0.2137  0.3455
 9579W        W11779   6.171   1.121   5.537  0.0638  0.1360  0.1599
 9580W        W11780   8.720   6.391  19.302 -0.1858  0.3232  0.0355
 9581W        W11781  16.917   5.270   8.096 -0.0134 -0.0094 -0.0515
 9582W        W11782   2.171   6.431  31.218  0.1425  0.0022  0.2176
 9583W        W11783  22.292   3.336  15.391 -0.1994  0.1570 -0.0995
 9584W        W11784   9.640   6.077  21.063 -0.0344 -0.1871  0.1358
 9585W        W11785  23.132   3.126  12.094  0.0541  0.0100  0.1165
 9586W        W11786   6.056   5.740  28.648 -0.4054  0.0067  0.1068
 9587W        W11787  12.786   1.865  26.094 -0.0543  0.1938 -0.0797
 9588W        W11788  10.881   5.725  24.776 -0.1260 -0.3395 -0.1509
 9589W        W11789  16.043   5.452   4.492 -0.0897 -0.2144 -0.3816
 9590W        W11790   9.395   5.718   9.264  0.3757 -0.0318  0.2160
 9591W        W11791  14.412   1.611  29.733  0.1246 -0.0191  0.0225
 9592W        W11792  21.074   0.174  23.906  0.1563 -0.0555  0.1635
 9593W        W11793   0.750   0.686  26.161 -0.0912  0.4199 -0.1178
 9594W        W11794   5.903   3.189   3.733 -0.1025 -0.0559  0.3314
 9595W        W11795   2.528   2.814  28.394 -0.0906 -0.3953 -0.0193
 9596W        W11796  15.745   2.935   4.484  0.4506 -0.1934  0.1283
 9597W        W11797   5.650   1.069   4.744  0.3159  0.3994  0.0470
 9598W        W11798   3.247   5.638   4.747  0.2113  0.2089  0.0944
 9599W        W11799  19.519   1.003   6.265  0.2282 -0.1786  0.0433
 9600W        W11800  13.862   7.438  31.426  0.0247  0.1786  0.0527
 9601W        W11801  19.633   5.141  23.513 -0.0623 -0.1829  0.1848
 9602W        W11802  24.645   7.514  20.445 -0.1669  0.0650 -0.1442
 9603W        W11803  17.950   0.121   7.850  0.3314 -0.1173  0.1612
 9604W        W11804  19.080   0.005  23.106  0.0822 -0.2265  0.0386
 9605W        W11805   0.498   2.273   1.420 -0.1833  0.1648  0.1369
 9606W        W11806  17.721   6.275   9.389  0.0407  0.0536  0.2261
 9607W        W11807  11.053   0.182  20.149 -0.1557  0.0195 -0.2735
 9608W        W11808  16.047   0.324  12.557  0.1066 -0.3437  0.3112
 9609W        W11809  15.972   7.819  13.425 -0.0587  0.1484  0.3307
 9610W        W11810   5.673   6.227  31.925  0.1736  0.2103 -0.0746
 9611W        W11811  13.464   7.540   5.336 -0.0333  0.0898 -0.2666
 9612W        W11812  14.248   1.113   3.739 -0.0842 -0.0092  0.1062
 9613W        W11813  20.229   5.329   3.558  0.3406 -0.2412 -0.0121
 9614W        W11814   3.409   1.038  23.215 -0.2423  0.0305  0.0086
 9615W        W11815   0.004   5.151  23.389  0.0040 -0.1142 -0.0101
 9616W        W11816  20.379   7.384  26.719  0.1728  0.0292 -0.1379
 9617W        W11817  14.599   5.314   8.015 -0.0206  0.1151 -0.2922
 9618W        W11818  16.984   3.476  23.891 -0.0542  0.0537  0.1770
 9619W        W11819  15.288   4.415  31.943 -0.0877 -0.1003 -0.1407
 9620W        W11820  18.449   3.833   8.461  0.0142  0.2289  0.0496
 9621W        W11821  19.230   0.771  11.128  0.0346  0.2563 -0.0344
 9622W        W11822   7.471   5.107  21.556 -0.0444  0.1811 -0.0023
 9623W        W11823  16.719   7.314   7.989 -0.0375 -0.2489 -0.0709
 9624W        W11824   1.750   0.475  19.357  0.2841  0.0499  0.0470
 9625W        W11825  23.455   7.655  22.143  0.0304 -0.1797 -0.1121
 9626W        W11826  17.490   6.086  29.554  0.4054  0.2003 -0.0876
 9627W        W11827   2.135   3.914  18.142  0.1229  0.0647  0.1693
 9628W        W11828   9.952   1.379   8.530  0.0187  0.0166  0.1643
 9629W        W11829  13.121   2.602  19.462  0.3234  0.4531 -0.1434
 9630W        W11830  10.731   2.869   1.293  0.1669 -0.1265  0.1198
 9631W        W11831   1.660   7.703  32.270 -0.1524 -0.1387 -0.3130
 9632W        W11832  24.771   7.279   6.732  0.0135  0.2319  0.0655
 9633W        W11833  23.337   5.758  14.714  0.0590  0.2685 -0.0756
 9634W        W11834   9.303   6.689  32.414  0.2032  0.1450  0.0545
 9635W        W11835  13.228   3.627  27.272 -0.1713  0.0083 -0.0215
 9636W        W11836   3.933   5.617   2.939  0.0786  0.0494 -0.1249
 9637W        W11837   1.110   5.404  11.085  0.2453 -0.0471 -0.3472
 9638W        W11838   0.666   3.524  12.365  0.1616 -0.0456  0.1303
 9639W        W11839  10.829   1.268   3.116 -0.5290  0.2000 -0.2224
 9640W        W11840  18.258   6.017   9.105 -0.0777 -0.1037 -0.0403
 9641W        W11841  14.310   1.778   3.215 -0.0273  0.3885 -0.2871
 9642W        W11842  20.797   6.744   5.775  0.1144 -0.0364 -0.0443
 9643W        W11843  19.380   0.848  28.757  0.0177 -0.3416 -0.0485
 9644W        W11844  23.695   2.149  22.864 -0.0081 -0.1873 -0.1112
 9645W        W11845  18.871   0.894  28.370 -0.3144 -0.1009 -0.0168
 9646W        W11846   8.158   2.480   2.515 -0.0059  0.0335 -0.1337
 9647W        W11847  25.127   3.194  27.389  0.1780 -0.0819 -0.0577
 9648W        W11848   9.795   0.560  24.646  0.1408  0.2780  0.1081
 9649W        W11849   3.056   4.142   6.513  0.1319 -0.1172 -0.3603
 9650W        W11850  14.672   3.742   2.909  0.3669 -0.0172  0.2422
 9651W        W11851  19.925   4.028  15.281 -0.2027  0.0753 -0.1277
 9652W        W11852   7.151   2.395   4.141 -0.0426  0.1292  0.1578
 9653W        W11853  14.201   5.332   5.277 -0.2172 -0.0100 -0.0301
 9654W        W11854   7.014   0.234  22.120 -0.3168 -0.0208  0.0910
 9655W        W11855  20.916   4.911  32.400 -0.3138 -0.4083 -0.2393
 9656W        W11856   4.366   5.704   3.399 -0.2080  0.1568  0.1301
 9657W        W11857  18.264   6.658   2.366  0.2179 -0.0265 -0.1678
 9658W        W11858  15.458   7.333  28.201 -0.1064 -0.3232 -0.0676
 9659W        W11859   7.397   6.692  16.623 -0.0438 -0.1273 -0.2415
 9660W        W11860  13.549   6.153  12.281  0.2338 -0.1735 -0.0960
 9661W        W11861   4.074   6.948  24.548  0.0303  0.0244 -0.2103
 9662W        W11862   5.342   3.810  27.274  0.0244 -0.0689  0.0171
 9663W        W11863   9.087   6.204  28.889 -0.1366 -0.0616 -0.1661
 9664W        W11864   1.860   7.703  21.633 -0.1025  0.0179  0.1338
 9665W        W11865   6.898   2.974  15.605 -0.2600  0.1010  0.0642
 9666W        W11866   2.655   2.136   0.262  0.0960 -0.1587  0.0121
 9667W        W11867   1.408   1.766  22.568  0.0282  0.2487 -0.0221
 9668W        W11868   0.540   0.732   1.146 -0.1094 -0.1978  0.3763
 9669W        W11869  23.163   4.305  32.214 -0.0818  0.1493 -0.0871
 9670W        W11870  20.181   6.963  22.726 -0.0552 -0.1460 -0.2387
 9671W        W11871   6.237   6.808   3.241 -0.0524 -0.1984  0.1139
 9672W        W11872  19.722   1.381  32.170 -0.1659  0.1223 -0.2514
 9673W        W11873  21.945   3.644  23.233 -0.2192 -0.0774  0.1541
 9674W        W11874  20.752   6.858  32.201 -0.2883 -0.0687  0.0140
 9675W        W11875   7.112   4.498   2.297  0.1916 -0.0189 -0.0691
 9676W        W11876   3.151   5.589   2.285  0.2858  0.0210  0.3339
 9677W        W11877  16.043   4.917   4.272  0.0961 -0.0059  0.1455
 9678W        W11878  15.257   7.166   2.267  0.0763 -0.1308 -0.0383
 9679W        W11879  15.326   2.254   7.970 -0.0446  0.0990  0.1761
 9680W        W11880  18.517   5.661   2.743  0.1354 -0.3076 -0.0070
 9681W        W11881   2.632   0.112  11.741  0.1496 -0.0303  0.1384
 9682W        W11882  19.874   7.046   7.902 -0.2389  0.0208  0.1494
 9683W        W11883   8.434   4.257  22.106  0.2250  0.2406 -0.0508
 9684W        W11884  10.951   1.589  10.908  0.0519  0.3391 -0.3587
 9685W        W11885  23.304   6.091  30.227  0.1764  0.3179  0.1973
 9686W        W11886  23.003   1.886   9.076 -0.0103  0.1732 -0.1981
 9687W        W11887   7.741   2.530  31.895 -0.1186  0.1451 -0.0257
 9688W        W11888   3.897   2.595  25.824 -0.1231  0.1876  0.0073
 9689W        W11889  19.382   5.066  13.326 -0.1299  0.1081 -0.1377
 9690W        W11890  17.592   1.496  24.073  0.4916  0.1656 -0.1416
 9691W        W11891   1.447   1.825  11.010  0.1762  0.3292 -0.0753
 9692W        W11892   0.378   2.729  31.065  0.1375  0.0914  0.2331
 9693W        W11893  24.924   5.466  22.008 -0.1172  0.2124 -0.2245
 9694W        W11894  20.626   4.941  24.264 -0.1983  0.2898  0.3493
 9695W        W11895  21.371   5.691  12.514  0.2142 -0.4978  0.0225
 9696W        W11896  10.848   3.711   7.799 -0.0729  0.3716  0.0145
 9697W        W11897  10.252   0.765  27.614  0.0551 -0.1015  0.1359
 9698W        W11898   2.769   2.909  18.184  0.2731  0.1626  0.0927
 9699W        W11899  19.564   6.404  23.304 -0.0036 -0.0409  0.2044
 9700W        W11900   6.060   6.507   5.145  0.0190  0.1716  0.2284
 9701W        W11901  16.600   4.478   1.659 -0.1297 -0.1619 -0.0819
 9702W        W11902  14.464   6.906  10.678 -0.1391 -0.0321 -0.1538
 9703W        W11903  19.647   1.855  13.018  0.0476  0.2952  0.4092
 9704W        W11904  24.794   5.759   3.647 -0.2800 -0.0409  0.2355
 9705W        W11905  13.684   2.250  24.843  0.3217 -0.0085  0.2349
 9706W        W11906  23.242   3.881  13.776 -0.1426 -0.0565  0.2180
 9707W        W11907  23.569   6.285  12.908 -0.3402  0.3702 -0.3398
 9708W        W11908  10.141   7.680   2.164 -0.2679  0.0948 -0.1644
 9709W        W11909  12.428   5.380   0.206  0.0583  0.1853  0.1067
 9710W        W11910   3.415   6.324  18.390 -0.3034 -0.1348 -0.4462
 9711W        W11911  18.043   0.426   4.242  0.0612 -0.1592  0.0765
 9712W        W11912   1.479   5.982  11.726  0.1863 -0.1740 -0.1307
 9713W        W11913   4.197   2.670   2.372 -0.0860 -0.0780 -0.0735
 9714W        W11914  22.674   5.531  32.181  0.1332 -0.1391  0.2580
 9715W        W11915   7.759   5.547  25.745  0.0522 -0.2840 -0.0366
 9716W        W11916  23.676   2.990  23.087 -0.0434  0.3963  0.1461
 9717W        W11917   9.645   6.960   1.742 -0.0081  0.0040 -0.2322
 9718W        W11918   5.789   2.480  14.846  0.0026 -0.0857 -0.0105
 9719W        W11919   1.779   1.964  30.612 -0.0588 -0.3198  0.0157
 9720W        W11920  10.340   4.437  27.430  0.1595  0.0054 -0.0110
 9721W        W11921  16.684   7.194  23.448  0.0824 -0.0894 -0.1286
 9722W        W11922  13.803   4.750   6.867  0.1021 -0.0336 -0.0497
 9723W        W11923   6.500   7.707   2.571  0.0930  0.2686 -0.3378
 9724W        W11924  11.858   5.791   9.181 -0.1002  0.1138  0.0638
 9725W        W11925   7.937   6.868   9.213  0.2317  0.1802  0.1799
 9726W        W11926  12.799   0.548  25.416 -0.0763  0.0343  0.0976
 9727W        W11927  22.681   2.009  12.861  0.1473  0.0942 -0.2757
 9728W        W11928  24.911   2.789   6.363  0.1658  0.2035  0.0178
 9729W        W11929  13.598   3.606  11.146  0.1456  0.0066 -0.1914
 9730W        W11930  21.427   6.246   1.188 -0.1887 -0.2739  0.1602
 9731W        W11931  21.007   2.351  21.711  0.1003  0.2884 -0.0993
 9732W        W11932  24.772   6.652  21.303 -0.0162 -0.1189 -0.2725
 9733W        W11933   5.766   5.076   7.685 -0.1177 -0.1397 -0.0757
 9734W        W11934  24.941   2.457  25.315 -0.0173  0.0217  0.1278
 9735W        W11935   0.610   4.773  27.929  0.2381  0.1318 -0.0012
 9736W        W11936  10.346   2.368  19.577 -0.0383 -0.0249 -0.3367
 9737W        W11937  17.694   1.892   4.423 -0.0149 -0.3006  0.2982
 9738W        W11938  16.619   2.305  26.452  0.0900 -0.0089  0.0641
 9739W        W11939  10.374   6.355  25.607  0.0283 -0.2904 -0.4249
 9740W        W11940  24.281   1.152  25.887 -0.0988 -0.0252 -0.0453
 9741W        W11941  19.116   0.064   2.290 -0.0608  0.0987  0.2210
 9742W        W11942   2.086   4.629   8.154  0.0231  0.5329 -0.2374
 9743W        W11943  16.769   1.825   4.270 -0.1957  0.0293 -0.1125
 9744W        W11944  19.039   7.406  26.025 -0.1648 -0.1945 -0.0358
 9745W        W11945  23.467   2.168  30.409  0.0858 -0.1074  0.0567
 9746W        W11946  21.445   3.395   7.124 -0.1169  0.1839 -0.2174
 9747W        W11947   2.786   5.207  19.528  0.1372  0.1466 -0.1590
 9748W        W11948  12.502   0.327   9.063  0.3881  0.1619 -0.0858
 9749W        W11949   6.029   0.972  17.463  0.0305 -0.3393 -0.1504
 9750W        W11950   4.520   1.052   3.909 -0.0342  0.2965 -0.2016
 9751W        W11951  17.292   3.201  23.352 -0.1848 -0.0370 -0.3779
 9752W        W11952  14.468   2.666   6.931  0.1341  0.0572  0.2858
 9753W        W11953   0.528   4.644  31.300  0.1747  0.2817  0.0223
 9754W        W11954  15.481   1.033  11.826  0.1154  0.2274 -0.1162
 9755W        W11955   0.264   4.116  19.811  0.1886  0.0275  0.0152
 9756W        W11956   9.660   0.593   2.789 -0.3144  0.1420 -0.5071
 9757W        W11957   4.430   0.838  11.165 -0.4105 -0.0735  0.1868
 9758W        W11958   7.596   5.534  17.700 -0.3034  0.0383  0.3549
 9759W        W11959   1.473   2.509  22.529  0.2048  0.2796  0.1982
 9760W        W11960  23.130   2.293   1.507 -0.2489 -0.0685  0.0021
 9761W        W11961   0.881   6.854  20.597 -0.2152  0.1096  0.0121
 9762W        W11962  23.804   0.454  21.251 -0.0145 -0.0509 -0.1700
 9763W        W11963   3.641   5.424  22.281  0.2767  0.0186 -0.3080
 9764W        W11964  21.088   3.685  11.317 -0.0943 -0.0149  0.0654
 9765W        W11965  24.168   5.705  28.355  0.1502 -0.1533  0.0196
 9766W        W11966  25.131   7.328  22.047  0.0128  0.1274  0.0437
 9767W        W11967   7.989   2.097   2.234  0.1078  0.2136  0.0333
 9768W        W11968   8.020   7.623  21.029  0.0109  0.0874  0.2183
 9769W        W11969  19.271   5.735   8.198  0.2815 -0.0345  0.0865
 9770W        W11970   6.746   2.593   6.527  0.0478  0.0831 -0.0624
 9771W        W11971  17.128   7.797   4.050 -0.1050  0.0466  0.0956
 9772W        W11972   6.565   0.623  21.420 -0.2537 -0.1193  0.0596
 9773W        W11973   8.969   0.027  23.172 -0.0343 -0.0648 -0.3688
 9774W        W11974  24.145   5.443  11.508 -0.1539 -0.3252  0.1458
 9775W        W11975   1.220   1.792  32.356 -0.1167 -0.0613 -0.1886
 9776W        W11976   3.313   4.657  17.285 -0.0824 -0.0388 -0.1201
 9777W        W11977  16.866   3.776  26.342 -0.2414 -0.0204  0.1116
 9778W        W11978  12.692   0.005  11.522 -0.1732  0.2982 -0.2827
 9779W        W11979  23.146   6.983   3.547  0.0678  0.2132 -0.0849
 9780W        W11980  13.384   0.571  28.565 -0.3252 -0.0086  0.0755
 9781W        W11981   9.456   5.003  19.830 -0.1744 -0.1792  0.2495
 9782W        W11982  23.058   2.990  13.426  0.1449 -0.0767  0.1528
 9783W        W11983  12.656   5.843   0.087 -0.0187  0.2834  0.0201
 9784W        W11984   3.681   0.700   5.642  0.0394 -0.2777  0.0433
 9785W        W11985  14.552   4.326  26.300  0.1581 -0.2399  0.0148
 9786W        W11986  10.847   6.358   2.531 -0.0423  0.0776  0.1419
 9787W        W11987   5.109   4.224  27.436  0.0197  0.0368  0.0168
 9788W        W11988  24.959   7.851   6.442  0.0060  0.0977  0.2425
 9789W        W11989  19.041   2.603  16.743 -0.0102 -0.0114 -0.1445
 9790W        W11990  15.752   1.075  21.385  0.0957  0.0788  0.0875
 9791W        W11991  22.481   2.279   6.899  0.4176  0.0630 -0.1458
 9792W        W11992  25.024   0.804   3.689 -0.0463  0.1301 -0.1908
 9793W        W11993  24.707   0.894  26.832 -0.1217 -0.0320  0.0796
 9794W        W11994  18.306   1.422   3.649 -0.5001  0.0956 -0.2328
 9795W        W11995   5.282   3.157   7.591  0.1354 -0.0850  0.2512
 9796W        W11996   2.104   1.025  23.798 -0.5771  0.0129  0.1152
 9797W        W11997  20.587   3.893  16.437  0.0072  0.0422 -0.0619
 9798W        W11998  17.869   1.884   0.378 -0.1532  0.0332  0.0761
 9799W        W11999   2.945   4.745  24.725 -0.2658 -0.2966  0.1351
 9800W        W12000  20.523   3.486  29.217 -0.0849 -0.0158 -0.0441
 9801W        W12001   1.551   4.328  20.361  0.1409 -0.2012  0.0221
 9802W        W12002  10.496   1.887  19.737  0.2385 -0.0816  0.1284
 9803W        W12003  19.507   7.589  30.833  0.1672 -0.1749  0.0846
 9804W        W12004   6.970   1.108   5.054 -0.0059  0.3209  0.1407
 9805W        W12005   9.114   6.692  30.062  0.0843 -0.2988 -0.1532
 9806W        W12006   9.371   2.563  16.548  0.0976  0.0536 -0.2450
 9807W        W12007   3.466   4.788  29.019  0.0710  0.1959 -0.1799
 9808W        W12008  16.323   4.084  27.660  0.0177 -0.0526  0.0600
 9809W        W12009   7.026   7.303  28.047  0.0190 -0.1115  0.2361
 9810W        W12010  20.856   6.318  29.989  0.3829  0.0084 -0.1528
 9811W        W12011  23.348   3.403   2.791  0.0558  0.2359 -0.2247
 9812W        W12012  15.930   1.696   6.839  0.0329 -0.0798  0.0318
 9813W        W12013   7.322   5.714   0.934 -0.1372  0.0165  0.1052
 9814W        W12014  16.404   4.991   7.364 -0.1931 -0.3688  0.0463
 9815W        W12015   3.754   7.744  31.703 -0.1715  0.3113 -0.0599
 9816W        W12016  10.018   2.759   2.767  0.1907  0.0282  0.0691
 9817W        W12017  13.739   5.945  20.735 -0.2528 -0.0767  0.1464
 9818W        W12018  19.577   5.720  17.414  0.1775  0.2276 -0.0218
 9819W        W12019   0.107   7.297  20.845 -0.1411  0.0615 -0.0126
 9820W        W12020  24.578   1.155  29.296 -0.0686 -0.0522 -0.0521
 9821W        W12021   2.856   4.836  22.885  0.1542 -0.0781  0.2227
 9822W        W12022  12.494   5.648   9.781 -0.0742  0.1742 -0.2605
 9823W        W12023   0.924   0.984   6.503 -0.1025 -0.0682  0.3502
 9824W        W12024  11.950   1.949  31.622  0.2645  0.1029 -0.2326
 9825W        W12025  13.352   2.360   6.624  0.1962 -0.0748 -0.1236
 9826W        W12026   9.593   0.839  17.097 -0.1270  0.0648 -0.1051
 9827W        W12027  10.255   2.250  10.081 -0.0271  0.1834  0.0916
 9828W        W12028   2.094   1.873  10.473  0.1306 -0.0407 -0.1802
 9829W        W12029   5.429   6.653  24.800 -0.0329  0.2623  0.1378
 9830W        W12030  10.025   6.462  27.440  0.3001  0.1212  0.0095
 9831W        W12031  21.662   1.033  10.908 -0.0728  0.3807  0.2691
 9832W        W12032   1.614   5.108   9.501 -0.1388  0.1269  0.2495
 9833W        W12033  22.255   1.056  28.260  0.1680 -0.0866 -0.1462
 9834W        W12034  16.173   1.163  13.178 -0.1889 -0.3638 -0.1207
 9835W        W12035  18.505   1.699   4.800 -0.0303  0.0600 -0.0035
 9836W        W12036   8.247   3.597   8.524  0.0931  0.3806 -0.1228
 9837W        W12037  12.621   5.047  20.819 -0.0213 -0.1192  0.1968
 9838W        W12038  12.182   2.979   8.045  0.0350 -0.0384  0.3117
 9839W        W12039   3.862   5.691  24.776  0.2169 -0.2359  0.0904
 9840W        W12040   9.580   3.467  15.978 -0.0073  0.1375 -0.0179
 9841W        W12041  19.798   4.261  24.512  0.0251  0.0587 -0.0417
 9842W        W12042  15.908   1.890  30.469  0.1033  0.0115  0.1032
 9843W        W12043  21.688   1.210   6.309  0.0348 -0.2638 -0.0410
 9844W        W12044  11.310   0.824   0.658  0.0354 -0.0211 -0.1026
 9845W        W12045  21.905   4.706   7.686  0.3274  0.1216  0.2363
 9846W        W12046   5.052   2.988  22.942 -0.4059 -0.2127  0.2898
 9847W        W12047  20.282   3.735   0.940  0.1596 -0.0182  0.2188
 9848W        W12048  12.540   0.479  11.424  0.1634 -0.2800  0.0726
 9849W        W12049  16.592   3.435  14.840 -0.1564  0.0129 -0.1459
 9850W        W12050   1.440   4.395  22.324  0.2169 -0.0290 -0.1611
 9851W        W12051   3.152   0.327  28.137  0.1679 -0.0431 -0.0036
 9852W        W12052   7.475   2.461   2.109 -0.1998 -0.3614 -0.0659
 9853W        W12053   1.532   3.707   2.332 -0.1000 -0.0313 -0.1263
 9854W        W12054  18.364   1.451   6.486 -0.2295  0.1950 -0.0525
 9855W        W12055  11.201   2.435   5.771  0.4236 -0.4485  0.0923
 9856W        W12056  24.945   5.265  11.035 -0.0867 -0.1064 -0.0038
 9857W        W12057  12.804   1.684   5.676 -0.1668 -0.2043  0.2340
 9858W        W12058   7.974   4.921  30.464  0.2831  0.2198 -0.1101
 9859W        W12059   0.775   1.072   9.438  0.0347 -0.1733 -0.0407
 9860W        W12060  21.609   4.776  30.860 -0.2113 -0.1813  0.1672
 9861W        W12061  11.560   0.198  21.789 -0.0900 -0.2393 -0.2388
 9862W        W12062  18.260   4.004  31.664 -0.0400  0.0350 -0.0039
 9863W        W12063   2.278   6.754  26.339  0.0228 -0.0655  0.0402
 9864W        W12064   5.686   5.546  28.942  0.0930  0.0284  0.1383
 9865W        W12065   1.767   0.267  23.302  0.0687  0.0123 -0.0892
 9866W        W12066  10.228   3.929  15.679 -0.1847 -0.2388  0.2699
 9867W        W12067  16.903   4.947  11.854  0.4008 -0.1790 -0.1277
 9868W        W12068  24.738   0.162  28.854 -0.0733 -0.1662  0.3055
 9869W        W12069  12.913   4.628  31.718  0.2278 -0.1248  0.1684
 9870W        W12070  18.446   4.022   8.961 -0.0105  0.0424  0.0532
 9871W        W12071  21.877   2.014  24.350 -0.2796  0.0133  0.1343
 9872W        W12072   6.821   1.052  17.464 -0.1038  0.0871 -0.1971
 9873W        W12073   0.110   2.597  31.777 -0.1031  0.0583 -0.0562
 9874W        W12074  14.669   7.145   9.429 -0.2563  0.0949  0.0277
 9875W        W12075  23.155   5.746  14.213  0.2064  0.0264  0.0310
 9876W        W12076  13.376   7.806  10.045  0.3500  0.0209 -0.3689
 9877W        W12077  11.181   1.828  10.403 -0.0718  0.3031  0.1819
 9878W        W12078  23.160   1.083  15.009  0.1193 -0.1228 -0.0953
 9879W        W12079  14.873   3.963  29.779 -0.1403 -0.0074  0.2636
 9880W        W12080  15.877   7.479  21.830 -0.2159 -0.3179 -0.2537
 9881W        W12081  15.031   3.715  28.066 -0.0467  0.2129  0.1145
 9882W        W12082   6.615   3.633   8.043  0.0133  0.0249 -0.0110
 9883W        W12083   0.698   2.661   9.879 -0.0906  0.2293 -0.1909
 9884W        W12084  16.862   0.019   0.702 -0.0858  0.1207 -0.1975
 9885W        W12085  14.046   2.319  11.552  0.2405 -0.0312 -0.1294
 9886W        W12086   7.219   1.909   0.043 -0.2524  0.1187 -0.0492
 9887W        W12087   1.037   2.196  26.632 -0.3395  0.0025 -0.1753
 9888W        W12088  10.398   3.080  17.229 -0.0353  0.1803  0.0450
 9889W        W12089   0.678   5.303   7.373 -0.1610  0.1671  0.1077
 9890W        W12090   2.215   4.120   2.817  0.2280 -0.0009  0.1406
 9891W        W12091   6.217   3.157   2.563 -0.3025  0.0748  0.0650
 9892W        W12092   3.242   1.131   8.248 -0.1292 -0.0038  0.1708
 9893W        W12093  13.424   4.857  31.719 -0.1876 -0.1075  0.4128
 9894W        W12094  10.266   7.352   6.665  0.1921 -0.0611  0.3337
 9895W        W12095   3.728   3.383   9.864  0.0054 -0.0949  0.0130
 9896W        W12096  19.843   2.071  30.209  0.1254  0.2910  0.0830
 9897W        W12097  22.156   5.927  28.801  0.0968 -0.2491 -0.0516
 9898W        W12098  10.924   6.070  20.589  0.1564 -0.1240  0.2375
 9899W        W12099   4.767   2.496   6.328 -0.0309  0.2061 -0.0259
 9900W        W12100  17.355   1.342  16.359 -0.0202 -0.2145  0.1053
 9901W        W12101   8.687   6.216  27.070 -0.3129  0.4007 -0.1568
 9902W        W12102  18.493   3.816   4.216 -0.1116 -0.0675  0.2787
 9903W        W12103   7.429   6.975  19.793 -0.1867 -0.0434  0.2036
 9904W        W12104   5.316   2.595  19.964 -0.2846  0.1651 -0.3368
 9905W        W12105  11.010   3.761  26.263 -0.0868 -0.1508 -0.3520
 9906W        W12106  14.638   0.580   2.539 -0.1079 -0.1942  0.2052
 9907W        W12107   6.598   7.434   1.765 -0.0033 -0.0166  0.2292
 9908W        W12108  12.862   4.687   5.789 -0.0810 -0.0704 -0.2046
 9909W        W12109   2.978   7.081   5.170  0.0899 -0.2162 -0.1591
 9910W        W12110   3.717   2.079  23.184 -0.0549  0.1718  0.2513
 9911W        W12111  14.816   6.368  27.228  0.0579 -0.1349 -0.0993
 9912W        W12112  18.050   0.135  15.070 -0.0227 -0.1711 -0.1491
 9913W        W12113   9.810   6.830  19.845  0.0266 -0.0020 -0.0130
 9914W        W12114  18.768   6.528   4.392 -0.0836 -0.0559  0.0237
 9915W        W12115  16.760   2.779   0.101  0.1313  0.1165 -0.3881
 9916W        W12116   3.322   0.283  23.722 -0.0685 -0.1545 -0.0405
 9917W        W12117   4.260   5.742  27.118  0.0620  0.1722  0.1055
 9918W        W12118   8.948   0.491   4.048  0.0407 -0.1583  0.1695
 9919W        W12119   4.730   6.686   8.473 -0.1058  0.0019  0.0501
 9920W        W12120  23.262   2.734  20.965 -0.2420  0.0088 -0.2971
 9921W        W12121   3.669   2.142  18.133 -0.0596 -0.0479 -0.2972
 9922W        W12122   1.591   0.282   7.468 -0.3292 -0.0907 -0.2783
 9923W        W12123   9.712   6.353   6.392  0.0776  0.0028 -0.0087
 9924W        W12124  13.388   0.255  23.647 -0.3406 -0.2874  0.2770
 9925W        W12125  13.624   1.733   3.731 -0.2837 -0.1891  0.1341
 9926W        W12126   8.830   0.732  16.957  0.0233 -0.1719  0.1320
 9927W        W12127  22.381   6.163  24.260  0.1376  0.3600  0.0665
 9928W        W12128  15.501   1.834   1.724  0.0788  0.1414 -0.0098
 9929W        W12129   8.403   6.464   7.621  0.3468 -0.0856  0.1369
 9930W        W12130  20.014   6.899   4.932 -0.1113  0.2851  0.0177
 9931W        W12131  18.527   5.195   8.042 -0.0751  0.0318  0.0843
 9932W        W12132  20.221   3.207   1.780  0.0280  0.0590  0.4421
 9933W        W12133  17.666   4.178  10.517  0.3529  0.2615  0.1377
 9934W        W12134   1.433   5.669  18.753  0.0459  0.0526  0.0940
 9935W        W12135  16.826   2.818  29.037  0.3960 -0.0561 -0.2965
 9936W        W12136   7.801   2.443   8.217 -0.1200 -0.1456  0.1608
 9937W        W12137  23.648   5.440   2.877 -0.0771  0.0079 -0.2493
 9938W        W12138  16.260   4.058   9.686 -0.1096  0.0775  0.1126
 9939W        W12139   0.847   0.123  26.849  0.3044 -0.0940 -0.0093
 9940W        W12140  16.276   6.882  15.712 -0.0496  0.1458 -0.1377
 9941W        W12141  15.773   6.044   2.621  0.2116  0.1383 -0.2366
 9942W        W12142   2.336   2.844  18.763 -0.1730  0.1072  0.0267
 9943W        W12143   1.428   3.714  24.104 -0.2504 -0.0677 -0.1636
 9944W        W12144  18.027   7.043  14.436 -0.2473  0.3830  0.0732
 9945W        W12145  19.491   1.284  25.513  0.0440  0.0784 -0.1648
 9946W        W12146  19.419   5.868  25.010 -0.1550  0.0127  0.2865
 9947W        W12147   1.224   1.708  24.859  0.1518 -0.0198  0.1171
 9948W        W12148   4.953   1.552  15.440  0.1737 -0.0997  0.3778
 9949W        W12149  11.953   7.754  25.982  0.2919  0.2045  0.2207
 9950W        W12150   6.874   0.629  31.692 -0.0230  0.0283 -0.4148
 9951W        W12151  13.088   5.191   8.443  0.0720 -0.0767 -0.0601
 9952W        W12152  14.310   3.275  12.515  0.3172  0.0308 -0.0031
 9953W        W12153  19.086   6.464  22.641  0.4808 -0.2838  0.2155
 9954W        W12154  21.539   1.390   2.908  0.0845  0.1668 -0.2968
 9955W        W12155   6.491   4.322   6.946 -0.1702 -0.0834 -0.3899
 9956W        W12156  13.044   3.118  19.809  0.0118  0.2292 -0.1208
 9957W        W12157  19.218   2.718   9.466  0.2506  0.2083  0.0092
 9958W        W12158   8.160   2.281   3.516 -0.0838  0.0276  0.3043
 9959W        W12159  11.289   6.682   0.645  0.1062  0.0542 -0.0447
 9960W        W12160  14.679   0.852  30.455 -0.1700 -0.0173 -0.3729
 9961W        W12161  15.659   3.897  15.575  0.0748  0.1182 -0.1305
 9962W        W12162  14.409   3.274   5.699  0.2797 -0.2068 -0.5175
 9963W        W12163  24.065   0.383   0.342  0.2371  0.0087  0.2327
 9964W        W12164  11.579   0.500  22.326 -0.1570 -0.0661  0.1031
 9965W        W12165  19.729   2.301   6.023  0.0939 -0.0928 -0.2512
 9966W        W12166  21.226   5.488  32.014 -0.1761  0.2292 -0.0267
 9967W        W12167   5.833   3.610   4.970  0.1648 -0.3961  0.5198
 9968W        W12168   0.484   7.788  20.268 -0.0652  0.1678 -0.5416
 9969W        W12169   2.542   4.278   0.857 -0.3700  0.3457 -0.0413
 9970W        W12170  22.729   5.513  28.188  0.1835 -0.1788 -0.0546
 9971W        W12171   4.157   5.802   8.307  0.2208 -0.1776  0.0049
 9972W        W12172  17.197   6.741  13.346 -0.1394  0.2253  0.3894
 9973W        W12173  21.788   4.275   3.613  0.1318  0.1621 -0.3112
 9974W        W12174   9.222   6.812   5.292  0.1066 -0.1926  0.0036
 9975W        W12175  10.952   5.509  23.295  0.0778  0.2434  0.2427
 9976W        W12176   3.685   2.097  21.581  0.1543 -0.0308 -0.1195
 9977W        W12177  10.529   6.341   4.966  0.2790 -0.1228 -0.3218
 9978W        W12178   2.719   2.570  23.850  0.1327  0.0212 -0.1225
 9979W        W12179   7.484   1.838  15.274  0.0758 -0.0640 -0.0324
 9980W        W12180   5.667   4.058   4.683 -0.1792 -0.1146  0.0682
 9981W        W12181   9.540   7.428  30.982 -0.1034  0.1783 -0.2710
 9982W        W12182  16.793   3.426   8.139  0.0268 -0.0988 -0.2684
 9983W        W12183   3.244   6.317   3.914  0.5105  0.1564  0.0489
 9984W        W12184  16.147   2.732  32.574  0.1333 -0.1052  0.0410
 9985W        W12185   2.935   0.797  19.621  0.3026 -0.2656 -0.3160
 9986W        W12186   5.567   2.258   4.659  0.0287 -0.0457  0.1666
 9987W        W12187  14.301   0.700  27.942  0.1046  0.1307 -0.3287
 9988W        W12188   0.781   5.920  24.299 -0.0645  0.2569  0.0786
 9989W        W12189  23.538   3.398  28.163  0.2498 -0.1599  0.3926
 9990W        W12190  20.963   0.839  25.597  0.0242 -0.0054 -0.0181
 9991W        W12191  11.153   1.966  26.299  0.0336  0.0545  0.0893
 9992W        W12192   6.731   0.699  23.380  0.0276 -0.0948  0.2844
 9993W        W12193  24.993   0.883   9.677 -0.0003 -0.1631  0.5194
 9994W        W12194  21.868   7.072  30.712 -0.2244 -0.3214 -0.0292
 9995W        W12195   5.946   1.682  24.434 -0.0712 -0.0001 -0.1064
 9996W        W12196  15.711   1.084  14.118  0.2468 -0.3336  0.0083
 9997W        W12197  15.176   5.107   7.792 -0.2785  0.1353 -0.2600
 9998W        W12198   1.959   1.745   0.791 -0.1880  0.1049  0.0661
 9999W        W12199  21.204   4.937  21.840 -0.0785  0.0037  0.0717
10000W        W12200  22.659   5.113   6.507 -0.0982 -0.1707  0.0078
10001W        W12201   2.863   6.354  22.563 -0.0668 -0.2117  0.1202
10002W        W12202  15.660   0.225  23.097  0.4033  0.0696  0.1487
10003W        W12203   4.160   0.140   1.157 -0.0392  0.0279 -0.1850
10004W        W12204  10.931   6.120  10.139  0.0177 -0.0623  0.1855
10005W        W12205   2.435   2.309   2.575  0.1829  0.0734  0.4707
10006W        W12206   5.907   5.557  26.529  0.2434 -0.2349  0.1103
10007W        W12207   0.776   3.985  28.782  0.0015 -0.2846 -0.1001
10008W        W12208  11.587   5.395   2.792 -0.0233 -0.0011 -0.0392
10009W        W12209  21.469   3.281   9.581  0.1313  0.0913 -0.0667
10010W        W12210   6.812   7.493  30.761 -0.1928  0.0161 -0.0567
10011W        W12211  20.665   2.967   1.019 -0.0744 -0.2087 -0.1296
10012W        W12212  18.280   3.842  32.237 -0.1585  0.0279  0.0630
10013W        W12213  17.049   1.151   3.671 -0.1959 -0.1945  0.0626
10014W        W12214  18.337   1.552  10.828 -0.0903 -0.0831  0.2328
10015W        W12215   7.484   5.888  20.537 -0.2172  0.2172 -0.1811
10016W        W12216   8.343   5.208  18.089  0.1104 -0.1058 -0.1732
10017W        W12217  19.027   4.241   7.833  0.1119  0.1620  0.0526
10018W        W12218  17.408   7.571  13.235  0.1946  0.1130 -0.0716
10019W        W12219  20.142   4.619  17.831  0.3279  0.1724  0.1235
10020W        W12220  15.782   6.846  26.302  0.0125 -0.0465 -0.1152
10021W        W12221   4.649   7.133   8.603  0.1513  0.0437 -0.5524
10022W        W12222   8.131   3.837   8.005  0.1958 -0.0683  0.1718
10023W        W12223  10.494   5.477  24.558  0.2041 -0.0151 -0.2140
10024W        W12224   6.466   0.593   8.716 -0.0122 -0.2477  0.0882
10025W        W12225  16.937   0.714  23.085  0.0274  0.3093  0.1528
10026W        W12226  20.761   1.484   7.266 -0.0184  0.1575  0.3491
10027W        W12227  21.616   7.856   3.941 -0.0703  0.2412  0.1102
10028W        W12228  13.326   3.630  23.765  0.0678  0.2166 -0.3444
10029W        W12229   3.901   6.415   1.308  0.0247  0.3344  0.2205
10030W        W12230  10.081   5.138  30.747 -0.2044  0.0862  0.2888
10031W        W12231  17.428   0.381   8.799 -0.2864 -0.1713 -0.0514
10032W        W12232   9.276   5.948  22.218 -0.1167  0.4851  0.3211
10033W        W12233   4.862   7.167   6.833  0.1284 -0.1632 -0.0672
10034W        W12234  10.007   6.425  19.664 -0.0786  0.3883 -0.0043
10035W        W12235  23.598   7.351  30.498 -0.0797 -0.0593 -0.0738
10036W        W12236  21.980   2.582  30.496 -0.0488 -0.2326  0.0792
10037W        W12237  10.678   3.611  29.149 -0.1416  0.0000  0.3086
10038W        W12238  17.663   0.815  31.726  0.3562  0.1155  0.0994
10039W        W12239   9.411   6.156  22.637  0.1283  0.0049  0.1652
10040W        W12240  24.184   3.247  11.464  0.1357  0.1507 -0.4098
10041W        W12241   7.370   2.397  21.086  0.1213 -0.2753 -0.1498
10042W        W12242  16.124   6.776   9.029 -0.0703  0.1262 -0.1936
10043W        W12243  16.846   6.428  13.033  0.2484 -0.0190 -0.0898
10044W        W12244  19.572   4.060  27.791 -0.0497 -0.2689  0.3156
10045W        W12245  16.407   1.853   2.258  0.1032  0.1569  0.1005
10046W        W12246  22.998   0.324  25.686 -0.1006  0.0511 -0.3060
10047W        W12247  19.181   6.148   8.383 -0.3784 -0.3830  0.0681
10048W        W12248   0.317   3.324  10.821 -0.2848  0.0915  0.2360
10049W        W12249  19.495   2.313  10.611  0.2495 -0.1640  0.2321
10050W        W12250  19.312   5.196  27.695 -0.1413 -0.1141  0.0331
10051W        W12251  23.297   4.140  23.725 -0.1282  0.0976 -0.0800
10052W        W12252   7.996   5.739  29.670 -0.1546 -0.1785 -0.0995
10053W        W12253  16.812   6.977  28.270  0.0368  0.0384  0.0976
10054W        W12254   9.240   5.649   6.041  0.0583  0.0051  0.1028
10055W        W12255  20.963   3.461  27.583  0.0035 -0.0405 -0.0236
10056W        W12256   8.693   5.010  26.566 -0.1419 -0.0113 -0.0528
10057W        W12257   7.033   3.101   4.864 -0.0714 -0.0967 -0.0132
10058W        W12258   8.215   3.773   3.712  0.2940  0.0597 -0.0370
10059W        W12259  10.521   4.141   9.784 -0.0503 -0.2036 -0.2263
10060W        W12260  21.959   7.443  22.199  0.0617  0.0593  0.0078
10061W        W12261   4.754   7.012  22.332 -0.0763  0.1437 -0.1755
10062W        W12262   4.395   5.333   4.406  0.1838  0.0925  0.3169
10063W        W12263  22.373   5.444  12.966 -0.0073  0.0784  0.4744
10064W        W12264  22.742   0.179  27.894  0.1686 -0.0618  0.0174
10065W        W12265   7.070   2.057  22.303 -0.0787  0.0494  0.0359
10066W        W12266   4.076   7.423   1.174 -0.0969  0.0122  0.4468
10067W        W12267   1.571   0.793  18.373  0.2232 -0.0216 -0.3965
10068W        W12268   5.415   4.280   2.469  0.0041 -0.0202  0.1397
10069W        W12269  11.036   1.968   0.358 -0.1636 -0.2290 -0.1232
10070W        W12270   1.017   2.964   6.939 -0.0482  0.0161 -0.0738
10071W        W12271  23.249   3.104   0.721  0.0436  0.0360 -0.2906
10072W        W12272   1.652   0.454  26.999  0.1495 -0.2520 -0.0231
10073W        W12273   2.165   2.134   0.456 -0.1435 -0.0476 -0.1229
10074W        W12274   8.319   5.545  20.399  0.1006 -0.0516 -0.4421
10075W        W12275  24.241   7.319   9.609 -0.0635  0.0515 -0.3132
10076W        W12276  20.187   6.796  17.897 -0.3892 -0.1212  0.0720
10077W        W12277  24.012   3.784   2.108  0.4487 -0.1360 -0.0540
10078W        W12278  14.883   7.230   1.918  0.0960  0.2904  0.0977
10079W        W12279  23.226   0.862  30.482  0.0802 -0.0644  0.1102
10080W        W12280  20.320   2.813  28.053  0.0496 -0.0558 -0.0760
10081W        W12281  21.296   7.128   6.367  0.1746  0.2447 -0.0574
10082W        W12282  19.679   2.126  31.475  0.0331  0.2001 -0.0086
10083W        W12283   3.503   0.285  29.929 -0.0050 -0.0017 -0.1046
10084W        W12284  14.216   0.748  26.520 -0.2439  0.1707 -0.1089
10085W        W12285   4.063   6.453  31.267 -0.0527 -0.3865  0.0272
10086W        W12286  13.906   4.932   5.013 -0.1533  0.0782  0.1568
10087W        W12287  10.191   6.729   2.612  0.2416 -0.1579 -0.1245
10088W        W12288  18.599   6.161   3.906  0.0520 -0.2082 -0.0609
10089W        W12289  13.830   2.896  13.586  0.0667  0.0611 -0.2303
10090W        W12290  12.005   5.122   2.553 -0.0618 -0.0420  0.2512
10091W        W12291  12.919   6.244  10.533 -0.0056 -0.3815  0.0500
10092W        W12292   4.648   3.080   5.088  0.2991  0.2365  0.0834
10093W        W12293   7.623   7.630  14.773  0.0792  0.3476  0.3136
10094W        W12294  14.069   3.587   4.940  0.1487 -0.0845  0.2072
10095W        W12295  13.509   7.263  25.085  0.2070 -0.1111 -0.0066
10096W        W12296  23.505   0.891  13.846 -0.4272  0.3444 -0.3509
10097W        W12297   5.021   5.656   5.582  0.0026 -0.1595  0.2024
10098W        W12298  16.762   1.452   0.143 -0.0211 -0.1009 -0.2263
10099W        W12299  24.106   2.883  13.655  0.2382  0.2765 -0.0719
10100W        W12300  15.424   1.448   6.532  0.2927  0.2064 -0.1626
10101W        W12301  12.870   0.672  20.707 -0.1161  0.0068  0.1281
10102W        W12302   2.886   5.375   2.783  0.3081 -0.2202  0.1753
10103W        W12303   3.704   1.534   5.542 -0.0268 -0.1449  0.0902
10104W        W12304   8.241   0.723  16.224 -0.0728 -0.3076 -0.0585
10105W        W12305  22.458   4.745   7.670 -0.1804  0.0832  0.1892
10106W        W12306   1.173   0.032  25.923 -0.0823 -0.2366  0.0075
10107W        W12307  14.445   3.205   0.634 -0.0459 -0.0292  0.2300
10108W        W12308   0.362   1.662  10.822  0.0689 -0.0431 -0.0630
10109W        W12309   8.230   3.016   0.400 -0.2795 -0.0083  0.2585
10110W        W12310  17.386   5.678   2.893  0.0223 -0.1370 -0.1188
10111W        W12311   7.513   3.515  19.550 -0.1503  0.1524  0.1941
10112W        W12312  19.326   6.857   9.133  0.1419  0.2091 -0.0627
10113W        W12313   4.493   1.517   3.397  0.1000 -0.2415 -0.0912
10114W        W12314  18.378   2.967  30.831 -0.1211  0.3941  0.1410
10115W        W12315  16.626   5.472  23.198  0.0193 -0.3736  0.1117
10116W        W12316  15.504   1.180  23.574  0.0932  0.0716  0.3012
10117W        W12317  20.228   0.735  29.028  0.1247  0.3052 -0.0002
10118W        W12318   1.683   0.606  25.891 -0.1090  0.1498 -0.1425
10119W        W12319  21.425   3.584  23.352  0.1224  0.1765 -0.1274
10120W        W12320   6.840   1.313  25.131 -0.2715 -0.0195  0.0076
10121W        W12321  18.332   6.824  31.175  0.0150 -0.2689  0.0107
10122W        W12322  10.309   4.035   2.060 -0.0460  0.1923 -0.0316
10123W        W12323   3.225   6.739  21.577 -0.0190 -0.1110  0.2325
10124W        W12324   4.077   0.903   4.770 -0.1686 -0.0861 -0.2276
10125W        W12325   8.073   5.035   1.167 -0.0205  0.0501  0.0685
10126W        W12326   7.897   1.416   2.811  0.0681 -0.0940 -0.1699
10127W        W12327  10.076   5.009   1.007  0.0306 -0.4377  0.1407
10128W        W12328   1.044   2.573  20.535 -0.1853 -0.0454 -0.3897
10129W        W12329  13.065   5.864  12.913  0.1161  0.0022 -0.0353
10130W        W12330  18.739   1.470   0.176 -0.0506  0.0279  0.1825
10131W        W12331   2.695   3.585   2.158 -0.0409 -0.1115  0.0723
10132W        W12332  21.504   0.547  21.737  0.2316  0.3093 -0.2712
10133W        W12333   2.775   6.111   3.801  0.0332 -0.2009  0.1930
10134W        W12334   4.369   6.706  29.092  0.0213  0.1050 -0.1624
10135W        W12335   6.013   3.184   0.198 -0.1320 -0.1444  0.0275
10136W        W12336   1.389   6.710   5.938  0.0937  0.0599 -0.2373
10137W        W12337   7.988   2.659  17.864  0.0829  0.2442  0.0386
10138W        W12338   0.865   2.163   3.621  0.1032 -0.2884  0.1177
10139W        W12339  13.177   6.814   4.728  0.0810 -0.1858  0.4971
10140W        W12340  18.966   6.960  30.591  0.1835  0.0517 -0.1181
10141W        W12341   5.127   3.560  25.713 -0.1184 -0.1190  0.1703
10142W        W12342   3.698   7.147  17.700 -0.1980 -0.3562  0.1556
10143W        W12343  24.748   2.371  11.536  0.1799  0.2672  0.0697
10144W        W12344  22.728   1.630  24.222  0.1241  0.0193  0.2144
10145W        W12345  24.144   3.819   1.358  0.0158 -0.0132  0.0344
10146W        W12346   2.920   6.624  27.963 -0.1198  0.2023  0.0471
10147W        W12347  17.260   1.003  10.243 -0.1035  0.2342 -0.2324
10148W        W12348   2.188   0.379   2.268 -0.0914  0.2690  0.0667
10149W        W12349   1.652   4.952   3.852  0.0000 -0.1406 -0.0698
10150W        W12350  10.058   0.797  16.039  0.2172 -0.0783  0.0411
10151W        W12351  10.838   0.040  30.780 -0.4137  0.2171 -0.0786
10152W        W12352  11.992   3.848  21.682  0.1837  0.1704 -0.2863
10153W        W12353  17.827   5.180  13.515  0.1778  0.1273 -0.2411
10154W        W12354   0.897   0.619  19.885  0.0263  0.0597 -0.0150
10155W        W12355   5.140   2.922   5.050  0.2711  0.1047  0.0901
10156W        W12356   0.607   3.681  29.436  0.0623 -0.4844 -0.0976
10157W        W12357  24.319   7.769  25.166 -0.0463 -0.0951  0.0615
10158W        W12358  10.397   2.257  30.697  0.0254  0.6274 -0.1727
10159W        W12359  13.201   2.794   0.284  0.3199  0.0491  0.1632
10160W        W12360  20.465   5.237  30.833  0.0264  0.0171  0.1023
10161W        W12361  21.114   7.150  31.588 -0.0820  0.0865 -0.0380
10162W        W12362   6.149   2.268  19.379 -0.1969  0.1717  0.0116
10163W        W12363   4.214   5.717   2.523 -0.1206 -0.0552 -0.1060
10164W        W12364   3.290   2.801  27.463  0.0138  0.0928  0.1202
10165W        W12365   4.515   1.190  22.429  0.1782 -0.0115  0.0806
10166W        W12366  16.692   4.033  10.750  0.1526 -0.1854 -0.1700
10167W        W12367   6.896   3.560  28.717 -0.1797 -0.0203 -0.2358
10168W        W12368  15.384   0.430   3.474 -0.2595 -0.0298 -0.2345
10169W        W12369  16.943   4.616  22.262  0.0359 -0.0436 -0.1861
10170W        W12370  16.317   2.662  16.489  0.0406  0.3025  0.1590
10171W        W12371   7.813   4.523   9.390 -0.1513 -0.0627  0.1891
10172W        W12372  20.735   2.721   0.072 -0.1495 -0.2071  0.0520
10173W        W12373   5.427   2.229  30.465 -0.0039  0.2294  0.0223
10174W        W12374  24.780   2.810  31.759 -0.0085 -0.0274 -0.1566
10175W        W12375   8.077   7.791  26.968 -0.1070  0.0981 -0.2568
10176W        W12376  18.924   6.377  28.176 -0.2092 -0.5890 -0.3141
10177W        W12377   0.785   4.180  22.838  0.3091  0.0564 -0.1532
10178W        W12378  18.586   3.570  29.981 -0.0813 -0.0994  0.1279
10179W        W12379   9.622   5.659  21.447  0.0883 -0.2061 -0.1118
10180W        W12380  22.628   6.685   7.972  0.1540 -0.2186 -0.1997
10181W        W12381  12.675   5.269  23.758 -0.0793  0.1452 -0.1210
10182W        W12382   4.550   6.950  16.491 -0.0626 -0.0913 -0.3414
10183W        W12383  18.979   1.533   3.451  0.3665 -0.2497 -0.0791
10184W        W12384  15.075   7.627  28.356 -0.2197  0.1507 -0.0724
10185W        W12385  16.748   6.869   0.516  0.1923  0.1032  0.0096
10186W        W12386  23.541   4.793  30.753 -0.0322 -0.2386 -0.1227
10187W        W12387  23.097   2.645  29.586 -0.1924  0.0884 -0.2683
10188W        W12388  24.243   3.991  11.765 -0.3221  0.1602 -0.0195
10189W        W12389  21.337   0.933   5.853  0.2739 -0.1714  0.2425
10190W        W12390  20.041   1.710  28.619 -0.0088 -0.1472  0.0442
10191W        W12391   0.233   0.565  11.055  0.1935  0.0373 -0.2455
10192W        W12392   0.377   5.846  31.822  0.0767  0.0536 -0.1762
10193W        W12393   8.159   0.473  20.213  0.2260  0.0321  0.1123
10194W        W12394   0.897   2.791  29.584 -0.2322  0.1236  0.0107
10195W        W12395   1.558   0.135   9.982 -0.0193  0.0302 -0.1934
10196W        W12396  16.830   6.119   0.005 -0.0686  0.1259 -0.1343
10197W        W12397  11.295   5.876   1.920  0.0759 -0.0899  0.1853
10198W        W12398   7.682   0.523  21.394 -0.0716 -0.1997  0.0636
10199W        W12399   6.365   5.062  18.460 -0.1407 -0.1192  0.1969
10200W        W12400  18.703   3.188  26.555  0.0786 -0.0052  0.5032
10201W        W12401  20.186   1.309  27.763  0.1912 -0.3517 -0.1497
10202W        W12402   8.081   1.981  19.968  0.0146  0.1844  0.2156
10203W        W12403  24.943   4.635  32.369 -0.0057 -0.1707 -0.2677
10204W        W12404  22.899   5.019  26.108  0.0154  0.1783 -0.1631
10205W        W12405  21.678   3.588  12.862  0.1434  0.0879 -0.1632
10206W        W12406   5.247   6.360   9.304  0.0822 -0.1789 -0.1565
10207W        W12407  19.652   1.971  15.531 -0.2816 -0.0488  0.0031
10208W        W12408   3.742   5.674  19.015 -0.1993 -0.2212  0.0124
10209W        W12409   2.134   5.971  30.196 -0.2631  0.3465  0.1683
10210W        W12410  22.374   4.384  22.706  0.2779  0.2057  0.1223
10211W        W12411  10.434   4.431   5.049 -0.0016 -0.0334  0.0237
10212W        W12412  13.296   7.396  20.104  0.1784 -0.1045 -0.2819
10213W        W12413  20.965   7.766  25.369 -0.1118 -0.0344 -0.3641
10214W        W12414  17.863   0.627  10.307  0.2088  0.2781 -0.3398
10215W        W12415   2.963   4.166  31.314  0.0077 -0.0769 -0.0436
10216W        W12416   6.723   6.282   8.150 -0.0859 -0.1821 -0.1967
10217W        W12417   6.309   0.448   3.158  0.0695 -0.3341 -0.1362
10218W        W12418   6.984   6.518  24.627  0.0308  0.1530 -0.5274
10219W        W12419  18.780   7.499  29.546  0.1382 -0.0052 -0.2436
10220W        W12420   3.458   0.082  30.382 -0.2801 -0.1022  0.0627
10221W        W12421  12.141   4.212   4.382 -0.0635 -0.0806 -0.1058
10222W        W12422  20.885   2.321   0.372  0.1041  0.2146 -0.1956
10223W        W12423   2.359   3.925  27.324 -0.2282  0.1385  0.0938
10224W        W12424   1.011   3.817   5.242  0.1699 -0.1583 -0.1990
10225W        W12425  15.296   3.330   3.596 -0.0803 -0.0203  0.0067
10226W        W12426  20.636   4.557  31.580 -0.1268  0.1865  0.1383
10227W        W12427  10.038   3.167  28.132 -0.2810 -0.1688 -0.3902
10228W        W12428  15.833   6.496   0.716  0.1683  0.1790 -0.2337
10229W        W12429  16.956   3.124   9.061 -0.2718 -0.0228  0.0155
10230W        W12430   4.849   1.833  26.518  0.0680  0.1342 -0.0112
10231W        W12431  15.941   2.377  16.372  0.1986  0.0521 -0.3077
10232W        W12432  18.103   2.286   2.779  0.0742 -0.1183  0.2525
10233W        W12433   9.493   3.813  32.295  0.2068 -0.1925  0.3633
10234W        W12434  13.480   5.481  31.988  0.0986  0.0249  0.3605
10235W        W12435  18.961   4.408  23.342 -0.2188 -0.0716  0.1955
10236W        W12436  16.206   7.120  22.504 -0.2261  0.0825  0.4308
10237W        W12437   9.216   4.574  24.605 -0.1818 -0.1062  0.0298
10238W        W12438  12.773   4.691   7.906 -0.1431 -0.1838  0.1650
10239W        W12439  23.558   7.685   0.234 -0.0160  0.1995 -0.1192
10240W        W12440  21.572   0.792  11.347  0.0626  0.1216 -0.2432
10241W        W12441  22.444   3.742  13.209 -0.2431 -0.0763 -0.2522
10242W        W12442   9.312   5.165  29.675 -0.0634  0.0697  0.3180
10243W        W12443   1.106   3.622   1.450  0.0643  0.1259  0.0262
10244W        W12444   0.348   1.603  28.195  0.3528  0.0267 -0.0320
10245W        W12445  22.260   4.452   3.820 -0.3695 -0.1075  0.3640
10246W        W12446   6.052   4.266   9.618 -0.0317  0.0617  0.0186
10247W        W12447  24.899   0.725  21.515 -0.4777  0.1864  0.2388
10248W        W12448  22.384   3.406   0.221  0.1033  0.0154 -0.5043
10249W        W12449  11.642   7.593  10.124 -0.0260 -0.2288 -0.1415
10250W        W12450  13.887   2.575  10.786  0.0690 -0.4366  0.1160
10251W        W12451   9.335   1.899   3.792 -0.0102  0.0933 -0.1147
10252W        W12452  15.620   4.540   2.081  0.1517 -0.0908  0.1026
10253W        W12453   3.581   6.722   8.599  0.2372 -0.1093  0.0462
10254W        W12454  20.951   5.065  14.889  0.0182 -0.0369  0.0716
10255W        W12455  24.505   6.146   6.335 -0.2164 -0.0033 -0.1427
10256W        W12456  23.085   6.190  13.048 -0.0739  0.3540 -0.0786
10257W        W12457  18.227   7.303  30.804 -0.1142 -0.2401 -0.1995
10258W        W12458   0.054   7.567  30.043 -0.0840 -0.2010 -0.1954
10259W        W12459  15.069   2.561  24.700 -0.1293  0.1274  0.2153
10260W        W12460  20.897   0.639  10.558  0.1565 -0.3888  0.1195
10261W        W12461  12.962   0.966   0.298  0.2795 -0.0612  0.3196
10262W        W12462   8.062   0.934   3.131 -0.1806 -0.2839  0.1000
10263W        W12463  17.097   5.877   8.809 -0.1627 -0.2287  0.1955
10264W        W12464   8.534   7.326   6.547  0.1489 -0.2192 -0.0904
10265W        W12465  13.540   7.193  24.077 -0.1312  0.0374  0.0156
10266W        W12466  17.442   5.340  31.088  0.2300 -0.0853  0.1651
10267W        W12467   8.901   1.765  20.659 -0.0737 -0.1894  0.0127
10268W        W12468  12.571   3.054   2.135 -0.1229 -0.0275 -0.0324
10269W        W12469  10.072   3.387  22.061 -0.2208 -0.0592  0.1984
10270W        W12470  22.110   1.581  21.576 -0.0142  0.0764  0.1895
10271W        W12471   4.734   7.310  24.451 -0.0145 -0.0665  0.1441
10272W        W12472   9.009   0.634   9.275 -0.0629  0.1718 -0.0427
10273W        W12473  13.979   5.689   6.458  0.2559 -0.1022  0.1171
10274W        W12474  16.411   1.425  16.212 -0.1987 -0.0334  0.0244
10275W        W12475   7.994   4.440  29.066  0.0480 -0.4111 -0.1838
10276W        W12476   5.860   0.227  19.620  0.0337  0.1560 -0.1775
10277W        W12477  14.233   3.699   8.455  0.0540  0.3543 -0.0245
10278W        W12478   7.479   3.821   7.784 -0.1355 -0.0707 -0.0679
10279W        W12479  18.902   2.179  10.786 -0.1358 -0.0481  0.2144
10280W        W12480  12.423   6.918   6.815  0.1090 -0.2320 -0.1150
10281W        W12481  10.073   4.096  26.471  0.0738  0.0180 -0.0605
10282W        W12482   0.404   1.968   7.600 -0.1118  0.3200 -0.0743
10283W        W12483   9.835   4.793  24.664  0.2641 -0.0998 -0.1139
10284W        W12484   5.834   0.351  26.218 -0.2071 -0.2483  0.1365
10285W        W12485   9.305   6.485  25.919 -0.1594  0.0869 -0.0533
10286W        W12486   1.748   3.552  21.768 -0.2768 -0.0327 -0.0989
10287W        W12487  10.206   3.869  20.363  0.3065 -0.0845 -0.2490
10288W        W12488  20.422   2.814  29.336 -0.0828  0.1513 -0.0155
10289W        W12489  18.500   6.707  23.909 -0.2846 -0.0503  0.2825
10290W        W12490   3.173   4.201  21.852 -0.0479 -0.0691  0.0736
10291W        W12491  19.443   5.606  11.113 -0.2514  0.1249  0.0285
10292W        W12492   7.181   1.082  27.684  0.2089 -0.0243  0.3024
10293W        W12493   3.097   4.629  16.682  0.2218  0.4710 -0.3803
10294W        W12494  16.987   1.879  27.141 -0.1015  0.1755  0.1753
10295W        W12495  16.662   5.222  28.889 -0.1332 -0.2666 -0.0834
10296W        W12496   7.998   3.925  22.801 -0.3035  0.1931  0.2896
10297W        W12497   8.531   1.115  22.829  0.0978  0.0699  0.2009
10298W        W12498   4.994   7.449   5.393  0.0702  0.0332  0.0507
10299W        W12499   5.058   6.959   3.729 -0.0291 -0.1093 -0.1798
10300W        W12500  17.931   1.748  12.955 -0.2263  0.2504  0.4108
10301W        W12501   1.888   6.449  29.191  0.1281  0.3086 -0.0635
10302W        W12502   3.819   1.200  20.708 -0.3054 -0.0176 -0.2215
10303W        W12503  24.511   6.684  10.328  0.0955 -0.0320 -0.0007
10304W        W12504   7.532   5.529  28.498 -0.2998 -0.0485  0.2675
10305W        W12505  11.883   4.899   8.495 -0.1025 -0.1201  0.0477
10306W        W12506   2.682   2.950   0.959 -0.1982  0.0027 -0.3917
10307W        W12507  10.133   1.446   9.954 -0.2055  0.2250  0.0356
10308W        W12508  22.891   7.537  22.882  0.2273 -0.0227  0.2271
10309W        W12509  21.692   5.029  26.355  0.1536 -0.2575 -0.2587
10310W        W12510   2.444   0.387  31.704  0.0326 -0.1426  0.4777
10311W        W12511  13.614   6.572  11.796 -0.1285 -0.2278  0.1513
10312W        W12512  22.044   0.375  25.903 -0.0351 -0.0943 -0.1885
10313W        W12513  21.113   5.096  15.870 -0.1490  0.1921 -0.3018
10314W        W12514  25.042   6.633  28.618 -0.0886  0.5290  0.0105
10315W        W12515   7.485   5.122  20.618 -0.2151 -0.2058  0.0381
10316W        W12516   9.694   0.652  17.866 -0.0271 -0.2401 -0.0347
10317W        W12517  23.080   2.518   3.116 -0.2055 -0.3428 -0.1492
10318W        W12518   3.044   0.775   8.866 -0.0719 -0.1088 -0.1858
10319W        W12519  22.435   0.205  10.324  0.2772 -0.3130 -0.0940
10320W        W12520   6.327   6.936  15.590  0.0000 -0.0782  0.2639
10321W        W12521  20.144   2.223   8.752  0.0946 -0.0922 -0.1601
10322W        W12522   8.514   3.955  25.133 -0.1276  0.0603 -0.0172
10323W        W12523   2.398   6.991   3.917 -0.2292  0.0550 -0.1287
10324W        W12524  19.552   7.135  24.842 -0.0878  0.1029 -0.0571
10325W        W12525  13.446   4.751  25.424  0.0465 -0.1724  0.0778
10326W        W12526   2.699   7.846   6.709  0.0441 -0.0650  0.2910
10327W        W12527  15.052   0.006  27.150 -0.2348 -0.3086 -0.1631
10328W        W12528   2.067   2.143  26.521 -0.0515 -0.3890 -0.0166
10329W        W12529   5.551   0.945   1.153 -0.0411  0.4981 -0.0668
10330W        W12530  23.835   2.286   2.604 -0.2965 -0.0222  0.2153
10331W        W12531   3.705   0.107   8.916  0.2749  0.1423  0.1122
10332W        W12532  19.571   4.735  31.172 -0.1188  0.0798  0.0369
10333W        W12533  13.519   2.520  24.392  0.2426 -0.1796  0.1472
10334W        W12534  19.167   5.324   6.714  0.0113 -0.2735 -0.0816
10335W        W12535  16.606   4.659  27.209 -0.2557 -0.2580 -0.2184
10336W        W12536  15.096   6.915  13.679  0.4583  0.0609  0.0300
10337W        W12537   7.395   2.993   3.367 -0.3374 -0.0754 -0.0140
10338W        W12538  19.503   6.972  11.696  0.1587 -0.0484  0.0985
10339W        W12539   2.409   1.022  22.124  0.1445 -0.0342  0.0832
10340W        W12540   0.066   7.101   2.527 -0.1650 -0.1299 -0.4955
10341W        W12541  20.759   1.624  25.442 -0.0667 -0.0262  0.1775
10342W        W12542  18.150   1.730   9.527  0.0793  0.0119  0.1709
10343W        W12543  11.375   6.549   0.084 -0.1990  0.0266  0.1727
10344W        W12544   5.000   6.378  30.656  0.0708 -0.1176  0.0811
10345W        W12545   7.224   5.227  27.115  0.1983 -0.0689 -0.0293
10346W        W12546   5.500   2.149   0.453  0.3044  0.4083 -0.2139
10347W        W12547  13.654   2.964  24.175  0.0984  0.1685 -0.1114
10348W        W12548   4.315   7.670  30.454 -0.1822 -0.1272  0.0156
10349W        W12549  21.147   4.264   2.924  0.1611 -0.3251 -0.0991
10350W        W12550  16.121   5.768  25.343 -0.0257 -0.0830 -0.0762
10351W        W12551   3.524   6.499  23.434 -0.0171  0.3442  0.1880
10352W        W12552  14.097   2.591  12.675  0.1054 -0.3460  0.2698
10353W        W12553  12.209   0.683  21.520 -0.0370  0.1362 -0.1370
10354W        W12554  19.288   5.242  28.527 -0.0075  0.2484  0.3151
10355W        W12555  14.210   6.154  15.086  0.1420 -0.0775 -0.0928
10356W        W12556  22.507   1.635   8.684  0.1934 -0.1496 -0.2436
10357W        W12557  22.304   6.459  15.867  0.1389 -0.1170  0.2637
10358W        W12558  11.696   5.599   0.785 -0.0279 -0.1309 -0.0953
10359W        W12559   6.820   3.135   0.330  0.2266 -0.0335  0.1656
10360W        W12560   5.832   6.678   1.350 -0.1844 -0.0492 -0.1079
10361W        W12561  21.413   3.327  29.518 -0.2996 -0.0605  0.2207
10362W        W12562   1.132   3.096   1.606  0.2653  0.3420  0.1529
10363W        W12563   5.127   0.105   3.639 -0.0308 -0.2015  0.0579
10364W        W12564  14.718   3.425  30.152 -0.0621  0.2779 -0.0754
10365W        W12565  13.154   0.025  21.579 -0.1173 -0.1366 -0.0804
10366W        W12566   2.282   0.833   3.436  0.1197  0.1519 -0.0443
10367W        W12567   6.098   0.932   7.514 -0.2297 -0.1726 -0.0561
10368W        W12568   1.451   3.299  22.133  0.1803  0.1279  0.1507
10369W        W12569  10.528   2.303  31.619  0.0652  0.0381 -0.0014
10370W        W12570  11.894   1.264  23.299  0.0258  0.1869  0.0109
10371W        W12571  16.619   4.728   9.306 -0.1677 -0.0697  0.0118
10372W        W12572   8.203   1.840   9.178 -0.1392  0.1595 -0.0388
10373W        W12573  12.909   1.193   4.984  0.3140 -0.2183  0.1970
10374W        W12574   3.687   2.530  18.644  0.1888  0.2920  0.0109
10375W        W12575  11.716   0.826  29.302 -0.0132 -0.0554 -0.0287
10376W        W12576   2.250   3.519  12.358 -0.2784 -0.1644  0.0039
10377W        W12577  20.655   7.348   2.882  0.2805  0.2191  0.0603
10378W        W12578  13.595   6.180   9.743 -0.1600  0.3573  0.1753
10379W        W12579  20.374   6.783  13.416 -0.0654  0.2438 -0.1693
10380W        W12580  20.321   1.167   9.638  0.1339 -0.0297 -0.1800
10381W        W12581  10.496   5.601   5.297  0.3673 -0.1297 -0.1961
10382W        W12582  12.582   6.152  30.919 -0.0253  0.0884 -0.0569
10383W        W12583   3.701   0.132  22.619 -0.0016 -0.0887 -0.1377
10384W        W12584  19.747   1.974  14.084 -0.0046 -0.0044  0.2761
10385W        W12585  11.068   4.397   1.828  0.2354  0.0046 -0.3107
10386W        W12586  20.222   1.589  27.357 -0.0207 -0.1694  0.0966
10387W        W12587  23.936   6.507   1.211  0.1756  0.2019  0.0798
10388W        W12588  23.040   1.252  29.834  0.0363  0.0452  0.0899
10389W        W12589   9.895   5.408  23.808 -0.2720 -0.0954 -0.3102
10390W        W12590  10.680   7.365   5.502  0.3207 -0.1949  0.0416
10391W        W12591  16.492   5.565   6.696  0.1368 -0.0936  0.1616
10392W        W12592  17.304   3.012   3.242 -0.0932  0.1914  0.1193
10393W        W12593   7.552   3.677  30.976  0.1693 -0.1763 -0.0573
10394W        W12594  14.064   0.228   9.532 -0.1064  0.0791 -0.1697
10395W        W12595   0.648   6.704   1.761 -0.0187 -0.0520 -0.0697
10396W        W12596   5.140   5.114  15.588 -0.2040 -0.5353  0.0738
10397W        W12597  11.536   6.811   7.770  0.2559  0.0666  0.2907
10398W        W12598   9.983   6.082   8.092  0.0859  0.2398  0.0985
10399W        W12599  12.039   7.249   6.979 -0.0709  0.1171 -0.0938
10400W        W12600  10.336   4.903  27.562 -0.0278 -0.2248 -0.0200
10401W        W12601  18.723   0.336  30.725  0.1560  0.3039 -0.1180
10402W        W12602  18.562   7.270  16.542 -0.0154 -0.1899  0.2252
10403W        W12603  22.615   7.663  28.256 -0.0453 -0.2050  0.4301
10404W        W12604  17.864   0.575  14.941  0.2868  0.1224 -0.1631
10405W        W12605  20.341   1.813  22.038  0.1525  0.1397 -0.0366
10406W        W12606  22.465   2.305  30.494 -0.0608 -0.0950  0.2051
10407W        W12607   3.682   6.528   2.250 -0.1122  0.0333 -0.1802
10408W        W12608  20.891   6.368  10.015  0.2553 -0.2754 -0.3070
10409W        W12609   7.332   4.605  20.706  0.1449 -0.0178  0.0729
10410W        W12610   9.753   6.472   2.527  0.1819  0.0059  0.0530
10411W        W12611   6.290   6.390  23.978  0.0543 -0.0593  0.0509
10412W        W12612   3.075   1.110  20.911 -0.2084 -0.2359 -0.1225
10413W        W12613   1.251   7.232   2.432 -0.2129  0.0075 -0.1272
10414W        W12614  14.385   3.598  32.386  0.0677 -0.3935 -0.1187
10415W        W12615  20.301   7.220  28.134  0.0519 -0.1815 -0.0616
10416W        W12616  13.578   2.918   5.905 -0.2924 -0.0018 -0.1405
10417W        W12617  18.970   6.466   8.794 -0.0050  0.0676  0.0498
10418W        W12618  12.956   2.251  23.066  0.4596 -0.1244 -0.1415
10419W        W12619   8.594   0.478  31.267 -0.0681  0.0923  0.0288
10420W        W12620   0.683   5.304  26.017  0.3029  0.1340 -0.1332
10421W        W12621   7.114   6.221  30.291  0.2622 -0.4116 -0.1813
10422W        W12622   8.198   3.428  18.594  0.1585  0.1164 -0.0827
10423W        W12623   2.947   3.700  31.204  0.1517 -0.0580 -0.1305
10424W        W12624   6.246   4.209  26.072  0.1463  0.2441  0.1226
10425W        W12625   6.987   0.697  31.111 -0.1107  0.1234 -0.2873
10426W        W12626   8.056   2.963  27.415  0.0499 -0.2026  0.2339
10427W        W12627  18.519   4.416  10.644 -0.1394  0.0033  0.0603
10428W        W12628  17.035   0.137  15.206  0.1127  0.2679 -0.1834
10429W        W12629  10.771   1.188  27.917 -0.2080 -0.1808 -0.1914
10430W        W12630  15.145   5.604  11.820  0.1269  0.1642 -0.1143
10431W        W12631  12.538   7.762  31.836  0.0070  0.0517  0.1040
10432W        W12632   0.335   2.442  26.895 -0.0570  0.0977 -0.1590
10433W        W12633  24.301   2.679  12.256  0.0039  0.4400  0.2123
10434W        W12634   4.103   7.403   1.709  0.2766 -0.1056  0.3562
10435W        W12635  21.402   5.274  30.989 -0.0997  0.0455 -0.0535
10436W        W12636  11.683   6.647   3.361 -0.1459  0.1328  0.0806
10437W        W12637  22.053   2.281  10.554 -0.0563 -0.0753  0.1832
10438W        W12638  22.093   4.901  10.364 -0.1364  0.1058 -0.1462
10439W        W12639  15.539   5.394  23.571  0.3516 -0.0888  0.2131
10440W        W12640   8.217   1.527   7.018  0.0599 -0.2247  0.0796
10441W        W12641   7.792   3.656  25.927  0.2850 -0.2736 -0.1704
10442W        W12642   7.804   1.864  23.983  0.1382  0.0279  0.0470
10443W        W12643   5.909   3.241   6.303  0.1900 -0.1721 -0.0328
10444W        W12644  13.908   0.894   6.435  0.0448  0.2053 -0.0753
10445W        W12645  18.871   1.049  31.193 -0.4135 -0.1887 -0.1686
10446W        W12646  13.031   2.376   9.948 -0.0064  0.0150 -0.1950
10447W        W12647   7.279   7.242  30.734  0.3216  0.1459 -0.1609
10448W        W12648   2.082   7.360   9.590 -0.0411 -0.0453 -0.1228
10449W        W12649   2.067   0.310   9.839  0.1046  0.1661 -0.0595
10450W        W12650  22.913   2.281  29.978 -0.1297 -0.1274  0.1196
10451W        W12651   6.589   1.404  26.946 -0.0993 -0.3310  0.1603
10452W        W12652   9.693   0.228   3.623 -0.0930  0.3827 -0.2846
10453W        W12653  13.499   7.643   0.121  0.1139  0.1131  0.0700
10454W        W12654   1.686   4.847  25.030  0.0795  0.3771  0.1499
10455W        W12655   9.741   1.017  23.822 -0.0885  0.2323 -0.0699
10456W        W12656   7.899   7.280  21.426  0.0304 -0.1289 -0.0926
10457W        W12657  22.052   6.252   7.238 -0.0437 -0.0391  0.1748
10458W        W12658  23.598   5.794   1.656  0.0636  0.1817  0.0614
10459W        W12659  18.881   4.707   0.646 -0.2736  0.2910  0.0686
10460W        W12660   6.767   6.112   9.025 -0.1696  0.2588 -0.1679
10461W        W12661   0.407   5.941   9.038  0.0297 -0.4278  0.3759
10462W        W12662  24.967   1.950   3.189 -0.3396 -0.0523  0.1010
10463W        W12663  24.785   0.996  29.892 -0.1727 -0.0282 -0.2651
10464W        W12664   0.197   3.002   1.880 -0.2030  0.2499 -0.0739
10465W        W12665  11.706   1.483  31.619 -0.0667  0.1897 -0.0148
10466W        W12666   0.441   2.664  21.148  0.2380 -0.0335 -0.1800
10467W        W12667   7.703   0.839  18.190  0.1570  0.2190  0.0378
10468W        W12668  23.275   2.622  29.061  0.2124  0.0345 -0.1074
10469W        W12669   5.831   2.428   3.060  0.0391  0.1833  0.3955
10470W        W12670  16.082   7.774  31.264  0.0672  0.0803 -0.2294
10471W        W12671  12.373   4.906  11.430 -0.1883  0.0164 -0.0477
10472W        W12672  14.811   3.298   9.292 -0.0322 -0.0256  0.1202
10473W        W12673   8.466   5.046   3.564 -0.0829  0.2415 -0.2802
10474W        W12674  21.965   6.611   3.035 -0.0283  0.0114 -0.0280
10475W        W12675  23.262   5.560   8.529  0.1731 -0.0905  0.2525
10476W        W12676  11.842   1.358  25.418  0.0105 -0.0952 -0.0255
10477W        W12677   0.648   6.244  31.728 -0.0790  0.0923  0.1289
10478W        W12678  12.197   0.621  22.323  0.3225 -0.1569 -0.1479
10479W        W12679  17.671   2.790  23.427 -0.0311 -0.0599  0.2319
10480W        W12680  11.999   3.886   0.359  0.0352 -0.0146  0.0860
10481W        W12681   3.782   2.094  31.816 -0.1543 -0.1179 -0.2321
10482W        W12682   9.424   3.712   2.371  0.0677  0.2837 -0.3716
10483W        W12683  14.750   4.965   2.638  0.1791  0.0134 -0.0383
10484W        W12684   2.815   4.481   8.785  0.0640  0.4205  0.0588
10485W        W12685  11.044   1.714  18.338 -0.3233 -0.1235  0.1818
10486W        W12686   2.824   0.888   9.803 -0.0466  0.3142  0.2437
10487W        W12687  19.168   5.177  31.176  0.0579  0.0429 -0.2516
10488W        W12688   2.737   1.331  21.806 -0.0450 -0.1681  0.0619
10489W        W12689   7.894   7.252  29.270 -0.1354  0.1912 -0.1328
10490W        W12690   9.255   1.904  28.404  0.0911  0.0617  0.1374
10491W        W12691  13.478   0.745   6.021  0.0772  0.0740 -0.1801
10492W        W12692   8.597   7.455  28.359  0.1327 -0.1121  0.3331
10493W        W12693   1.214   3.485   1.934 -0.1225 -0.0148  0.1090
10494W        W12694  16.236   1.602  10.071  0.0632  0.0370  0.0706
10495W        W12695  16.680   4.429  26.780 -0.0922  0.1103  0.0626
10496W        W12696  15.608   2.108  13.868 -0.0793  0.1830  0.0426
10497W        W12697  18.578   7.809  18.136 -0.2360  0.3076  0.0189
10498W        W12698  20.948   2.510  32.038 -0.0710  0.2671  0.1509
10499W        W12699   2.382   2.990  25.102 -0.1401  0.1121  0.1671
10500W        W12700   0.439   5.759  25.946  0.0896  0.0096  0.0644
10501W        W12701   7.047   1.503  22.084  0.1617 -0.1081 -0.1201
10502W        W12702  20.380   3.709   1.839  0.1181  0.0273 -0.1322
10503W        W12703   2.273   1.873   8.489 -0.0285 -0.0259 -0.1516
10504W        W12704  14.065   0.685  31.089 -0.4683 -0.0699 -0.2427
10505W        W12705   0.923   7.279  25.536 -0.1676 -0.3003 -0.4329
10506W        W12706   9.694   2.155  26.766 -0.1697  0.0590  0.3194
10507W        W12707  19.105   1.106   5.923  0.1885 -0.1036  0.3544
10508W        W12708  17.350   2.157  30.386  0.0407  0.0169 -0.0541
10509W        W12709   2.621   6.714  17.830 -0.2885 -0.2169  0.0440
10510W        W12710  24.917   2.412  23.490 -0.0248  0.0375 -0.1064
10511W        W12711  14.027   5.981   0.027 -0.2001  0.3742 -0.1437
10512W        W12712  17.984   3.406  14.657 -0.1316 -0.1049  0.2319
10513W        W12713  18.938   3.789  25.440  0.0687 -0.0169  0.2861
10514W        W12714  19.365   6.398   3.421 -0.0178  0.0963  0.0507
10515W        W12715  23.175   7.407  27.075 -0.1028 -0.0888  0.1543
10516W        W12716  10.992   2.628   5.161 -0.0338 -0.0338 -0.1461
10517W        W12717  21.817   5.902   9.062 -0.1601 -0.2288  0.0194
10518W        W12718  11.264   3.510  20.474  0.2072  0.0728 -0.0464
10519W        W12719  19.647   4.929  32.256  0.1369  0.1851 -0.0733
10520W        W12720   2.957   2.299  16.397  0.0881 -0.0386 -0.0633
10521W        W12721   3.799   0.533   7.803 -0.0572 -0.1119 -0.1507
10522W        W12722   4.917   3.393   5.406  0.0778 -0.3433  0.1180
10523W        W12723  18.052   5.353   3.369  0.3645  0.1197  0.0459
10524W        W12724  12.885   1.661   4.689  0.0044 -0.0689  0.1156
10525W        W12725   9.947   2.706   0.828  0.1206 -0.0145 -0.0924
10526W        W12726  11.088   5.836  29.735 -0.2864 -0.2589 -0.0585
10527W        W12727  10.144   5.282   5.263  0.0444  0.0782  0.0672
10528W        W12728   0.086   5.286   4.434  0.0433  0.0505  0.1245
10529W        W12729  11.379   7.209   0.787 -0.0100 -0.0532 -0.5240
10530W        W12730   0.688   5.612  11.284  0.3258  0.0498  0.0552
10531W        W12731  17.004   6.914   9.373  0.1428 -0.1083 -0.1542
10532W        W12732  24.371   5.008   2.061  0.0074  0.0891  0.3440
10533W        W12733  18.327   4.397  15.890  0.0188  0.0306  0.2349
10534W        W12734  13.394   6.383   3.088  0.0819 -0.1778  0.1544
10535W        W12735  19.808   4.049  24.966 -0.0441  0.1080  0.1935
10536W        W12736  17.558   5.433  15.320 -0.0152  0.2426 -0.0581
10537W        W12737   0.088   2.018   5.887 -0.0188  0.2171  0.0277
10538W        W12738   3.780   1.364  29.824 -0.2317 -0.0854 -0.0206
10539W        W12739  20.412   4.503  11.076  0.0294  0.2909 -0.0677
10540W        W12740   2.219   3.742  22.495  0.2648  0.1582  0.2356
10541W        W12741  17.847   2.123  21.895 -0.1529 -0.0394  0.1547
10542W        W12742   3.413   7.415   9.433  0.1484 -0.3246  0.3186
10543W        W12743  20.377   3.696  29.718 -0.1286 -0.0251  0.2073
10544W        W12744  14.342   4.878  25.127 -0.1513  0.0394 -0.0994
10545W        W12745   2.909   4.867  18.374  0.1650 -0.1140 -0.2204
10546W        W12746  12.207   6.845  21.306 -0.0154  0.0254  0.0312
10547W        W12747  16.636   6.714   5.777 -0.0759 -0.2183 -0.1057
10548W        W12748  17.359   3.237  24.182 -0.0043  0.0680  0.0285
10549W        W12749  10.308   1.302  27.796 -0.1144  0.0924  0.0800
10550W        W12750   7.866   5.797  29.190 -0.0435 -0.2213  0.3386
10551W        W12751  15.059   3.565  12.845 -0.0449  0.1224  0.0184
10552W        W12752   9.249   4.008  15.919  0.0643 -0.3363  0.0979
10553W        W12753   9.881   6.925   4.508  0.2189  0.1171 -0.1584
10554W        W12754  19.167   6.392   0.913  0.2094 -0.0926  0.2126
10555W        W12755  24.821   5.279   3.793 -0.1586  0.0376  0.0936
10556W        W12756  17.854   3.102  30.632  0.1045 -0.1278  0.0321
10557W        W12757  20.256   6.776  24.454 -0.0065 -0.0585  0.1087
10558W        W12758  16.222   7.413  23.535 -0.1364 -0.1200  0.2390
10559W        W12759   1.106   4.574   5.778  0.1427  0.1501 -0.1383
10560W        W12760  15.951   4.730  24.219  0.2174  0.2166  0.0739
10561W        W12761  19.187   1.621  24.643 -0.2743  0.1543  0.0365
10562W        W12762  23.543   3.156   9.501  0.0847 -0.0436 -0.1026
10563W        W12763   7.733   5.292  27.077 -0.0223 -0.0608  0.2909
10564W        W12764  24.167   1.643  29.720 -0.0323 -0.1988  0.0885
10565W        W12765  23.579   1.607  20.604 -0.2642  0.0198  0.1514
10566W        W12766  16.876   4.198   2.731 -0.1218 -0.0762  0.1470
10567W        W12767  18.543   7.821  32.225 -0.2626  0.1437  0.1705
10568W        W12768  22.965   3.689   1.814 -0.0912 -0.2258  0.2750
10569W        W12769  13.192   6.504  12.052  0.2618  0.0801 -0.0129
10570W        W12770   0.465   1.844  27.658 -0.1869  0.0966 -0.0994
10571W        W12771  11.837   2.995   3.370  0.0541 -0.0764 -0.0143
10572W        W12772   6.863   4.008   6.199  0.0027 -0.2090  0.1605
10573W        W12773  22.863   4.349  10.942  0.1937 -0.1348  0.4518
10574W        W12774   0.698   7.306  10.969 -0.2433  0.2527  0.6489
10575W        W12775   5.069   1.247   8.897  0.0632  0.1387 -0.2546
10576W        W12776   1.012   6.708  19.639  0.0536  0.0706 -0.5020
10577W        W12777   1.390   1.337  11.163  0.2887  0.2369  0.2479
10578W        W12778   1.505   6.578  25.746 -0.1407  0.1415  0.0346
10579W        W12779   5.436   4.018  14.920 -0.1166  0.2885 -0.0457
10580W        W12780  10.789   1.233   4.103 -0.3204 -0.0915 -0.1770
10581W        W12781  16.216   3.990  29.572 -0.2414 -0.1724 -0.2831
10582W        W12782  12.693   3.604  19.998  0.1083 -0.1507  0.2796
10583W        W12783   3.803   7.402  26.778  0.1265  0.1006 -0.1457
10584W        W12784  20.106   2.544  16.062 -0.1389  0.0848 -0.0438
10585W        W12785  10.921   4.193   0.924  0.3337 -0.1227 -0.0032
10586W        W12786  19.874   6.136  15.982  0.1743  0.0228 -0.1847
10587W        W12787  23.543   3.963  31.581  0.2159  0.1967 -0.2357
10588W        W12788  14.625   1.650  27.934  0.0967  0.3575 -0.2298
10589W        W12789  22.640   7.684  10.625 -0.1165 -0.2598  0.1582
10590W        W12790  13.995   6.729  29.827  0.2318  0.1153  0.2342
10591W        W12791   5.257   0.096  29.523  0.2058 -0.0712 -0.2734
10592W        W12792  24.093   2.199  12.354 -0.0905  0.2877  0.0446
10593W        W12793  10.188   0.391   1.339  0.0158  0.1263  0.0552
10594W        W12794  23.794   7.776  29.707  0.0096 -0.0760  0.3096
10595W        W12795   8.784   4.662  21.899  0.1697 -0.0479 -0.0448
10596W        W12796  22.706   3.650  32.479  0.1043  0.1926 -0.0231
10597W        W12797   9.894   2.146  23.802  0.3139 -0.2415 -0.2655
10598W        W12798  24.699   3.062  24.195  0.0137 -0.0313 -0.3009
10599W        W12799   3.973   6.571   8.854  0.1085  0.1668 -0.1591
10600W        W12800   0.440   5.500   6.140 -0.2272 -0.2669  0.1002
10601W        W12801  22.120   6.480   4.681  0.0399  0.0270  0.1067
10602W        W12802  21.385   0.498  12.270 -0.2053  0.2287  0.1163
10603W        W12803  16.790   4.573   0.827  0.1754 -0.2164 -0.1712
10604W        W12804  23.888   2.543  31.734 -0.1094 -0.0160  0.1112
10605W        W12805  25.005   7.305  20.049 -0.0658 -0.0821  0.0388
10606W        W12806  23.606   7.187  31.505  0.0506  0.0781  0.1562
10607W        W12807  19.142   6.150   7.259  0.1542  0.0035 -0.1136
10608W        W12808   5.781   2.692  22.553 -0.0018  0.1208  0.0174
10609W        W12809   4.942   2.173  28.267 -0.2970  0.0788  0.1505
10610W        W12810  13.193   3.390  27.995 -0.0348  0.2809 -0.2145
10611W        W12811  23.936   2.494   2.138 -0.2065 -0.0169 -0.0972
10612W        W12812  12.088   2.397  30.653 -0.0769 -0.0638 -0.0871
10613W        W12813   5.758   2.234  30.832 -0.0526  0.2795 -0.1335
10614W        W12814  24.671   5.350  23.355 -0.3683  0.0514 -0.1443
10615W        W12815  23.876   2.157   6.900 -0.0413 -0.0600 -0.1816
10616W        W12816  20.859   4.886  11.892 -0.2064  0.1274 -0.1370
10617W        W12817  20.508   2.292   6.860  0.2425  0.0217 -0.1931
10618W        W12818  20.962   4.764   8.079 -0.0012  0.0755 -0.0296
10619W        W12819   6.709   1.234  24.646  0.2078  0.0593  0.0098
10620W        W12820  18.063   7.122  14.944  0.1312  0.0891  0.2510
10621W        W12821   5.287   6.312  26.381 -0.2048 -0.0305  0.0419
10622W        W12822   6.503   2.935   6.814  0.2815  0.1783  0.3722
10623W        W12823  22.199   2.383   8.960  0.4389  0.1517  0.0563
10624W        W12824  11.335   6.933  21.486 -0.1729 -0.3412 -0.0242
10625W        W12825   4.122   4.954  18.136 -0.0562 -0.1120  0.0820
10626W        W12826  19.799   7.031  27.831  0.2550 -0.1274 -0.2788
10627W        W12827  14.816   4.306  14.929 -0.0171  0.0142 -0.1285
10628W        W12828   7.824   0.678  24.670  0.0076  0.0343 -0.2160
10629W        W12829  23.579   6.385  30.843  0.2874  0.0026 -0.0025
10630W        W12830  12.391   7.222  22.648  0.0346 -0.0844 -0.2946
10631W        W12831  11.891   2.036  10.931  0.5192  0.1613 -0.0144
10632W        W12832  10.731   7.035   5.895  0.2819 -0.0649 -0.0004
10633W        W12833   1.558   6.312  22.145  0.3155  0.1298  0.0151
10634W        W12834   1.101   7.484  19.283 -0.2360 -0.1731 -0.2769
10635W        W12835   9.308   7.399  27.904 -0.0137  0.0930 -0.0111
10636W        W12836  16.884   2.453  15.938 -0.2085  0.3605  0.3375
10637W        W12837  13.542   2.370  32.045  0.2303  0.2967  0.1211
10638W        W12838   2.995   3.147   2.834  0.2043 -0.0935 -0.0860
10639W        W12839  22.195   4.758   0.070  0.4170  0.1337 -0.0441
10640W        W12840   6.904   3.718  21.456 -0.0606 -0.3266  0.1719
10641W        W12841   2.014   3.246   9.205  0.2935 -0.0347  0.0480
10642W        W12842   0.738   7.566  12.141  0.0118  0.1690  0.2275
10643W        W12843  13.465   0.958  11.419  0.2390  0.1503 -0.1660
10644W        W12844   2.596   6.158  18.622 -0.0528  0.1073 -0.1667
10645W        W12845  23.946   7.044  24.669  0.1260  0.1782 -0.0354
10646W        W12846   7.614   0.723  31.124  0.0771  0.2071 -0.1518
10647W        W12847  12.651   2.792   6.276 -0.1505 -0.2020 -0.2778
10648W        W12848  15.764   4.676   8.735  0.0570  0.2139  0.0517
10649W        W12849   2.623   5.533  28.567 -0.1020 -0.1776  0.2004
10650W        W12850  20.698   2.131  22.844  0.0683  0.2568  0.2031
10651W        W12851   3.532   1.519  19.519 -0.0137  0.3208 -0.0564
10652W        W12852  10.626   7.665  20.100  0.1061  0.0128  0.0868
10653W        W12853   3.514   4.263   6.280  0.2215  0.0034  0.0818
10654W        W12854  17.514   7.726  29.886  0.1313  0.2688 -0.0230
10655W        W12855   2.354   1.692  25.482 -0.0586 -0.1304 -0.0933
10656W        W12856  14.974   3.243   0.568 -0.2873  0.1622  0.1080
10657W        W12857   2.728   5.000   6.486  0.0792 -0.0758 -0.1196
10658W        W12858  13.289   1.443  31.632 -0.0541  0.0675  0.0960
10659W        W12859   9.409   2.879  19.327  0.0045 -0.0666 -0.1066
10660W        W12860  22.889   7.291   8.911  0.0373  0.0002  0.2644
10661W        W12861   2.944   6.461  23.935  0.0698 -0.0189  0.3117
10662W        W12862   7.476   7.544   6.275 -0.1761  0.1465 -0.0654
10663W        W12863   6.259   2.868   0.542  0.1890 -0.1636 -0.1533
10664W        W12864  10.326   0.637   0.311 -0.3117  0.1944 -0.0743
10665W        W12865   5.823   4.276   2.781  0.0314 -0.0065  0.0198
10666W        W12866   6.119   5.171  26.149  0.1682 -0.1494 -0.0864
10667W        W12867  24.122   0.119  11.368  0.0501  0.0959  0.1860
10668W        W12868  19.711   1.144   6.724  0.1816 -0.0948 -0.1094
10669W        W12869  21.288   5.893   3.748  0.0006 -0.0129 -0.0718
10670W        W12870   7.674   6.889  23.648  0.2215 -0.2812  0.2396
10671W        W12871  14.578   6.132  31.385  0.0759 -0.1270 -0.1139
10672W        W12872   7.512   5.531  31.879 -0.0224  0.1628 -0.1775
10673W        W12873  23.900   0.338  22.257  0.1364  0.0172 -0.0509
10674W        W12874  24.111   3.842  27.396  0.4803 -0.2261  0.2962
10675W        W12875   8.965   2.524  23.999 -0.3078  0.2848  0.1574
10676W        W12876   9.030   0.883  21.193  0.1185  0.2886  0.4713
10677W        W12877  24.771   0.225   9.807  0.0837  0.0067 -0.3263
10678W        W12878  20.033   3.394   6.102 -0.0419  0.2158 -0.4393
10679W        W12879  20.330   0.681   3.868  0.1916 -0.0653  0.0545
10680W        W12880   9.671   1.974   0.258 -0.0251  0.0370 -0.0475
10681W        W12881  13.259   6.627   9.680  0.1614 -0.0517  0.0034
10682W        W12882  15.696   1.981  10.614  0.0106  0.0554  0.4004
10683W        W12883  18.638   1.547  14.180  0.2348  0.2978  0.0112
10684W        W12884   7.606   3.275   4.163  0.2512  0.2580  0.0812
10685W        W12885  16.960   4.730   1.976  0.0722 -0.0331 -0.1410
10686W        W12886   3.246   4.491   7.626  0.2416  0.0833  0.1057
10687W        W12887   5.949   1.146  23.389 -0.0725  0.2209  0.2584
10688W        W12888  21.732   4.079   4.466 -0.1162 -0.0743 -0.1341
10689W        W12889  13.126   5.032   7.406 -0.1240  0.1079  0.0697
10690W        W12890  21.399   6.821   1.910  0.2909  0.1447  0.2931
10691W        W12891  22.457   1.636  27.470 -0.1442  0.2271 -0.1212
10692W        W12892   9.292   0.709   0.701 -0.1297 -0.1246  0.2762
10693W        W12893  20.818   0.631   0.593 -0.4693 -0.1627  0.0454
10694W        W12894  24.314   0.553  20.353  0.0212 -0.4866 -0.1569
10695W        W12895  11.794   6.081  32.401 -0.1140  0.2320  0.0976
10696W        W12896  20.918   3.320  15.048 -0.2347  0.1076  0.2005
10697W        W12897   1.723   6.358   7.597  0.0641 -0.3928  0.1629
10698W        W12898  23.391   7.311  28.481 -0.0816  0.1834 -0.0952
10699W        W12899   9.547   5.973   7.231  0.2434 -0.0451 -0.0224
10700W        W12900  21.441   1.059  26.537 -0.0348 -0.3581 -0.0824
10701W        W12901  16.407   1.830   9.403 -0.1505 -0.1734 -0.0553
10702W        W12902  17.448   7.063   7.739  0.2409  0.1662 -0.0124
10703W        W12903  12.322   4.402  23.850  0.1530  0.0018  0.0216
10704W        W12904  18.177   1.638  26.527  0.0875  0.3735  0.0422
10705W        W12905  17.756   7.286   5.399 -0.2220  0.0721  0.1685
10706W        W12906   7.713   1.240  28.964 -0.1133  0.0257  0.2789
10707W        W12907   7.806   3.893  17.817  0.2621 -0.4084  0.0744
10708W        W12908   3.435   5.857  16.272 -0.0170 -0.0102  0.1118
10709W        W12909  22.606   3.008   6.270  0.1727  0.2164 -0.0486
10710W        W12910  17.081   3.936  13.396  0.2580  0.0177 -0.1324
10711W        W12911   2.846   1.504  28.342  0.0911  0.1617  0.2155
10712W        W12912   4.666   4.839  15.471 -0.0499 -0.4048 -0.0990
10713W        W12913   4.239   0.602  18.667  0.0697 -0.2174 -0.0975
10714W        W12914   7.518   4.344  17.104  0.0505  0.0286 -0.1494
10715W        W12915   5.987   4.297  16.348 -0.0241  0.5285  0.1786
10716W        W12916  24.544   1.836   4.530  0.1192  0.0204  0.1034
10717W        W12917  22.866   6.087  30.401 -0.3110 -0.3639 -0.1414
10718W        W12918   3.763   6.005  31.921  0.2132  0.0353  0.2172
10719W        W12919   0.035   5.063   4.847 -0.0522  0.3133 -0.0203
10720W        W12920  17.855   7.602   6.396  0.2150 -0.1695 -0.0835
10721W        W12921  22.240   5.756  24.542  0.3871  0.0851  0.0772
10722W        W12922   1.084   1.941   1.503  0.1015 -0.2223  0.2506
10723W        W12923   1.680   7.290   4.720 -0.1948  0.0284  0.1826
10724W        W12924  15.948   1.270  29.948  0.1466 -0.3174  0.1900
10725W        W12925   0.528   2.498  31.533 -0.0618 -0.1531 -0.0603
10726W        W12926  23.038   3.066   1.191 -0.0988  0.0361  0.1514
10727W        W12927  23.081   4.131   0.513  0.0872  0.0638  0.1403
10728W        W12928   6.254   4.456   5.537 -0.1708 -0.2349 -0.1327
10729W        W12929   2.050   1.011  30.724  0.0010 -0.3179  0.0525
10730W        W12930  15.240   4.942  11.147 -0.1468  0.1723 -0.1466
10731W        W12931  15.776   0.103   3.359  0.2627  0.1636  0.2583
10732W        W12932  17.172   5.434   0.066  0.2866  0.1042 -0.1201
10733W        W12933  16.413   3.905  30.658 -0.2449 -0.3241 -0.1494
10734W        W12934  23.857   3.776   7.782  0.0555 -0.1489  0.2867
10735W        W12935   8.763   6.170  23.259  0.1982 -0.1384  0.1092
10736W        W12936   0.713   6.149   7.884  0.3970  0.0978 -0.1092
10737W        W12937  18.354   1.172  12.542 -0.1566 -0.0153 -0.1226
10738W        W12938  24.832   7.131  23.865  0.0205 -0.0480 -0.1299
10739W        W12939   8.855   2.773  31.196 -0.3641  0.0570  0.1309
10740W        W12940   8.042   1.094   4.876  0.0956  0.0914 -0.1922
10741W        W12941   1.690   3.972  25.079  0.0500 -0.0673 -0.4298
10742W        W12942  25.134   1.986   2.677 -0.1869 -0.1229 -0.1748
10743W        W12943  16.523   4.989   4.336 -0.2024  0.1271  0.1192
10744W        W12944   5.878   2.344  23.364 -0.3295  0.3523 -0.2146
10745W        W12945   4.383   0.238  32.361 -0.0752  0.3537 -0.0306
10746W        W12946  13.211   3.877  28.099 -0.0478  0.1117  0.2543
10747W        W12947  17.638   0.384   4.505  0.0857 -0.0041 -0.1531
10748W        W12948   4.942   2.803  32.472 -0.1375 -0.0100 -0.3571
10749W        W12949   1.858   2.122  20.134 -0.1591 -0.0047 -0.0338
10750W        W12950   7.344   1.127  25.935  0.2517  0.4372  0.0918
10751W        W12951  24.189   1.683  11.349  0.4091 -0.0955  0.0248
10752W        W12952  12.118   0.838  22.801 -0.1966 -0.2872 -0.0283
10753W        W12953   3.936   2.393   9.779  0.1337  0.3381 -0.2148
10754W        W12954   3.017   0.020  24.657  0.2127 -0.0799 -0.1515
10755W        W12955   2.920   7.860  23.669  0.1013  0.2221  0.0572
10756W        W12956  21.701   4.552  24.563 -0.1521  0.0829 -0.1210
10757W        W12957   7.757   7.253  15.492 -0.1300 -0.0922 -0.1638
10758W        W12958  21.648   6.933  13.788 -0.0028  0.1595 -0.3752
10759W        W12959  19.942   7.667  13.395 -0.0004  0.0592  0.3343
10760W        W12960  20.273   2.509  10.537  0.0229 -0.3431 -0.2439
10761W        W12961  16.618   2.124  24.190 -0.0993 -0.2861 -0.1812
10762W        W12962   6.969   2.069  31.764  0.0060  0.0485  0.2024
10763W        W12963  24.491   6.895  21.617  0.1278  0.1944 -0.0380
10764W        W12964  17.887   1.593  28.973  0.0160 -0.2128 -0.2089
10765W        W12965  20.012   3.604  31.160  0.2264  0.2860  0.0118
10766W        W12966  16.290   2.400   4.927  0.2815 -0.1699  0.0433
10767W        W12967  11.743   1.251   3.162 -0.2300  0.1191 -0.2190
10768W        W12968  24.392   1.355  23.132 -0.0649 -0.2110 -0.3138
10769W        W12969  20.530   6.845  16.908  0.2278  0.0680 -0.0435
10770W        W12970  23.935   4.953   9.524  0.1425  0.0361 -0.2114
10771W        W12971   0.813   1.642  29.334  0.2122  0.1531 -0.0357
10772W        W12972  17.851   0.595  30.310 -0.0162  0.0165 -0.1083
10773W        W12973   2.587   2.932  22.055 -0.5292  0.0253  0.0595
10774W        W12974  14.726   0.312  30.414 -0.0710  0.0903  0.0837
10775W        W12975   5.778   2.106   4.164 -0.1950  0.2161 -0.0858
10776W        W12976  23.466   7.823   4.847 -0.1049  0.0728 -0.0899
10777W        W12977   7.706   3.592  23.609  0.0649 -0.1175 -0.2763
10778W        W12978  10.496   1.107  17.307  0.2145  0.0148 -0.2384
10779W        W12979   2.087   2.855  17.697 -0.3199  0.3692 -0.2924
10780W        W12980  20.659   1.240  22.914  0.2401  0.2903  0.4716
10781W        W12981  12.313   5.456  20.621  0.2188  0.3779  0.1630
10782W        W12982  17.673   3.411   9.245 -0.1504 -0.0667  0.2460
10783W        W12983   8.851   1.139  16.516  0.1160 -0.1032 -0.1060
10784W        W12984  17.468   4.302  17.147  0.0956 -0.0738 -0.1344
10785W        W12985   2.609   5.453   8.381  0.2040 -0.3309 -0.0636
10786W        W12986   9.665   3.249  17.942 -0.2515 -0.0025  0.1272
10787W        W12987  17.119   5.895  22.956  0.0686  0.0203 -0.2156
10788W        W12988  21.162   4.937   5.473  0.0386 -0.1716  0.3154
10789W        W12989  18.294   4.784  30.705  0.2802 -0.1895  0.0806
10790W        W12990   9.036   5.213   6.916 -0.1191  0.1540 -0.4687
10791W        W12991  23.108   7.418   1.881 -0.3494  0.0675 -0.0415
10792W        W12992  21.275   3.120  14.707  0.2871 -0.0535 -0.0056
10793W        W12993  17.873   3.315  17.027  0.1014  0.0860  0.2858
10794W        W12994   6.221   3.226  31.685  0.0327  0.2453 -0.1120
10795W        W12995   3.718   1.800  26.146 -0.1040 -0.0402 -0.0690
10796W        W12996  12.642   5.693  30.630  0.0665 -0.0604 -0.0283
10797W        W12997  13.028   2.196  11.125  0.1393  0.1452 -0.0230
10798W        W12998  22.083   7.783   9.382 -0.1047  0.0022  0.0767
10799W        W12999  18.544   6.441  22.065 -0.0421 -0.2333  0.3186
10800W        W13000  23.287   0.992  28.535 -0.1256 -0.1900  0.2127
10801W        W13001   8.656   3.164  20.506 -0.1012  0.2749  0.1774
10802W        W13002   4.584   6.119  31.913 -0.2203  0.3763  0.1208
10803W        W13003  16.587   0.482  14.890 -0.0094  0.0103 -0.3880
10804W        W13004   6.679   5.683  25.030  0.0100 -0.0873 -0.1702
10805W        W13005   3.820   3.648   4.242 -0.0219  0.1435  0.0500
10806W        W13006  18.724   0.500  13.388 -0.2695 -0.0993  0.0889
10807W        W13007  16.840   5.419  27.421 -0.0968 -0.2804 -0.1626
10808W        W13008   6.659   2.218  28.624 -0.0149 -0.2535  0.0663
10809W        W13009  10.202   6.118  31.578  0.0680 -0.0937  0.1136
10810W        W13010  14.681   6.212  14.833  0.4109 -0.1098  0.0288
10811W        W13011   3.407   7.163  22.497  0.2244  0.1187 -0.0877
10812W        W13012  21.011   6.361  12.801 -0.1942  0.2305  0.0619
10813W        W13013   1.154   5.135   7.380  0.2510 -0.1146 -0.1661
10814W        W13014  21.294   0.277  10.071 -0.0203 -0.0196 -0.4865
10815W        W13015  15.972   5.142  22.728  0.0171 -0.0620  0.3256
10816W        W13016  16.327   5.567  15.702  0.2429 -0.0686  0.1163
10817W        W13017  23.255   7.830  26.420  0.2035  0.3497  0.0490
10818W        W13018   7.381   3.378   9.454 -0.0134 -0.1166  0.1404
10819W        W13019   2.180   3.995   1.535  0.0765 -0.1158 -0.0060
10820W        W13020  19.663   1.456  14.150 -0.0258 -0.1483  0.1183
10821W        W13021  20.419   3.139  31.403  0.1269  0.1570 -0.1314
10822W        W13022   6.343   4.835  28.505 -0.0528  0.3227  0.5096
10823W        W13023  13.715   4.370  24.455  0.3242 -0.0133  0.2887
10824W        W13024   8.545   1.689   7.841  0.2037  0.2438 -0.0582
10825W        W13025  24.513   7.729  32.496 -0.1797  0.1793 -0.0730
10826W        W13026   7.644   2.365   6.747  0.0915 -0.1332  0.0371
10827W        W13027  13.276   4.689  29.263  0.0076  0.0536  0.0725
10828W        W13028  17.642   1.504  14.992  0.3372 -0.2101  0.4166
10829W        W13029  18.708   1.416  16.070 -0.4645 -0.2048 -0.3773
10830W        W13030  14.776   5.636  28.932 -0.1701 -0.1920  0.2813
10831W        W13031  15.377   0.881  16.350  0.3123  0.0598 -0.1152
10832W        W13032  18.680   5.192  23.059 -0.0319  0.1349  0.0296
10833W        W13033   2.965   5.952   5.572  0.1644 -0.1565  0.1638
10834W        W13034  11.431   6.867   3.799 -0.3298 -0.0316  0.3458
10835W        W13035  19.003   4.286  11.218 -0.0965  0.1577 -0.2261
10836W        W13036   9.665   1.214  27.069 -0.0146 -0.1187  0.3728
10837W        W13037  16.893   2.238  29.777  0.1663 -0.1015 -0.1836
10838W        W13038  12.792   1.471  23.584  0.0190  0.2727 -0.0523
10839W        W13039  20.715   3.295   8.178 -0.1073 -0.3025 -0.0481
10840W        W13040  12.731   5.137   8.847  0.2658  0.2629 -0.0090
10841W        W13041  16.572   5.162  11.533 -0.1281  0.0371  0.1012
10842W        W13042  12.816   5.701   3.547  0.0461  0.0439  0.2217
10843W        W13043  15.095   6.467   0.874 -0.0613 -0.1772  0.2072
10844W        W13044  17.802   4.094  15.527  0.2871 -0.1984 -0.0054
10845W        W13045   2.702   4.208  29.117 -0.2904  0.2792  0.2344
10846W        W13046  15.886   6.145  24.857 -0.0041 -0.1326  0.1261
10847W        W13047   0.723   0.923  11.224  0.1777  0.0473 -0.2804
10848W        W13048  17.479   3.521  17.348 -0.3075 -0.0412 -0.1512
10849W        W13049   8.790   3.978  28.536 -0.0739 -0.0216  0.1009
10850W        W13050  14.856   3.726   8.397  0.2264  0.1022 -0.1161
10851W        W13051  21.539   7.427   2.701  0.0621  0.1903 -0.2616
10852W        W13052  10.408   4.871   5.744  0.0378 -0.3601 -0.0689
10853W        W13053  20.062   6.804   5.457  0.0865  0.0267 -0.1418
10854W        W13054   9.645   5.833  25.914  0.2733  0.1092 -0.0032
10855W        W13055  13.338   3.587  20.699 -0.0734 -0.0183  0.2346
10856W        W13056  22.102   5.106  22.141 -0.2231 -0.1149 -0.0050
10857W        W13057   9.518   1.010  17.577 -0.0409  0.0650  0.2853
10858W        W13058  14.054   1.405   8.428 -0.2114 -0.0373  0.0142
10859W        W13059   5.934   2.662   0.103 -0.1352  0.2522 -0.0746
10860W        W13060   1.510   4.040  31.507  0.1742 -0.0945  0.3221
10861W        W13061   8.906   7.845  25.777  0.0314 -0.0087  0.1650
10862W        W13062   8.542   7.093   1.516  0.1734 -0.0587  0.0119
10863W        W13063   2.945   7.607  20.008  0.0472 -0.0110  0.0130
10864W        W13064   2.864   2.537  28.099 -0.1494 -0.1328  0.1990
10865W        W13065  23.834   1.935   8.323 -0.0272  0.0544 -0.2230
10866W        W13066  11.529   1.614  23.187 -0.5778 -0.1069  0.2493
10867W        W13067  10.024   1.153  22.226 -0.1047  0.0428 -0.0045
10868W        W13068   3.201   2.018  23.167  0.3317  0.0991  0.2170
10869W        W13069   2.323   4.527  30.666 -0.3337  0.1103 -0.0309
10870W        W13070   5.337   5.241   7.353 -0.0809 -0.0371  0.0832
10871W        W13071  23.550   3.370  26.619  0.0176 -0.2533 -0.1372
10872W        W13072   8.208   6.135  28.526 -0.0319  0.0096  0.0606
10873W        W13073   1.290   3.006   9.156 -0.0808  0.3580  0.0368
10874W        W13074  15.892   2.801  12.544  0.1984  0.2535  0.0485
10875W        W13075  20.844   2.093   1.523  0.0802  0.2253 -0.1513
10876W        W13076   2.303   0.999   9.355  0.1611  0.1503  0.1036
10877W        W13077   1.327   5.958  27.915 -0.0601 -0.0833 -0.1486
10878W        W13078  22.350   1.088   8.778 -0.3059  0.0743 -0.0498
10879W        W13079  14.907   7.623  21.405  0.1190 -0.0987 -0.0315
10880W        W13080   6.216   0.453  29.633  0.1646  0.1118 -0.3268
10881W        W13081  19.314   3.758  12.774  0.1558  0.0570  0.0526
10882W        W13082   7.845   7.606  21.905 -0.0671  0.0659  0.0885
10883W        W13083  12.081   4.029  10.515  0.2431  0.2514  0.2248
10884W        W13084  24.225   0.051  15.235 -0.3924 -0.0787  0.1323
10885W        W13085  17.467   4.870  23.769 -0.0930  0.3733 -0.2993
10886W        W13086  18.573   3.641  31.744  0.0309 -0.0412  0.1628
10887W        W13087   8.787   3.484  28.504  0.1851  0.0272  0.1772
10888W        W13088   9.588   1.848  18.664 -0.1617  0.1590 -0.1740
10889W        W13089  15.835   1.475  26.125  0.1889  0.1150  0.0352
10890W        W13090   6.721   5.149  10.504  0.0701  0.0027  0.1254
10891W        W13091   1.544   4.336   0.876  0.0957  0.0828  0.0949
10892W        W13092   8.975   4.803   5.984  0.0632  0.1685 -0.0544
10893W        W13093  21.907   5.729  15.419  0.0918 -0.1320  0.1744
10894W        W13094   4.430   0.309  17.401 -0.0082 -0.2133 -0.0685
10895W        W13095   6.510   4.289  15.713  0.2129 -0.0278  0.3776
10896W        W13096  11.275   2.840   6.677  0.1357 -0.1828  0.1248
10897W        W13097   0.091   2.477  23.136 -0.0255  0.2794  0.0837
10898W        W13098  13.499   6.318  21.991  0.1813  0.1951  0.0737
10899W        W13099   2.248   5.991  22.409 -0.0362  0.1588 -0.0321
10900W        W13100  17.185   1.052  32.116 -0.1739 -0.0927 -0.1226
10901W        W13101  11.792   2.405  24.142  0.0183 -0.2458  0.1363
10902W        W13102  13.933   1.872  24.624  0.0632 -0.0004  0.0197
10903W        W13103  11.061   5.545  10.755  0.1822 -0.2510  0.0827
10904W        W13104  20.914   4.691  10.180  0.0717 -0.4114  0.1095
10905W        W13105   9.139   4.367  19.916  0.0450  0.1174 -0.1776
10906W        W13106  19.391   0.022  23.459  0.0341  0.1524  0.1463
10907W        W13107   0.585   2.662  29.204  0.1944 -0.1121  0.3883
10908W        W13108   4.780   7.853  18.191  0.1851  0.0741 -0.2640
10909W        W13109  16.074   7.131  31.865  0.0076  0.0377 -0.0064
10910W        W13110  17.864   0.808   1.878  0.1801 -0.1710 -0.0877
10911W        W13111  13.137   1.665   7.331 -0.1358 -0.3223  0.1870
10912W        W13112   3.195   3.140   3.298 -0.1885  0.0857  0.0460
10913W        W13113  15.085   4.123  12.998  0.2204  0.0681 -0.0184
10914W        W13114  17.109   2.216  11.438  0.0979  0.0966 -0.1160
10915W        W13115  24.009   7.039   0.340  0.0646 -0.1365 -0.2894
10916W        W13116  24.669   3.506  29.579 -0.1561 -0.0226  0.0253
10917W        W13117  17.740   4.650  18.071  0.0427  0.2885 -0.0115
10918W        W13118  18.413   1.917  31.010 -0.0605 -0.0181 -0.2856
10919W        W13119  21.723   1.192  12.779  0.1645  0.1019 -0.3970
10920W        W13120  16.002   4.314  31.197 -0.0299  0.1847 -0.0803
10921W        W13121   8.311   0.525  17.589  0.1542  0.1494 -0.0587
10922W        W13122  22.076   3.298   1.349 -0.0497 -0.0105 -0.2676
10923W        W13123   2.220   7.214  27.910 -0.2574 -0.4121 -0.1300
10924W        W13124  19.271   4.245  22.942 -0.0014 -0.1493 -0.2452
10925W        W13125  19.160   4.558  31.336 -0.1508 -0.1715  0.1081
10926W        W13126  19.230   3.422   4.779 -0.2312  0.0089  0.1096
10927W        W13127  19.885   0.452   1.606 -0.0839  0.0426 -0.1291
10928W        W13128  15.310   1.170  10.323 -0.2877  0.0524 -0.0511
10929W        W13129  16.199   5.799   1.497  0.2366 -0.1963  0.0496
10930W        W13130   8.954   5.111   0.984 -0.0476 -0.2884 -0.0330
10931W        W13131   5.826   1.189  13.903  0.1589  0.2760  0.0151
10932W        W13132   1.208   4.970  21.049 -0.1807 -0.2328  0.3626
10933W        W13133  12.791   3.759  28.788 -0.0877 -0.2183 -0.1648
10934W        W13134  16.902   3.284  13.885  0.1665  0.3183  0.0913
10935W        W13135  22.267   1.198  27.671  0.1021  0.0995 -0.0465
10936W        W13136   4.824   2.690   5.404 -0.0511  0.1272  0.0252
10937W        W13137   1.711   7.661   3.374  0.0081  0.3281 -0.1639
10938W        W13138  22.967   1.946   6.676 -0.1348 -0.1730  0.3570
10939W        W13139   5.981   6.128  19.240  0.0357  0.2216 -0.0540
10940W        W13140   1.497   7.592  27.199  0.2274 -0.0346  0.3075
10941W        W13141   8.114   5.473  23.336 -0.0478  0.3366 -0.3990
10942W        W13142  19.509   2.806   9.897  0.0358  0.0955  0.0967
10943W        W13143  14.047   7.646   8.638  0.0843 -0.2610 -0.2202
10944W        W13144  22.120   1.572   9.933 -0.0205 -0.3215  0.1321
10945W        W13145  11.077   5.502   7.520  0.0626  0.0411  0.0224
10946W        W13146  12.596   4.375  21.226  0.1992  0.1824  0.0203
10947W        W13147  21.857   7.644  26.665  0.2349 -0.0001 -0.2442
10948W        W13148  16.406   5.464  27.165  0.0273  0.0524 -0.0779
10949W        W13149  16.638   2.249  25.936 -0.0264  0.2037  0.2148
10950W        W13150  16.097   1.010  23.414 -0.0412 -0.1022  0.1540
10951W        W13151  12.734   6.053  31.442 -0.1073 -0.0732 -0.1925
10952W        W13152  21.429   0.918  10.474 -0.2110 -0.1071 -0.3527
10953W        W13153  21.356   6.617  24.930 -0.0232 -0.0038 -0.2415
10954W        W13154  12.651   1.622   0.690 -0.1091  0.3063  0.0308
10955W        W13155   1.386   2.157   8.248 -0.2874  0.1130 -0.3783
10956W        W13156  21.804   7.205   3.832 -0.0504 -0.1501 -0.1377
10957W        W13157  12.805   6.589  25.245  0.1759  0.0883  0.0400
10958W        W13158   2.571   2.839   5.365  0.2926  0.0302 -0.1388
10959W        W13159   1.527   5.626   8.176  0.0591  0.3309  0.0490
10960W        W13160  20.107   3.601  16.604 -0.3547 -0.0029  0.2858
10961W        W13161   1.653   4.447   7.176  0.3332  0.0238 -0.2628
10962W        W13162   2.690   5.704   2.375 -0.4520 -0.3121 -0.0343
10963W        W13163  16.046   5.657   7.892  0.3121  0.0969  0.2501
10964W        W13164  24.894   6.674   7.395  0.1929  0.5134 -0.0588
10965W        W13165  18.696   2.304  17.111 -0.1926 -0.0013 -0.0071
10966W        W13166   6.140   1.738  19.367  0.2485 -0.1379  0.0597
10967W        W13167   1.098   0.473  29.994 -0.2371 -0.0991  0.0586
10968W        W13168   7.998   5.148  16.796  0.0791 -0.0630  0.2323
10969W        W13169  14.525   6.040   4.087  0.0401 -0.1790  0.1619
10970W        W13170  10.678   0.010  29.220  0.4920 -0.1829  0.1880
10971W        W13171  23.524   6.823  22.084 -0.0232  0.0375  0.0440
10972W        W13172   1.834   3.494  25.172 -0.0735 -0.0162  0.2032
10973W        W13173  22.142   3.259  24.197 -0.1451 -0.0654 -0.1005
10974W        W13174  17.423   6.980   2.646 -0.2213  0.1511  0.0020
10975W        W13175  15.083   4.754  29.233  0.1318 -0.1165  0.0371
10976W        W13176  23.760   5.510   5.049  0.3839  0.0712  0.0440
10977W        W13177  17.471   5.942  25.486 -0.1909  0.4044  0.0208
10978W        W13178   5.950   3.661   1.937  0.0112 -0.2407  0.2679
10979W        W13179  18.963   6.847  26.774  0.1985 -0.1445 -0.1961
10980W        W13180   3.941   2.931  18.431 -0.0724  0.1866 -0.0928
10981W        W13181  13.494   2.830   8.017  0.0254 -0.6663 -0.1361
10982W        W13182   7.892   0.282  31.386 -0.0473 -0.1169  0.1388
10983W        W13183   2.835   4.443  30.265 -0.4311  0.0269  0.1281
10984W        W13184  11.466   6.518  22.295 -0.2190 -0.1821 -0.1601
10985W        W13185  11.904   7.184   1.078  0.3192 -0.2745  0.1396
10986W        W13186   1.615   6.159  10.277 -0.1350  0.2743 -0.0888
10987W        W13187  21.382   0.422   4.775  0.0537  0.1440  0.0512
10988W        W13188  24.506   4.448  31.353 -0.1609  0.1749  0.0206
10989W        W13189  10.715   2.262   7.863  0.0231 -0.3278 -0.1651
10990W        W13190  18.236   0.727  23.040 -0.0282  0.3584 -0.1695
10991W        W13191  15.873   4.152  10.149 -0.2911 -0.1131  0.0118
10992W        W13192   3.304   5.602  28.128  0.0101  0.3105  0.2332
10993W        W13193  18.948   1.075   2.570  0.1873 -0.1078 -0.1010
10994W        W13194   4.104   5.800  29.430 -0.1097  0.1130 -0.2995
10995W        W13195  12.354   3.678  32.352  0.1445 -0.1447  0.0789
10996W        W13196  10.501   3.709  31.026  0.0159 -0.1855  0.0610
10997W        W13197  12.175   0.537   5.543 -0.0821 -0.1777  0.2291
10998W        W13198   5.717   2.350  17.023  0.4036 -0.0348 -0.2213
10999W        W13199  10.893   6.592  31.392  0.0254 -0.1860 -0.0445
11000W        W13200   4.212   3.417  15.925  0.2375 -0.2976 -0.1890
11001W        W13201  15.147   4.937  31.970  0.1468  0.0493 -0.0899
11002W        W13202   3.728   0.140   4.848 -0.2908 -0.1911  0.2637
11003W        W13203   8.801   1.700  25.563  0.1808 -0.2675  0.0608
11004W        W13204   3.608   3.847   9.947  0.0555 -0.0923  0.0575
11005W        W13205  22.567   4.839   3.954 -0.2247 -0.2305 -0.2718
11006W        W13206  12.412   1.765  27.907 -0.3983  0.2240  0.0684
11007W        W13207  22.302   4.559  27.105  0.0904  0.2828  0.0148
11008W        W13208   3.061   0.589  21.088 -0.0628  0.4191 -0.0057
11009W        W13209  16.618   3.145  15.370  0.1137 -0.0997  0.0943
11010W        W13210   6.175   7.678  28.319  0.4018 -0.0410  0.1899
11011W        W13211  18.385   3.287  12.683 -0.0216  0.2740 -0.2603
11012W        W13212   0.502   3.713  23.284  0.1858  0.2226 -0.1219
11013W        W13213  14.150   3.652  14.564  0.0513 -0.1779  0.0228
11014W        W13214   9.666   6.076  20.522 -0.1226  0.4227  0.1101
11015W        W13215   8.915   3.639  19.335  0.0787 -0.0101 -0.1487
11016W        W13216  20.342   2.608  17.620  0.0355 -0.1065 -0.0962
11017W        W13217  24.969   6.297  29.998 -0.1174  0.0531  0.1709
11018W        W13218  11.337   2.437  23.874  0.1662  0.1627  0.2890
11019W        W13219  15.658   1.831  15.633  0.1366 -0.2955  0.0509
11020W        W13220  22.140   6.797  26.545  0.1610  0.2398  0.0873
11021W        W13221  10.436   3.105  24.859 -0.2337  0.0388  0.0220
11022W        W13222   1.760   4.145   9.566 -0.0545 -0.1341  0.0391
11023W        W13223   4.367   6.564   7.107 -0.1137  0.0017  0.0368
11024W        W13224   2.443   2.486  21.062  0.0664 -0.0065 -0.3111
11025W        W13225   5.334   6.685  17.931 -0.0003 -0.4011  0.2017
11026W        W13226  20.514   4.385  32.036 -0.0627  0.0439  0.2454
11027W        W13227   8.047   4.060  25.957 -0.1147 -0.0089 -0.1551
11028W        W13228  24.969   6.705  26.910 -0.0121  0.1641 -0.3024
11029W        W13229  12.228   7.743   5.074  0.1094 -0.1061  0.0701
11030W        W13230  17.296   4.759  22.620 -0.2108 -0.1199  0.0983
11031W        W13231  14.291   5.663  27.356 -0.3723 -0.3039 -0.2684
11032W        W13232  19.937   2.793   6.990 -0.0976 -0.2388 -0.2372
11033W        W13233   1.685   6.123  26.808  0.0618  0.1836  0.0149
11034W        W13234   5.838   4.988   9.278 -0.2488 -0.0578  0.1573
11035W        W13235  20.778   0.280  10.209 -0.3541  0.0123 -0.3226
11036W        W13236  24.983   6.751  14.216 -0.1642 -0.0795 -0.0331
11037W        W13237   0.680   4.743   9.902 -0.0205  0.1156  0.0164
11038W        W13238  17.727   3.658   5.880 -0.2969 -0.1633 -0.1015
11039W        W13239  11.284   4.272  27.610  0.4142 -0.1320 -0.1589
11040W        W13240  11.413   7.715   8.112  0.3210  0.0070 -0.0134
11041W        W13241  10.777   0.479  18.396  0.0870 -0.1700 -0.1229
11042W        W13242  19.648   3.891  31.953  0.1014 -0.1978  0.0957
11043W        W13243  24.126   6.218   7.778  0.1040  0.1135  0.0052
11044W        W13244   3.227   6.733  25.654  0.2309  0.2229 -0.2485
11045W        W13245   6.602   6.304  21.120  0.0943  0.1757  0.0393
11046W        W13246  23.872   2.752  30.208  0.3365  0.3068 -0.0862
11047W        W13247  20.368   7.782  12.701 -0.0497  0.1403  0.0662
11048W        W13248  15.625   2.942   1.972 -0.0125  0.0762 -0.3967
11049W        W13249   2.197   0.561  25.215 -0.1364 -0.2806 -0.0768
11050W        W13250   8.438   0.632  21.965 -0.1471  0.0099 -0.0789
11051W        W13251   7.736   4.907  22.654  0.0666 -0.1658 -0.0066
11052W        W13252   8.412   0.053  17.103  0.0917 -0.3652  0.0434
11053W        W13253  10.942   2.439  30.451 -0.0670  0.4257  0.1584
11054W        W13254   0.796   1.842  26.428 -0.1820  0.0674  0.0398
11055W        W13255  20.344   7.128   5.777  0.0035 -0.1569  0.1638
11056W        W13256  24.514   7.341   3.195 -0.2320 -0.2141  0.1550
11057W        W13257  23.393   6.335  21.578 -0.0389  0.1123 -0.0232
11058W        W13258  21.656   7.284  32.101 -0.2507 -0.0400  0.2161
11059W        W13259  17.236   6.518  25.326 -0.0930 -0.2039  0.0379
11060W        W13260   9.289   3.980   4.772  0.2728 -0.2977  0.1387
11061W        W13261  17.672   2.586   9.644 -0.2575 -0.0745 -0.1839
11062W        W13262  14.473   7.141  26.292 -0.1299 -0.4176 -0.0937
11063W        W13263   2.036   5.141  10.228 -0.0292 -0.0300  0.0451
11064W        W13264  12.809   1.937  25.156  0.0993  0.0220 -0.1196
11065W        W13265   9.545   7.094   4.963 -0.0242 -0.0394  0.1239
11066W        W13266  22.646   6.547  30.398 -0.0091  0.0506 -0.1876
11067W        W13267  17.052   0.138  11.107  0.1554 -0.0840  0.0396
11068W        W13268   1.458   3.504  28.957  0.0191  0.0162  0.1786
11069W        W13269   5.286   2.939  21.697  0.1546 -0.2134  0.1670
11070W        W13270   9.796   2.162   3.779  0.0437 -0.0246  0.1484
11071W        W13271  25.081   4.455  26.202  0.0774  0.2463 -0.1505
11072W        W13272   8.253   7.338  22.913 -0.1369 -0.1169 -0.0155
11073W        W13273   2.258   1.779  22.852 -0.0156  0.0301  0.0018
11074W        W13274   8.546   6.168  18.059 -0.0819  0.1911 -0.1603
11075W        W13275  22.106   5.713  15.905  0.1819  0.0419  0.3135
11076W        W13276   8.830   7.112  24.182 -0.0018  0.0911  0.1837
11077W        W13277   3.725   4.112  19.848 -0.0580  0.1517  0.3097
11078W        W13278   0.329   7.698   8.365 -0.2966  0.0289 -0.1311
11079W        W13279   0.630   7.614  31.388  0.3105 -0.1128  0.1280
11080W        W13280   3.857   2.974   6.349  0.0549  0.1853  0.0572
11081W        W13281   1.489   2.562  28.488 -0.2698  0.0505 -0.1416
11082W        W13282   1.433   3.740  11.744  0.4006  0.0609 -0.1799
11083W        W13283  22.269   4.552  14.438 -0.1021  0.2850  0.1709
11084W        W13284  12.056   4.742  24.844  0.4481  0.0678  0.0817
11085W        W13285   9.313   1.087   5.887 -0.0303  0.0405  0.2488
11086W        W13286   9.288   4.854   8.593  0.0347 -0.1972 -0.0195
11087W        W13287   6.180   7.715  25.134 -0.2617 -0.1998  0.2249
11088W        W13288  13.630   5.114   0.874 -0.4087 -0.1836  0.1341
11089W        W13289  18.484   2.055   2.118  0.2181 -0.1212  0.2289
11090W        W13290   9.728   6.020  22.947  0.1948 -0.1040 -0.1249
11091W        W13291  11.616   0.930   4.736  0.4403 -0.0975  0.2157
11092W        W13292   4.150   1.888  23.012 -0.0001  0.2401 -0.1519
11093W        W13293  11.717   5.773  10.206 -0.1885  0.4023 -0.1658
11094W        W13294  18.854   0.051  29.803  0.0402  0.1461  0.3000
11095W        W13295  24.281   1.038   6.716  0.2120  0.0139 -0.0267
11096W        W13296  12.859   5.202   3.412 -0.0963 -0.1330  0.2632
11097W        W13297   2.834   7.768  22.825  0.1093  0.0009 -0.0066
11098W        W13298  22.045   1.418  25.818 -0.1132 -0.0996  0.1621
11099W        W13299  23.279   6.724  22.586 -0.1982  0.1551  0.3439
11100W        W13300  22.177   0.841  25.552  0.0548  0.0997 -0.1790
11101W        W13301  22.570   4.303   1.285 -0.0200  0.2409 -0.1324
11102W        W13302  16.423   3.933  25.907 -0.1784 -0.0842 -0.5630
11103W        W13303  16.666   0.595  26.794  0.3508  0.1466  0.2756
11104W        W13304  12.772   6.369  32.579 -0.0332  0.1890 -0.3008
11105W        W13305  22.788   1.919  32.481 -0.4655  0.1450 -0.1386
11106W        W13306   5.270   5.394   4.277  0.1829 -0.0651 -0.0728
11107W        W13307  10.761   4.480  27.700  0.1214 -0.0957  0.1348
11108W        W13308   3.996   3.527  17.621 -0.0978  0.0360  0.0068
11109W        W13309  24.907   7.736  30.498 -0.0890  0.0872 -0.2208
11110W        W13310  17.172   7.517   5.767  0.1223  0.2227 -0.3857
11111W        W13311  21.577   2.451  30.831  0.1948  0.0902  0.4971
11112W        W13312  10.870   0.975  25.192 -0.0029 -0.1583  0.2017
11113W        W13313  11.860   2.089  19.229  0.2463  0.2123  0.3453
11114W        W13314   0.975   7.859  29.078  0.3647 -0.4018 -0.1549
11115W        W13315  18.535   7.298  28.145 -0.1418 -0.1822  0.1502
11116W        W13316   9.699   0.758   4.285  0.4036 -0.1487 -0.0150
11117W        W13317  20.992   4.159   9.275  0.0471 -0.1959 -0.3875
11118W        W13318  23.869   4.563   9.239  0.1702 -0.0828 -0.1509
11119W        W13319  13.872   1.115   8.940  0.0813  0.1508 -0.2093
11120W        W13320   9.719   5.432   3.139 -0.1755 -0.1179  0.1736
11121W        W13321  12.091   2.940   1.035  0.0401  0.1806 -0.3549
11122W        W13322  10.935   3.642   1.092 -0.1886  0.1085  0.1476
11123W        W13323  23.238   4.887  22.906  0.1699 -0.0116  0.1101
11124W        W13324  20.799   2.031   2.619 -0.2708  0.0142  0.0416
11125W        W13325  20.924   3.882   4.570  0.3022 -0.2979  0.1231
11126W        W13326   4.198   2.805  17.166 -0.2667 -0.0306  0.0932
11127W        W13327   7.295   7.587  25.800  0.4244  0.1420  0.0232
11128W        W13328   3.550   6.316   8.331 -0.1167 -0.3267 -0.2153
11129W        W13329   7.671   0.702  26.038 -0.2148  0.3532  0.0319
11130W        W13330  11.213   3.725  31.869  0.3313 -0.3439  0.2288
11131W        W13331   1.238   5.860   2.592 -0.1616  0.2391 -0.1008
11132W        W13332  18.390   4.115  25.945  0.3378  0.1231  0.0360
11133W        W13333   0.295   7.779  22.093  0.0639  0.1484  0.0233
11134W        W13334  16.784   3.777  27.431 -0.3434 -0.2808  0.0086
11135W        W13335  10.098   3.619   0.505 -0.2596  0.0675  0.0039
11136W        W13336   8.557   6.288  30.139  0.1114  0.4184 -0.1634
11137W        W13337   2.805   1.612   3.766  0.2151 -0.1019  0.0367
11138W        W13338  21.534   0.165  23.710 -0.1672 -0.0400  0.0568
11139W        W13339  11.469   3.818  22.368  0.1453 -0.0110  0.0261
11140W        W13340  13.527   1.644   0.786 -0.2892  0.0680  0.0176
11141W        W13341   8.439   0.734  27.197  0.1317  0.2079  0.2653
11142W        W13342  25.000   5.746  12.026 -0.1911  0.1512 -0.1338
11143W        W13343   8.562   2.802  22.691  0.1322  0.2406 -0.1259
11144W        W13344   0.797   2.877   0.291  0.0685  0.0502  0.0107
11145W        W13345  24.145   5.155  22.639  0.0908  0.1551 -0.3542
11146W        W13346  24.697   1.992  28.764  0.2121  0.1863  0.1110
11147W        W13347  18.351   5.614  28.110 -0.4855  0.4005  0.0740
11148W        W13348  17.995   3.132  31.117 -0.1110 -0.2057 -0.3484
11149W        W13349  11.194   4.780  27.741 -0.1062  0.1958  0.1135
11150W        W13350   2.835   2.108  30.757 -0.2124 -0.2449 -0.1386
11151W        W13351   5.239   1.453  18.310  0.2311 -0.0975 -0.0600
11152W        W13352  14.235   0.320  14.243  0.3977 -0.1298 -0.0254
11153W        W13353  20.892   2.821   9.026 -0.0429  0.0518  0.0951
11154W        W13354   8.946   6.137   6.082 -0.0014 -0.1003  0.2704
11155W        W13355  23.380   7.785   6.656 -0.2880 -0.1864  0.2003
11156W        W13356  23.157   2.964  14.853 -0.2371  0.1275 -0.0389
11157W        W13357  14.821   0.123  32.451  0.0349  0.1870 -0.1090
11158W        W13358   8.820   7.650  19.782  0.2236 -0.1683  0.2196
11159W        W13359  18.875   6.591   6.957 -0.1936  0.0923  0.1424
11160W        W13360   9.198   6.183   9.171  0.1630  0.0474 -0.0368
11161W        W13361   7.517   4.218   4.484  0.0008  0.0922  0.2270
11162W        W13362  21.252   1.224  14.069 -0.1069  0.1744 -0.0173
11163W        W13363   6.822   6.323  19.407 -0.1322 -0.0093  0.0280
11164W        W13364  15.473   2.937   4.096  0.0916 -0.0934 -0.0132
11165W        W13365   3.802   4.291   2.649  0.0053  0.0721 -0.3374
11166W        W13366  14.282   2.583   9.843  0.3128  0.3222 -0.1474
11167W        W13367  22.439   2.317  21.994 -0.1178  0.0954  0.0921
11168W        W13368   6.038   3.862   8.903  0.1139 -0.0227  0.0582
11169W        W13369  15.868   6.207   3.665  0.0400  0.0818  0.2153
11170W        W13370  16.268   6.653   5.406 -0.2381  0.1269 -0.1037
11171W        W13371  18.329   0.089   5.804  0.0388 -0.2384  0.1492
11172W        W13372  15.373   5.321  16.143 -0.0217  0.0985 -0.1521
11173W        W13373   9.727   6.037  24.228  0.1017  0.1898  0.0097
11174W        W13374  18.338   5.329  16.277  0.2910  0.0655 -0.3881
11175W        W13375   3.734   0.748  29.070  0.1765 -0.2803  0.3096
11176W        W13376   1.596   0.490  11.610  0.0355  0.0108  0.2674
11177W        W13377   5.030   7.020   9.065 -0.1648 -0.0218  0.2215
11178W        W13378  20.907   3.234  11.088 -0.3488  0.1437  0.2320
11179W        W13379  11.964   3.070  28.019 -0.0983  0.0033 -0.0978
11180W        W13380   1.506   5.309  27.276 -0.0291  0.0092 -0.1909
11181W        W13381  16.660   3.867   9.922 -0.1837  0.0341 -0.0930
11182W        W13382  20.570   6.290  26.677 -0.1213 -0.3955  0.0678
11183W        W13383  15.765   6.411  11.059 -0.2679  0.1277  0.1217
11184W        W13384  17.311   4.074  11.950 -0.3518  0.0999  0.2819
11185W        W13385  17.695   6.801  25.237  0.0852 -0.2988 -0.4625
11186W        W13386  24.645   2.312   3.084  0.1986 -0.2118 -0.0116
11187W        W13387   9.572   1.338  20.456 -0.1070 -0.1917  0.0102
11188W        W13388   3.529   6.436   1.772 -0.0436  0.0176  0.2481
11189W        W13389  10.584   1.573  19.021 -0.0834 -0.0245  0.0112
11190W        W13390   6.869   0.770  14.348 -0.0158 -0.4365  0.0278
11191W        W13391   6.764   4.689  18.378 -0.0632  0.4779  0.0436
11192W        W13392   8.666   1.675  31.980 -0.1160  0.1147  0.1200
11193W        W13393   8.089   6.195   0.362 -0.0331 -0.0805  0.0021
11194W        W13394  24.265   3.503   3.691  0.3396 -0.1782 -0.2042
11195W        W13395  11.473   3.918   0.376  0.1150 -0.0651 -0.1137
11196W        W13396  14.452   2.723   5.363  0.1400 -0.2618  0.0646
11197W        W13397   4.670   1.055   1.635 -0.1476 -0.0725 -0.0289
11198W        W13398  20.723   6.922  29.314 -0.0231  0.0013 -0.2627
11199W        W13399  13.418   3.475   9.689 -0.0245  0.3383  0.1235
11200W        W13400  16.080   7.275  31.398 -0.2084 -0.1406 -0.0236
11201W        W13401  12.758   2.695  28.978 -0.0026 -0.1094  0.0275
11202W        W13402   1.567   1.366  24.852 -0.0199 -0.2830  0.1761
11203W        W13403  11.669   1.386  27.996 -0.3486  0.0026 -0.0102
11204W        W13404  12.560   0.960   4.675  0.2109  0.0647  0.1574
11205W        W13405  20.240   1.195  28.592 -0.0178  0.1838  0.2269
11206W        W13406  19.242   0.222   8.358 -0.1097 -0.4388 -0.0307
11207W        W13407  17.248   3.577   1.700  0.1515 -0.3123  0.0428
11208W        W13408   9.053   4.743  29.459  0.0484 -0.2022  0.1127
11209W        W13409  23.391   6.697  26.451 -0.1590 -0.0303  0.0799
11210W        W13410  16.475   1.018  11.312 -0.0039  0.0027  0.2919
11211W        W13411  17.165   4.919  32.213 -0.1027  0.1115 -0.1551
11212W        W13412  23.836   6.157   7.306  0.2028 -0.1399  0.0451
11213W        W13413  11.708   0.725   2.430 -0.1654  0.1221  0.0562
11214W        W13414  19.776   7.481  17.692 -0.1338  0.0031  0.1517
11215W        W13415  12.385   3.555  30.224  0.2442  0.1458 -0.5232
11216W        W13416   8.402   4.752  18.152 -0.3988  0.2136  0.3478
11217W        W13417  18.374   4.963  32.084  0.0723 -0.0886 -0.0120
11218W        W13418  14.809   4.284  28.977 -0.0579 -0.0593 -0.3426
11219W        W13419  19.985   4.497  16.233 -0.1121  0.0789  0.1180
11220W        W13420  19.431   0.998  30.457  0.0062  0.0372  0.0420
11221W        W13421  14.810   6.698  28.741 -0.0457 -0.2163 -0.2151
11222W        W13422  13.399   7.173   9.298  0.1467 -0.4447 -0.0245
11223W        W13423  16.790   3.298  15.933 -0.0355 -0.2043 -0.2753
11224W        W13424   0.973   5.793   5.445  0.1037 -0.0278 -0.0174
11225W        W13425   6.916   5.118  17.061 -0.0371 -0.1423  0.0082
11226W        W13426  13.462   2.606  25.572  0.1076 -0.1019  0.0317
11227W        W13427   6.128   3.922  32.063 -0.3195  0.1468 -0.1047
11228W        W13428   2.483   1.924   4.879 -0.1433  0.1335  0.3187
11229W        W13429  17.986   3.337  15.238 -0.1293 -0.2328  0.0612
11230W        W13430  11.859   2.568   2.135 -0.0538  0.0588 -0.0416
11231W        W13431  11.558   4.413  24.875 -0.1003 -0.0323  0.2235
11232W        W13432  20.544   6.163  32.125 -0.0031  0.0242 -0.0640
11233W        W13433   8.352   7.580  23.690 -0.0164 -0.2461 -0.0774
11234W        W13434  12.840   5.984  25.330 -0.3152  0.1562  0.1006
11235W        W13435   2.847   3.603  32.045 -0.0251 -0.0648  0.4989
11236W        W13436  15.970   0.125  28.321 -0.0066  0.0381  0.1080
11237W        W13437  14.579   2.776   4.120 -0.2402  0.2432  0.0203
11238W        W13438   1.023   2.702  21.034 -0.0325  0.0794 -0.0565
11239W        W13439  17.740   7.243  12.826 -0.1068 -0.2135  0.3031
11240W        W13440  21.192   0.001  31.956 -0.1191 -0.1092 -0.0107
11241W        W13441   0.386   1.273   8.237  0.1763  0.2740 -0.1786
11242W        W13442   0.355   5.446   2.968 -0.0345 -0.3490 -0.0495
11243W        W13443  17.744   2.974  24.578 -0.0864  0.0214 -0.0357
11244W        W13444  21.204   6.003   7.228  0.2970 -0.0328  0.0563
11245W        W13445  17.509   7.733   6.098  0.1158 -0.0492  0.0562
11246W        W13446  21.241   0.569  26.479  0.0537  0.0686  0.2541
11247W        W13447  13.926   7.258  29.537 -0.2277 -0.3213  0.1538
11248W        W13448  22.110   0.284   4.519  0.1180  0.1007  0.0506
11249W        W13449   5.198   3.437  21.386 -0.2171 -0.1474 -0.3123
11250W        W13450   6.039   2.941   6.651 -0.0375  0.1405  0.0512
11251W        W13451   9.738   5.956   0.103 -0.1756  0.4006 -0.2435
11252W        W13452  17.316   5.857   1.729  0.0328 -0.0290 -0.1082
11253W        W13453  20.196   7.216  25.293 -0.1143  0.1393  0.3477
11254W        W13454   6.956   2.776   3.673  0.1123 -0.2101 -0.3437
11255W        W13455  20.718   3.234   5.015  0.3367 -0.0858  0.2207
11256W        W13456  11.561   5.854   4.986 -0.0478 -0.3277  0.0497
11257W        W13457   9.190   2.624   4.167  0.2910 -0.0659  0.1202
11258W        W13458  12.028   7.265   7.524  0.0118 -0.0028 -0.0042
11259W        W13459  23.881   1.630   9.106 -0.1767 -0.1533  0.1214
11260W        W13460   2.281   6.793  20.466  0.2267 -0.1597 -0.0891
11261W        W13461   4.386   7.688  25.291 -0.0420  0.0598 -0.0811
11262W        W13462   6.729   5.678  22.793 -0.3858  0.1126 -0.1311
11263W        W13463   6.614   0.130  26.306 -0.0872  0.1105  0.0371
11264W        W13464  24.673   3.994   8.180 -0.2645 -0.3930  0.2401
11265W        W13465  24.001   6.899  25.426 -0.1198 -0.2124 -0.2733
11266W        W13466   5.805   3.289   7.793  0.0121 -0.1158 -0.0858
11267W        W13467  12.039   2.305  29.706  0.0985  0.2855  0.0872
11268W        W13468  15.796   1.025  24.706 -0.2407  0.2671  0.0946
11269W        W13469   9.876   6.964  16.019  0.0687 -0.0005 -0.0345
11270W        W13470   4.303   0.432   2.611  0.1140  0.0893  0.4469
11271W        W13471  19.606   4.810   1.427  0.1372  0.1513  0.0926
11272W        W13472  23.973   5.225  22.057 -0.0534  0.3771  0.1703
11273W        W13473   8.030   4.577   6.347  0.2924 -0.0647  0.0656
11274W        W13474   6.874   1.326   3.461  0.1898 -0.2781 -0.0047
11275W        W13475  19.311   4.560  14.935  0.0226 -0.1115 -0.1570
11276W        W13476  12.524   2.170  13.872  0.1361  0.0881 -0.0654
11277W        W13477   8.410   6.563   9.439  0.1221 -0.1032 -0.3136
11278W        W13478  19.381   4.960  26.576  0.1291  0.2141  0.2027
11279W        W13479  20.518   7.144  12.459  0.0534  0.0644 -0.0655
11280W        W13480  10.913   5.933  19.978 -0.0238  0.0847 -0.0611
11281W        W13481   5.362   7.669  10.688  0.2229  0.0888 -0.1960
11282W        W13482  22.719   4.465  11.851 -0.0364  0.3024 -0.0400
11283W        W13483  11.471   3.658  21.008 -0.0974  0.0091  0.1271
11284W        W13484  10.550   3.500   2.724  0.4434  0.2141  0.2425
11285W        W13485  15.960   4.611   3.527 -0.1193  0.1297 -0.2250
11286W        W13486  12.553   5.145  29.522 -0.0165  0.3626 -0.1093
11287W        W13487  12.591   7.111  23.987  0.0253 -0.1225 -0.0374
11288W        W13488  17.867   3.717  11.763  0.1039  0.0194  0.1049
11289W        W13489  23.984   5.981  29.378  0.1411  0.1308 -0.0774
11290W        W13490   1.037   2.156  12.645 -0.1899  0.0431 -0.6173
11291W        W13491   4.331   3.939  27.088  0.0308  0.1104 -0.1019
11292W        W13492  19.622   5.791  12.394 -0.1951  0.0190 -0.0309
11293W        W13493   8.716   4.595  22.409  0.4199 -0.1969  0.2793
11294W        W13494   0.614   0.293  28.851  0.1965  0.5427 -0.3137
11295W        W13495  11.852   6.331   4.376 -0.0498  0.3029  0.0082
11296W        W13496  14.142   3.931  26.977 -0.0872 -0.0810  0.1795
11297W        W13497  12.478   2.310   3.591  0.0809 -0.1918  0.1350
11298W        W13498  19.975   4.756   3.910 -0.0501 -0.1776 -0.0470
11299W        W13499  15.933   4.305  26.339  0.2140  0.0054 -0.2353
11300W        W13500   5.203   2.728  15.849 -0.1803 -0.1146 -0.0517
11301W        W13501  12.439   5.107   2.809 -0.0196  0.1450  0.0045
11302W        W13502  19.602   4.180  14.956 -0.1823  0.1372  0.0659
11303W        W13503   5.274   0.257  25.002 -0.0662  0.1487  0.2740
11304W        W13504  25.137   0.177   2.999 -0.0475  0.3860  0.1898
11305W        W13505   6.403   5.851  17.316 -0.4075  0.0861 -0.0156
11306W        W13506   7.988   1.553  25.201  0.2744  0.0992  0.3666
11307W        W13507  13.808   2.352   5.770 -0.3326 -0.0472 -0.0644
11308W        W13508  16.364   4.770  15.617  0.2690  0.0469  0.0881
11309W        W13509  16.161   7.165   8.156  0.4340 -0.1644  0.1126
11310W        W13510  24.170   6.326  28.318 -0.2688  0.0845  0.0274
11311W        W13511  15.696   2.037  24.210  0.1122  0.1818  0.1928
11312W        W13512  23.645   4.547  28.861  0.3138 -0.1333  0.1062
11313W        W13513  19.577   1.282   5.848 -0.0978 -0.0096 -0.1620
11314W        W13514  22.627   0.347   9.947 -0.0582  0.2154 -0.1010
11315W        W13515  23.205   2.983  28.202 -0.2329 -0.0943 -0.0896
11316W        W13516  22.594   2.386   1.331  0.0554 -0.1707  0.0340
11317W        W13517  15.003   2.647   7.763 -0.4332  0.0753  0.1594
11318W        W13518  13.428   6.810  31.025  0.1834  0.1236  0.0706
11319W        W13519  24.828   6.314  13.981  0.2956  0.2347  0.2012
11320W        W13520   7.607   4.274  16.556  0.2582  0.2419  0.1259
11321W        W13521   5.694   6.328  31.373 -0.1889 -0.1766  0.1714
11322W        W13522   2.083   7.604  17.885 -0.0381 -0.1175 -0.0469
11323W        W13523   1.258   3.575  31.462 -0.2387  0.0638 -0.0904
11324W        W13524   4.843   7.364  25.004  0.1406 -0.1503 -0.1882
11325W        W13525  14.735   4.266   6.920  0.1698  0.1892  0.0447
11326W        W13526   1.477   2.476   2.896 -0.0832 -0.2809  0.4490
11327W        W13527  22.247   3.215   4.469  0.1766 -0.0044  0.0259
11328W        W13528  25.027   1.568  19.819 -0.0637 -0.5380 -0.1010
11329W        W13529  19.681   3.077   4.044  0.0290 -0.1207  0.0444
11330W        W13530  20.982   1.628   1.803 -0.0686 -0.0147 -0.4170
11331W        W13531  11.992   6.109   4.902  0.3365 -0.1003  0.2256
11332W        W13532  17.166   7.377  17.529  0.0227 -0.2237 -0.0536
11333W        W13533  14.981   3.913  10.880 -0.0869 -0.0750 -0.4095
11334W        W13534  21.636   1.574  30.455 -0.1838  0.3137  0.0047
11335W        W13535  15.211   5.995  21.941  0.0765 -0.1903  0.0293
11336W        W13536   6.553   4.056  31.892 -0.1083 -0.0825 -0.1032
11337W        W13537  19.150   7.601   3.839  0.1577  0.3598  0.0298
11338W        W13538   9.115   4.587  26.549  0.0472  0.0464  0.3560
11339W        W13539   2.079   1.434   8.865  0.0123  0.1081 -0.1146
11340W        W13540  10.445   5.790   3.092  0.3452  0.3032 -0.0096
11341W        W13541   3.655   3.883  30.787  0.0432  0.0125  0.1772
11342W        W13542   6.875   1.542  17.415 -0.0893 -0.0623 -0.0738
11343W        W13543  17.183   7.418  30.219 -0.2263 -0.1305  0.2163
11344W        W13544   8.396   7.333   0.569  0.0084 -0.1166 -0.0278
11345W        W13545   9.089   3.869  18.348  0.0060  0.1220  0.2002
11346W        W13546   5.278   1.451  31.452  0.1958  0.1124 -0.2626
11347W        W13547   9.624   4.380  28.706  0.1089 -0.1351  0.3063
11348W        W13548  12.694   5.323  28.327  0.0383  0.0855 -0.1635
11349W        W13549   0.786   6.780  10.992  0.0733  0.0022 -0.0803
11350W        W13550  21.159   5.176   7.699  0.2170  0.2043 -0.0990
11351W        W13551  11.491   3.445  30.115 -0.0660 -0.2738  0.1282
11352W        W13552  20.585   4.473  28.476  0.3064  0.0648 -0.0326
11353W        W13553  11.207   1.775  24.236 -0.0382  0.0609  0.1450
11354W        W13554   2.691   4.683  18.792  0.2910 -0.2557 -0.0973
11355W        W13555  17.458   2.145  31.382 -0.2085  0.0420 -0.1646
11356W        W13556  17.028   4.566   2.470  0.0395 -0.0539  0.2273
11357W        W13557  24.831   4.719   2.050  0.0845 -0.4499  0.0665
11358W        W13558  15.763   4.177  26.937 -0.2453  0.1041 -0.1169
11359W        W13559  14.369   4.723   3.468 -0.0607 -0.0615  0.1009
11360W        W13560  18.702   7.245   8.723  0.0404 -0.0101 -0.1492
11361W        W13561   2.072   7.325  22.636 -0.1049  0.0423  0.1144
11362W        W13562  16.486   7.543  14.123  0.0687 -0.0479  0.0376
11363W        W13563  20.125   7.418  22.522 -0.0262 -0.0434 -0.1050
11364W        W13564   2.722   6.186   8.688 -0.0676  0.1970 -0.0140
11365W        W13565  11.690   1.184   9.917 -0.0442 -0.1027  0.2109
11366W        W13566  19.637   1.370  16.062 -0.1295  0.2793 -0.0893
11367W        W13567   2.418   5.222   8.837 -0.0381  0.0943  0.0538
11368W        W13568  23.559   1.129  25.248 -0.4222  0.0086  0.1810
11369W        W13569  17.185   3.225   4.760 -0.0745  0.0174 -0.0241
11370W        W13570  19.719   7.691   3.011 -0.0272  0.0012  0.0348
11371W        W13571   3.354   0.244   0.040  0.3144 -0.2293  0.0169
11372W        W13572  23.610   0.257  23.372 -0.0638 -0.2682 -0.1487
11373W        W13573   3.552   4.184  15.400  0.0718  0.0425  0.1116
11374W        W13574   2.688   4.048   6.982 -0.3088 -0.0755 -0.4374
11375W        W13575  18.426   3.011   4.435 -0.0431  0.2117 -0.0561
11376W        W13576  23.929   6.674   7.454 -0.1041  0.4198 -0.0002
11377W        W13577  12.288   5.367  11.262 -0.3374 -0.0720  0.1166
11378W        W13578  19.115   1.197  18.565  0.0757  0.1419 -0.0540
11379W        W13579   2.149   6.161  24.488  0.2069  0.2109 -0.0851
11380W        W13580  22.740   1.216   8.374 -0.0054 -0.2555 -0.1003
11381W        W13581   1.473   5.898   5.455  0.2976 -0.2901  0.1181
11382W        W13582   4.601   7.455  27.843  0.1064 -0.1007 -0.1264
11383W        W13583  18.081   4.718   4.339  0.0619 -0.2329  0.2795
11384W        W13584   5.452   5.749   4.866  0.0367  0.0344  0.1506
11385W        W13585  16.795   2.761   5.663  0.2288 -0.2052  0.2288
11386W        W13586   7.827   6.261   6.941  0.4323  0.0330  0.0482
11387W        W13587  10.721   6.291  22.479  0.0926  0.0489  0.0562
11388W        W13588  21.534   0.779  22.855 -0.3726  0.1821  0.1096
11389W        W13589  12.274   2.736  19.486 -0.1055 -0.2740 -0.2202
11390W        W13590  22.694   5.010   8.309  0.2447 -0.0066  0.0433
11391W        W13591  17.883   6.260   9.869 -0.0918  0.2341  0.1130
11392W        W13592  16.848   2.239  11.949  0.2696  0.3697  0.0363
11393W        W13593   1.888   2.485  11.395  0.0053 -0.0967  0.1320
11394W        W13594   9.478   5.125  27.909 -0.2261  0.2537  0.0532
11395W        W13595  15.569   1.063   7.558  0.0553  0.0301  0.1607
11396W        W13596  23.931   6.002   8.162 -0.0703 -0.0907  0.0676
11397W        W13597  17.852   1.007  29.280 -0.2987 -0.1293 -0.1137
11398W        W13598   5.565   2.563  30.160  0.0585 -0.1052  0.3289
11399W        W13599  13.374   0.066   1.898 -0.0256 -0.0616 -0.0997
11400W        W13600  22.221   7.066  24.180  0.2120 -0.1079 -0.0175
11401W        W13601  10.855   6.641  10.350 -0.1533  0.0415 -0.1802
11402W        W13602   7.357   1.318  24.022 -0.2013 -0.0666 -0.0902
11403W        W13603  14.305   0.014   9.935  0.3178  0.0086  0.1412
11404W        W13604   3.915   4.226  16.198  0.0455  0.2887 -0.0501
11405W        W13605  24.301   0.268  29.133 -0.1732  0.3616  0.1167
11406W        W13606   4.256   0.752  29.043 -0.3055 -0.0709 -0.0484
11407W        W13607  21.657   0.187   2.252  0.0277  0.1838 -0.0185
11408W        W13608  12.626   1.440  28.181 -0.1841  0.0180  0.1444
11409W        W13609  14.886   7.082   5.233 -0.2442  0.1371  0.2051
11410W        W13610   5.465   7.261  28.959 -0.0964  0.2275 -0.1917
11411W        W13611  17.360   4.844  31.173 -0.1022  0.0493  0.1711
11412W        W13612  24.658   3.847  25.916  0.1004  0.0839  0.1237
11413W        W13613   8.258   3.700   4.589  0.0984  0.0592 -0.0541
11414W        W13614  21.552   6.513  27.665 -0.2096  0.3277  0.0420
11415W        W13615   6.477   4.490  25.331 -0.0156 -0.1094 -0.0440
11416W        W13616   7.099   4.511   3.590 -0.2676  0.2293 -0.0079
11417W        W13617   0.069   5.097  21.305  0.1562  0.0628  0.0533
11418W        W13618  21.063   5.965   2.992  0.1179 -0.1048 -0.1158
11419W        W13619  17.370   3.761  30.274  0.1131 -0.1990 -0.2793
11420W        W13620  15.294   5.674   9.477  0.0742 -0.1867 -0.0480
11421W        W13621   6.623   7.546  28.319  0.2368 -0.1009  0.1169
11422W        W13622   3.349   1.178   9.710  0.1604 -0.1046  0.1361
11423W        W13623   5.598   1.207  22.971 -0.0262 -0.0706  0.1116
11424W        W13624   5.570   1.708  29.741 -0.1187 -0.2279 -0.0234
11425W        W13625  11.748   6.182  21.974 -0.0740  0.3290 -0.1536
11426W        W13626   2.577   4.745   1.736  0.1624  0.2099 -0.2471
11427W        W13627  23.878   2.082  20.958  0.0959 -0.3256  0.0947
11428W        W13628  11.764   5.814   8.150 -0.2005  0.2472 -0.0266
11429W        W13629  15.299   3.438   0.877 -0.0496 -0.1726 -0.0806
11430W        W13630   0.625   7.838   7.904  0.2560  0.0293  0.1633
11431W        W13631   5.442   5.855  30.669 -0.1419  0.0406  0.0303
11432W        W13632   9.860   3.455  16.947 -0.0393 -0.1318  0.0222
11433W        W13633   2.340   5.075  30.842 -0.1944 -0.0025  0.0660
11434W        W13634   7.149   5.388  31.518 -0.3037  0.1130 -0.0221
11435W        W13635  14.449   1.925   0.321 -0.0068 -0.3786 -0.0410
11436W        W13636  15.195   3.850   5.427 -0.3954  0.1197  0.3251
11437W        W13637  15.313   6.635   8.937  0.2641  0.2870  0.1263
11438W        W13638  10.321   7.350  27.231  0.1196  0.0338  0.0200
11439W        W13639  20.284   2.976  23.527 -0.2786 -0.0607  0.0926
11440W        W13640  21.352   0.043   2.672 -0.1817 -0.1885  0.1278
11441W        W13641   0.616   1.452  12.641 -0.0777 -0.1408  0.0735
11442W        W13642  23.444   0.156   8.974  0.1472 -0.0205  0.0792
11443W        W13643  15.230   6.410  13.948 -0.3701 -0.0038 -0.2811
11444W        W13644   0.160   3.341  28.544 -0.1595 -0.2366 -0.0796
11445W        W13645  23.933   5.417   9.425 -0.3345 -0.0304 -0.0189
11446W        W13646  10.255   6.448  30.110  0.1134  0.2330  0.0300
11447W        W13647  24.151   5.861   2.292  0.0271  0.0999  0.0044
11448W        W13648   2.969   3.906  30.270 -0.1069  0.0893 -0.1137
11449W        W13649   3.215   3.160   4.996  0.1792  0.0619 -0.1039
11450W        W13650  10.099   0.502   6.837 -0.1211  0.0712 -0.0475
11451W        W13651  22.699   3.876  29.974  0.0893  0.2502  0.1045
11452W        W13652  17.645   0.009  16.623  0.2182  0.2080 -0.0558
11453W        W13653  18.171   6.385  32.251  0.3037 -0.1091  0.0251
11454W        W13654   8.379   4.224  30.910 -0.1426  0.2532  0.1702
11455W        W13655   4.982   0.668  28.910 -0.0450 -0.2815 -0.4761
11456W        W13656   8.363   1.310  17.724 -0.0565  0.0121 -0.2113
11457W        W13657  13.790   0.016   9.192 -0.1865 -0.0052  0.2548
11458W        W13658   3.343   6.478  24.232 -0.0955  0.4752  0.0057
11459W        W13659   0.506   1.250   6.578 -0.1820  0.1885 -0.0856
11460W        W13660   0.808   0.912  13.159  0.0713 -0.2632 -0.2032
11461W        W13661   8.917   2.987  23.757 -0.0681  0.1409 -0.0463
11462W        W13662  16.989   3.985   1.574 -0.0604 -0.0968  0.1397
11463W        W13663  21.209   1.994   3.845  0.1191 -0.0332 -0.1106
11464W        W13664  16.957   6.639  11.710  0.0694 -0.0602 -0.4867
11465W        W13665   3.587   7.335   4.001 -0.1835 -0.0897  0.1281
11466W        W13666  17.012   3.785   2.062  0.2353  0.1555 -0.0836
11467W        W13667  18.761   3.343   7.285 -0.0077 -0.0264  0.2930
11468W        W13668  22.139   1.812   6.850  0.0535 -0.1124  0.2383
11469W        W13669   8.669   4.789  25.716  0.2159  0.1170  0.2193
11470W        W13670   2.320   5.350   2.123  0.3509  0.0190 -0.1697
11471W        W13671   2.121   4.418  10.797 -0.2214 -0.1362 -0.2926
11472W        W13672  10.744   0.208  17.895 -0.0938 -0.4145 -0.1253
11473W        W13673   2.151   5.578  29.275  0.1672 -0.0582  0.0566
11474W        W13674  20.751   7.692  12.357  0.1472  0.1957 -0.1633
11475W        W13675   7.509   4.861  21.082  0.0295  0.2962 -0.1010
11476W        W13676  24.651   0.382   3.888  0.1627 -0.0599 -0.0689
11477W        W13677  12.974   5.432  32.473 -0.2624 -0.0830  0.2056
11478W        W13678   6.515   6.085  28.658  0.2435 -0.0346 -0.1286
11479W        W13679   7.269   3.266  30.789 -0.0498  0.2419 -0.0677
11480W        W13680  23.333   1.900  14.741 -0.1356 -0.1998 -0.1032
11481W        W13681   4.141   6.031   1.526  0.2393 -0.0609 -0.0300
11482W        W13682   1.003   7.603  17.777  0.3164  0.0285 -0.1332
11483W        W13683   3.892   4.637  23.426 -0.2779 -0.0958 -0.0503
11484W        W13684  13.743   1.159   6.958  0.1419 -0.0550 -0.0994
11485W        W13685  23.737   2.015  32.426  0.2499 -0.0578 -0.0219
11486W        W13686  11.973   3.995  28.849  0.2227  0.0160  0.0944
11487W        W13687   4.469   6.689  26.495  0.1861  0.0266  0.1594
11488W        W13688   0.625   6.061  25.284 -0.0924 -0.0590  0.0519
11489W        W13689   0.841   7.588   7.224  0.0018  0.0986 -0.0094
11490W        W13690  17.688   0.865  27.754  0.0252 -0.3182 -0.0401
11491W        W13691  10.884   3.466  24.982 -0.0348  0.0365  0.1129
11492W        W13692  24.875   0.657  12.824  0.2761  0.0070 -0.0451
11493W        W13693  24.201   4.632  23.905  0.0346 -0.1960 -0.0146
11494W        W13694   8.882   4.749  28.893 -0.0502 -0.0485  0.0124
11495W        W13695   4.328   0.019   0.192  0.0389  0.4032  0.1507
11496W        W13696   7.292   1.916  24.065 -0.2854 -0.1147  0.1018
11497W        W13697  12.986   4.332  30.604  0.0046  0.2308  0.0079
11498W        W13698  22.110   6.646  23.287 -0.1990  0.1698 -0.0869
11499W        W13699  21.029   0.646  23.189 -0.0709  0.0504 -0.2812
11500W        W13700  17.120   6.052   4.289 -0.1171 -0.0326 -0.0783
11501W        W13701  11.413   6.195  20.606  0.0397  0.0923 -0.2874
11502W        W13702  19.076   2.425   7.664  0.2982 -0.1956  0.0794
11503W        W13703   4.858   1.410  27.778  0.0084 -0.3095  0.1012
11504W        W13704  13.789   7.265  10.558  0.2668  0.1769  0.0168
11505W        W13705   0.725   4.787  23.094  0.0920 -0.1850  0.3380
11506W        W13706  11.869   2.145  20.284  0.1942 -0.0183  0.1766
11507W        W13707   1.329   5.427  31.966  0.0181 -0.0278  0.1491
11508W        W13708  24.018   2.836   9.526 -0.2303  0.1302  0.0199
11509W        W13709  21.187   4.546  25.866 -0.0967  0.2604  0.0586
11510W        W13710   9.948   3.747  32.272  0.1606 -0.0438 -0.1715
11511W        W13711   5.846   1.888  17.172 -0.0809 -0.1878  0.0330
11512W        W13712  24.382   0.908  31.840  0.3436 -0.0932 -0.2590
11513W        W13713   0.437   1.446  30.117 -0.0024 -0.1433 -0.2294
11514W        W13714  10.047   2.951  25.169 -0.3067 -0.0012 -0.1166
11515W        W13715   9.037   0.399   2.201 -0.2797 -0.0397  0.1252
11516W        W13716   7.742   2.194  23.495 -0.1067 -0.0700 -0.1295
11517W        W13717  19.210   4.196   4.153 -0.3088 -0.1968  0.0330
11518W        W13718  18.235   2.292  10.031 -0.1402  0.0294  0.0059
11519W        W13719  21.502   5.331  17.042  0.2333  0.0663 -0.0261
11520W        W13720   4.077   2.107  31.346 -0.1381 -0.3120 -0.1267
11521W        W13721  10.283   6.374   7.722  0.0360 -0.2171 -0.4050
11522W        W13722  13.904   6.038   9.324  0.1826  0.0585  0.1866
11523W        W13723  17.201   7.112   8.173  0.0953  0.2375 -0.0148
11524W        W13724  22.076   7.793   5.982 -0.1555 -0.1671  0.0229
11525W        W13725  15.053   2.520  29.953 -0.1850  0.0600  0.0034
11526W        W13726   9.589   7.430  30.474 -0.0107 -0.3345  0.1956
11527W        W13727   8.506   2.171  22.691  0.1806  0.1542  0.0198
11528W        W13728  17.949   4.161  25.547 -0.0454  0.1199 -0.5024
11529W        W13729  24.020   7.050  21.980  0.2766 -0.1406  0.1399
11530W        W13730   6.279   0.736   6.951 -0.2503 -0.0402 -0.0260
11531W        W13731  23.381   2.069  26.015  0.0525 -0.2067 -0.3447
11532W        W13732   3.425   3.740  25.454  0.0474  0.0202  0.2761
11533W        W13733  13.015   6.954  30.715 -0.1909  0.3717  0.2147
11534W        W13734  14.471   6.783   1.095  0.0469  0.0487 -0.0478
11535W        W13735  17.270   5.310  17.318  0.1704  0.0666 -0.1636
11536W        W13736   3.275   1.388  18.104  0.0974 -0.0788 -0.0054
11537W        W13737   7.650   6.293   2.609  0.0187  0.3034 -0.2248
11538W        W13738  15.475   1.224  29.548 -0.1895 -0.2559 -0.1265
11539W        W13739  23.082   7.744  22.474  0.0347  0.1014  0.1076
11540W        W13740  13.827   1.770  27.248  0.0451  0.3193 -0.0246
11541W        W13741   3.516   6.862   1.085  0.0573 -0.1569 -0.0622
11542W        W13742  17.298   0.388  16.762 -0.0310  0.0171  0.1269
11543W        W13743   4.356   6.421  22.935  0.1366 -0.0002  0.2530
11544W        W13744  16.411   6.716   2.790  0.0403 -0.0681  0.0308
11545W        W13745  23.495   5.672   3.764 -0.2266  0.0202 -0.0561
11546W        W13746  21.059   2.807  12.862  0.2742  0.1450  0.0794
11547W        W13747   3.039   1.995   9.447  0.1776  0.1461 -0.1322
11548W        W13748   9.751   3.751   2.800 -0.1529  0.4139  0.1586
11549W        W13749   7.347   7.681   2.596  0.3944 -0.0671  0.2953
11550W        W13750  19.585   1.218  29.919  0.4439 -0.1939 -0.0473
11551W        W13751  17.649   0.627  10.773 -0.1649  0.1609 -0.0731
11552W        W13752  11.623   1.643  19.247 -0.1061 -0.2023  0.0719
11553W        W13753  10.602   5.749  23.895  0.1681 -0.0786  0.1110
11554W        W13754  17.179   3.826   7.765 -0.0932 -0.0653  0.2870
11555W        W13755   6.173   6.940  19.215 -0.0478 -0.2832 -0.0163
11556W        W13756  19.546   4.691  22.697  0.1517 -0.1314  0.1459
11557W        W13757   2.308   0.116   6.355  0.0475 -0.0577 -0.4758
11558W        W13758   7.016   4.781   3.982 -0.0390 -0.0925 -0.0011
11559W        W13759   2.506   3.232   6.197 -0.2099 -0.4562  0.2745
11560W        W13760  12.915   0.651   5.029 -0.0675 -0.2236 -0.2373
11561W        W13761  22.890   7.567   4.427  0.0061 -0.0043 -0.2304
11562W        W13762  16.396   3.047  26.480  0.0643 -0.1144 -0.0463
11563W        W13763  20.663   4.191  30.657 -0.0452 -0.0714 -0.1319
11564W        W13764  21.440   6.593   9.426  0.2504  0.1796  0.0216
11565W        W13765  21.742   0.382  10.879 -0.0635  0.2924 -0.1877
11566W        W13766  19.886   4.470  32.479  0.2751  0.1043 -0.1383
11567W        W13767  21.817   0.328  24.450 -0.0823 -0.1318  0.2848
11568W        W13768   7.377   4.194   6.059  0.3030  0.0185  0.4375
11569W        W13769  15.067   5.227  22.316 -0.2612  0.3240  0.2873
11570W        W13770  12.084   6.520   7.331  0.2282  0.1409 -0.0375
11571W        W13771   1.598   0.113  29.337 -0.0725 -0.1927  0.4627
11572W        W13772  14.381   1.967  11.235  0.1276 -0.2285  0.1672
11573W        W13773   9.895   1.159  16.727  0.3705  0.1443 -0.1611
11574W        W13774   1.341   3.189   3.613  0.2080  0.1190 -0.0289
11575W        W13775   9.408   7.039   4.460  0.3102 -0.2642  0.0762
11576W        W13776   4.006   7.027   0.855  0.0181  0.0048  0.1644
11577W        W13777  24.181   1.469  28.604  0.2860 -0.2286 -0.0923
11578W        W13778  21.370   1.010   7.747 -0.0160  0.1450 -0.0149
11579W        W13779  10.876   3.089   2.911 -0.0590 -0.0759  0.1381
11580W        W13780   7.363   7.144  31.317  0.2190 -0.0190  0.1673
11581W        W13781   6.801   7.509  21.220 -0.0218  0.1257  0.2093
11582W        W13782   8.861   2.976  16.961  0.3850 -0.1218 -0.1580
11583W        W13783  14.823   3.060   6.937 -0.1328  0.3666  0.0893
11584W        W13784  10.387   4.532  29.327 -0.1453  0.0018  0.1048
11585W        W13785  21.614   0.854  29.668 -0.1391  0.4605 -0.0055
11586W        W13786   2.224   5.280  21.236  0.0179 -0.2986 -0.0503
11587W        W13787  23.391   2.577   0.073  0.0189  0.1860  0.0335
11588W        W13788   8.293   0.081  18.000  0.2163  0.1279  0.3067
11589W        W13789   2.165   2.099  27.390 -0.0647  0.1586 -0.2613
11590W        W13790   1.858   2.473   7.158 -0.0863 -0.2598  0.0168
11591W        W13791  24.818   6.383  25.310 -0.0006 -0.0474 -0.1490
11592W        W13792   9.139   7.197  25.299 -0.0768  0.1892 -0.1597
11593W        W13793  15.684   0.776   0.747  0.1364 -0.0963 -0.0047
11594W        W13794   1.221   0.486  22.108  0.1136  0.0724 -0.0412
11595W        W13795  13.411   3.236  26.333 -0.2125  0.0451  0.1834
11596W        W13796  10.548   7.097   7.285  0.0517  0.1578 -0.1120
11597W        W13797   8.906   3.109  21.962 -0.1010  0.0891 -0.0629
11598W        W13798   2.540   1.140   5.835  0.1831  0.0616  0.0810
11599W        W13799   1.358   1.999   2.525 -0.1909  0.0154  0.1348
11600W        W13800  20.286   1.034   5.594 -0.2497  0.0049 -0.2057
11601W        W13801   7.871   2.855   6.712  0.3429 -0.2062 -0.2088
11602W        W13802   8.578   0.020  29.426 -0.0797  0.0127 -0.1036
11603W        W13803   2.838   3.507  16.466  0.0913 -0.0495 -0.0355
11604W        W13804   4.124   3.840   5.860 -0.1201 -0.0238 -0.1016
11605W        W13805   6.433   4.779  20.683 -0.0904  0.2769 -0.0701
11606W        W13806  18.466   0.941   0.229  0.0007 -0.1454  0.1153
11607W        W13807  17.214   4.400  13.592 -0.0804 -0.1097 -0.0970
11608W        W13808   2.617   0.969  32.361  0.2200 -0.0843 -0.0858
11609W        W13809   8.697   3.802  29.487  0.2415  0.0294  0.0472
11610W        W13810  11.897   2.006  18.707  0.0903 -0.1542 -0.0662
11611W        W13811  24.198   7.074  26.492 -0.2087  0.1446 -0.1115
11612W        W13812   0.786   6.304  20.672  0.1505  0.0220  0.1335
11613W        W13813   1.656   3.404  28.540 -0.2831  0.0944  0.3226
11614W        W13814  23.624   4.445  14.698  0.0166 -0.1168  0.1536
11615W        W13815  14.684   1.233   5.000 -0.1045  0.4064  0.0457
11616W        W13816   4.617   3.213  15.657 -0.2138 -0.3068  0.1658
11617W        W13817  15.302   2.765  21.416  0.0838  0.0873  0.1828
11618W        W13818   1.487   0.336  31.475  0.2749 -0.0356 -0.3308
11619W        W13819  17.960   6.834  23.133  0.2320 -0.1215 -0.1212
11620W        W13820  10.957   5.654  30.676 -0.0035 -0.3652 -0.0362
11621W        W13821   9.266   1.679  24.918  0.5641  0.1385  0.2462
11622W        W13822   8.704   4.085  15.949 -0.0338  0.3701 -0.1311
11623W        W13823   3.022   6.101   9.097 -0.1170  0.2950 -0.0948
11624W        W13824   9.508   7.837  25.827 -0.0138  0.0259 -0.1442
11625W        W13825  12.671   4.150   3.399 -0.2361  0.1611 -0.1549
11626W        W13826  21.250   3.854  31.338  0.3261  0.2278  0.2876
11627W        W13827   8.252   0.609  30.604  0.0336 -0.0960  0.2228
11628W        W13828  20.382   3.026  25.680  0.0031  0.0805 -0.1693
11629W        W13829   0.117   6.380   7.144 -0.1179 -0.2411 -0.1901
11630W        W13830  15.595   2.884   5.504  0.0565 -0.1276 -0.2150
11631W        W13831  19.566   0.214  12.669  0.0657 -0.0703  0.1439
11632W        W13832  23.032   2.332  23.815  0.2102  0.1895 -0.0007
11633W        W13833  20.754   1.316  25.937 -0.1879 -0.1525 -0.1348
11634W        W13834  19.496   5.087  30.659 -0.2127  0.0835  0.0815
11635W        W13835  16.310   4.827  32.562 -0.0537 -0.0551  0.0536
11636W        W13836  22.710   1.270  13.307  0.3293 -0.2219  0.1255
11637W        W13837   3.588   7.060  21.049 -0.1453  0.0526  0.1371
11638W        W13838  12.388   5.839   9.035  0.2180  0.0925  0.2229
11639W        W13839   7.207   0.432   7.293  0.4484 -0.0468 -0.0104
11640W        W13840  15.733   2.204   4.421 -0.0786 -0.3369  0.1081
11641W        W13841  12.211   6.057   8.246 -0.5004 -0.0325  0.0024
11642W        W13842  19.187   7.257  11.023 -0.0515  0.0920  0.3133
11643W        W13843   5.863   3.036  22.895  0.0173  0.0381 -0.1923
11644W        W13844   5.792   7.129  29.984  0.2952  0.2650 -0.0925
11645W        W13845  14.936   7.833  31.963  0.1325  0.0781 -0.0099
11646W        W13846  17.822   7.593  24.653  0.2202 -0.1519  0.0007
11647W        W13847  20.393   0.675  15.843 -0.2636  0.2326  0.1839
11648W        W13848  17.736   6.958   0.808 -0.0404  0.1149 -0.2645
11649W        W13849  16.643   1.819  31.202  0.0612  0.2090  0.0081
11650W        W13850   3.638   1.905   8.467 -0.1723  0.1685 -0.2567
11651W        W13851  17.221   7.579  28.051  0.0673 -0.0230 -0.2196
11652W        W13852   2.272   1.566   1.202 -0.1120  0.2774 -0.3112
11653W        W13853  22.450   0.252  31.434  0.2004  0.4113  0.0794
11654W        W13854  16.568   4.077  24.965 -0.0272  0.3078  0.1760
11655W        W13855   5.021   6.241  21.391 -0.1091  0.3732 -0.0289
11656W        W13856  17.927   7.129   9.201 -0.1236 -0.0226 -0.0038
11657W        W13857   2.376   6.204  18.088  0.0226  0.2628 -0.0362
11658W        W13858  17.821   0.947   6.887 -0.0469  0.3341 -0.2389
11659W        W13859   7.112   7.379  13.599  0.0292 -0.2531 -0.2116
11660W        W13860   4.166   0.274   3.552 -0.0171 -0.2276  0.0106
11661W        W13861  20.081   2.976  24.472  0.0072  0.2146  0.0318
11662W        W13862  11.992   1.235   4.566  0.1391 -0.1083  0.2884
11663W        W13863  11.420   2.408   9.286 -0.1703 -0.0194  0.1872
11664W        W13864  15.354   4.055  11.850  0.1643 -0.2294 -0.3426
11665W        W13865  15.895   3.011  10.760 -0.0421  0.0495  0.2142
11666W        W13866   0.665   3.148   5.936  0.0898  0.1517  0.0884
11667W        W13867   8.440   7.431  20.907  0.0237  0.0206  0.2729
11668W        W13868  24.433   3.630  26.395 -0.1411 -0.1491  0.0060
11669W        W13869  15.288   4.005  22.876 -0.0519  0.0408 -0.1770
11670W        W13870   8.275   2.553   6.867  0.0287 -0.2283 -0.2754
11671W        W13871   7.620   3.271  20.982  0.2761 -0.1287  0.1379
11672W        W13872  10.291   0.787  18.477  0.0956  0.0564 -0.0340
11673W        W13873  14.443   0.302  28.911 -0.1086 -0.1670  0.1097
11674W        W13874   5.465   0.408  19.933  0.1935 -0.0630 -0.0970
11675W        W13875   5.965   4.542  10.056  0.0944  0.1082 -0.2731
11676W        W13876   2.855   6.181  31.254 -0.2826  0.3816 -0.0642
11677W        W13877  24.282   3.318   7.106 -0.1906 -0.1685 -0.1736
11678W        W13878   6.960   3.531  20.481  0.1106 -0.2452 -0.2830
11679W        W13879   3.275   5.739   7.060 -0.1366  0.0809 -0.1364
11680W        W13880   4.756   4.618   7.743 -0.0425  0.0570 -0.0952
11681W        W13881  11.198   5.081   3.148 -0.2035 -0.2438 -0.0248
11682W        W13882  16.264   4.257   7.949 -0.0928  0.4140  0.2005
11683W        W13883   9.788   5.655   2.588  0.1077 -0.1120 -0.2003
11684W        W13884  22.683   0.597   3.401 -0.0892  0.0066  0.0316
11685W        W13885  21.027   7.564  30.248 -0.0270 -0.0891 -0.2191
11686W        W13886   3.729   5.500  30.393 -0.6189  0.3395  0.0647
11687W        W13887   5.390   3.714   2.542  0.1749  0.2917  0.1679
11688W        W13888  23.234   0.774   0.606  0.1971  0.0580 -0.2137
11689W        W13889   5.738   6.872   5.178 -0.1764  0.0404  0.0264
11690W        W13890  18.552   2.268  25.990  0.1492  0.0517  0.0959
11691W        W13891   2.110   1.989  20.968  0.4666 -0.1601 -0.0105
11692W        W13892   5.608   7.835  18.467  0.0683  0.0866 -0.0887
11693W        W13893  10.752   1.212  26.859  0.2804 -0.1837 -0.1175
11694W        W13894  18.898   7.304  12.391 -0.1191 -0.1492 -0.4409
11695W        W13895  14.234   7.322  28.639  0.1291  0.0216  0.0364
11696W        W13896   2.035   1.020   3.890 -0.0365  0.2693  0.0174
11697W        W13897   9.123   6.336   7.296 -0.0477  0.0216  0.0770
11698ION     NA13898   9.223   5.185  25.771  0.4803  0.1820 -0.2198
11699ION     NA13899  20.570   7.366  22.576 -0.0050  0.5869  0.3506
11700ION     NA13900   2.998   3.541  31.614 -0.0564  0.0472 -0.1997
11701ION     NA13901   8.740   7.130   2.974  0.3856  0.6043 -0.1409
11702ION     NA13902  23.004   6.525   7.836  0.1668  0.1034 -0.0386
11703ION     NA13903   9.988   5.791   2.954 -0.1084  0.6388  0.0853
11704ION     NA13904   4.294   7.712  18.626 -0.0235  0.0573 -0.0861
11705ION     NA13905   9.462   1.245   3.412 -0.4681 -0.0930  0.0665
11706ION     NA13906   9.727   5.489  28.622 -0.3002  0.2790  0.2693
11707ION     NA13907   8.301   5.797  22.138  0.7585 -0.1055 -0.5884
11708ION     NA13908  14.633   1.467  26.861  0.6910  0.4260 -0.2763
11709ION     NA13909   0.396   5.186   4.984  0.0250 -0.1476  0.2220
11710ION     NA13910  19.207   4.089   0.284 -0.2813 -0.2722  0.3836
11711ION     NA13911   3.697   1.312   0.873 -0.1931  0.1774  0.0675
11712ION     NA13912  19.232   3.649  24.668  0.2599  0.3951 -0.0770
11713ION     NA13913  16.307   0.975   1.181 -0.4944  0.1028 -0.0117
11714ION     NA13914   1.138   5.542  29.580 -0.0268 -0.1737 -0.5664
11715ION     NA13915  12.928   3.386   6.779 -0.4237  0.1181  0.3385
11716ION     NA13916  15.583   6.721  10.314 -0.0777  0.2938  0.2365
11717ION     NA13917   0.208   0.063  10.823  0.1834 -0.2298 -0.1599
11718ION     NA13918  17.087   2.840   2.155 -0.3244 -0.2882 -0.3548
11719ION     NA13919   2.585   7.725  32.524 -0.0463  0.3023 -0.0128
11720ION     NA13920   6.603   7.375   2.283 -0.5132 -0.0496  0.2646
11721ION     NA13921   1.478   1.145  32.028 -0.5500  0.1508 -0.4643
11722ION     NA13922  13.211   5.216  31.189  0.2712  0.1012  0.0772
11723ION     NA13923  10.447   5.213  25.834 -0.1363  0.0999  0.0287
11724ION     NA13924  16.439   7.662  10.363 -0.1720 -0.0236 -0.0490
11725ION     NA13925   7.735   0.852   1.217  0.1179 -0.0400  0.1130
11726ION     NA13926   2.130   3.677  21.585  0.0180  0.1834 -0.4302
11727ION     NA13927  16.609   2.272  13.737 -0.3270 -0.4217  0.1498
11728ION     NA13928  12.534   3.542  28.539  0.6349 -0.3067 -0.0410
11729ION     NA13929  21.730   0.375  30.426 -0.0142 -0.0311  0.1335
11730ION     NA13930  18.877   6.618  13.530 -0.0083  0.2497 -0.2312
11731ION     NA13931   2.485   4.326   1.655  0.2731 -0.2506  0.3146
11732ION     NA13932  14.576   4.136   4.715  0.1033  0.0444 -0.0262
11733ION     NA13933  23.729   4.613  10.984 -0.2688  0.1904 -0.3417
11734ION     NA13934  10.323   6.052  10.846  0.1633  0.2869 -0.1040
11735ION     NA13935  12.021   4.324  23.026  0.2127 -0.2340  0.0735
11736ION     NA13936  18.351   4.668   5.577 -0.0375  0.2736  0.2117
11737ION     NA13937  21.721   4.984  27.493 -0.2276  0.0075 -0.0129
11738ION     NA13938  23.968   1.406   5.042 -0.2354  0.0298  0.1237
11739ION     NA13939  21.468   1.544  13.429  0.2399 -0.2811 -0.1189
11740ION     NA13940   8.845   3.222   4.022  0.3176  0.0896  0.5676
11741ION     NA13941  22.082   2.181   7.060 -0.1279 -0.7679  0.1014
11742ION     NA13942   9.180   3.113  22.348 -0.1080  0.1558 -0.4101
11743ION     NA13943   2.079   4.803   9.931 -0.1076  0.2904 -0.2621
11744ION     NA13944   9.686   0.983  24.783  0.0027  0.1368  0.1083
11745ION     NA13945  24.840   0.218  10.256  0.0869 -0.2213  0.1537
11746ION     NA13946  17.700   3.790  23.297 -0.1860 -0.6587 -0.2298
11747ION     NA13947  20.086   1.631   5.979 -0.0846  0.0582 -0.0927
11748ION     NA13948  12.645   0.815  28.565 -0.0308 -0.1952  0.2402
11749ION     NA13949  22.867   5.404   9.918  0.0133 -0.1497 -0.1501
11750ION     NA13950   4.429   5.625   7.009 -0.1071  0.1737 -0.1009
11751ION     NA13951  19.579   6.441  31.475  0.1732  0.2101  0.4378
11752ION     NA13952  21.440   5.866   5.353  0.2114 -0.1229  0.2878
11753ION     NA13953  17.769   5.441   9.096 -0.2260 -0.3717 -0.3978
11754ION     NA13954   3.523   5.892  25.547 -0.2424 -0.2659 -0.0199
11755ION     NA13955   6.226   4.306   0.772 -0.1496  0.4233  0.1894
11756ION     NA13956  21.667   2.097  23.292 -0.0649  0.1153 -0.0907
11757ION     NA13957  22.166   6.266  12.833 -0.2185 -0.4386 -0.3143
11758ION     NA13958   1.473   3.689  11.291 -0.1753  0.2203 -0.1937
11759ION     NA13959   2.839   1.867   5.592 -0.0792 -0.5026  0.0764
11760ION     NA13960   8.335   1.095   7.244 -0.2194  0.6732  0.3849
11761ION     NA13961  22.358   2.490  29.276  0.3459  0.0672 -0.0541
11762ION     NA13962  22.474   2.222  10.663  0.5027  0.0402  0.3738
11763ION     NA13963   1.701   0.116   0.655  0.2280 -0.0811  0.1041
11764ION     NA13964  20.993   2.239  24.136 -0.0337 -0.1275 -0.3526
11765ION     NA13965  18.390   2.251  29.470 -0.1650  0.0575 -0.2169
11766ION     NA13966   0.361   0.967  20.326 -0.0061  0.0485  0.0434
11767ION     NA13967   6.639   6.158  22.199 -0.2032  0.2241  0.0674
11768ION     NA13968  19.626   3.806  14.380 -0.5740 -0.3170  0.2108
11769ION     NA13969  14.186   1.404  27.618 -0.1739  0.0011 -0.1575
11770ION     NA13970  10.718   2.350   9.147 -0.0132 -0.4297 -0.0635
11771ION     NA13971   7.457   7.119  29.437  0.3050 -0.0054  0.0385
11772ION     NA13972   2.613   0.687   0.121  0.0715  0.0276  0.1601
11773ION     NA13973  13.282   1.283   0.926  0.1930  0.1070  0.2685
11774ION     NA13974  21.578   2.169  10.593  0.0798 -0.2843  0.1003
11775ION     NA13975   5.191   5.482  29.434 -0.3219  0.3432  0.3265
11776ION     NA13976   6.112   1.123  16.982 -0.2883 -0.0120  0.0840
11777ION     NA13977  19.844   7.066   7.471 -0.4699 -0.0020 -0.3966
11778ION     NA13978  19.292   3.888  30.444 -0.1047 -0.0078 -0.0583
11779ION     NA13979  21.709   4.125  30.706  0.1602 -0.1319  0.0603
11780ION     NA13980  23.236   5.284  27.070  0.5587 -0.0364  0.1577
11781ION     NA13981  12.883   4.080   6.261  0.0128  0.2374 -0.0268
11782ION     NA13982  21.334   3.927   4.334 -0.0026 -0.0153  0.4647
11783ION     NA13983  19.513   4.658  25.733  0.1523 -0.0844 -0.2422
11784ION     NA13984  15.858   4.104  11.255 -0.1928  0.1104  0.0334
11785ION     NA13985   2.954   6.469  31.541 -0.1101 -0.0178 -0.1943
11786ION     NA13986  10.009   7.466   7.684  0.0292  0.3010 -0.3778
11787ION     NA13987  22.200   0.175   8.583  0.3778  0.3172  0.0262
11788ION     NA13988  10.328   7.586  28.581  0.6046  0.2834 -0.1090
11789ION     NA13989   7.604   5.239  25.499 -0.1943  0.2274  0.1890
11790ION     NA13990  19.252   5.860  32.248 -0.1394  0.7335 -0.3113
11791ION     NA13991  18.337   1.863  12.691  0.4677  0.1482 -0.1420
11792ION     NA13992   7.257   7.105  26.894  0.2465  0.2760 -0.3892
11793ION     NA13993  16.411   2.948   0.258 -0.1186  0.4780 -0.0989
11794ION     NA13994   3.485   6.896  32.308 -0.2311  0.1369 -0.6157
11795ION     NA13995   7.928   7.270   9.865  0.2136 -0.2653  0.3053
11796ION     NA13996   1.746   5.575   6.204  0.1573 -0.0023 -0.1905
11797ION     NA13997   4.067   6.568  19.353  0.4433  0.3709 -0.2615
11798ION     NA13998   5.355   7.632  18.777  0.2144 -0.0244 -0.1401
11799ION     NA13999  19.928   3.792   7.019 -0.0970 -0.1147 -0.3150
11800ION     NA14000  13.904   1.278   4.488  0.0028  0.0044  0.0792
11801ION     NA14001  11.408   5.579   8.389 -0.0489  0.0630  0.1098
11802ION     NA14002   4.730   5.488   3.538  0.2429 -0.0838 -0.1969
11803ION     NA14003  21.007   7.120   7.736  0.1511 -0.0302  0.4425
11804ION     NA14004  16.011   3.553  26.124 -0.2452  0.1615 -0.1050
11805ION     NA14005  23.683   4.058  13.206  0.2767 -0.0622 -0.0413
11806ION     NA14006   0.187   7.060   9.847 -0.3119 -0.1355 -0.2681
11807ION     NA14007  20.130   5.063  29.551  0.1501  0.1612 -0.2781
11808ION     NA14008   3.772   0.199  19.189  0.0026 -0.0689 -0.0521
11809ION     NA14009  15.727   0.690  22.571  0.0566  0.1052  0.0271
11810ION     NA14010  22.996   6.089  26.990 -0.1761  0.3245 -0.0199
11811ION     NA14011  23.722   3.392  24.117 -0.6531  0.0568 -0.2541
11812ION     NA14012  21.773   0.242   3.383 -0.2229 -0.2193  0.2816
11813ION     NA14013   6.511   6.772  27.945  0.3729 -0.1628  0.0385
11814ION     NA14014  15.543   5.097   5.047 -0.5842  0.1363  0.2129
11815ION     NA14015  15.741   1.660  25.048 -0.0046 -0.4737 -0.3922
11816ION     NA14016  14.934   4.452  27.343 -0.2287 -0.1662  0.2133
11817ION     NA14017   4.650   2.400   8.051  0.0962  0.0101 -0.3098
11818ION     NA14018  10.926   1.799  18.759  0.0411  0.2104  0.1439
11819ION     NA14019   8.193   1.263   5.275 -0.3273  0.0176 -0.1314
11820ION     NA14020   6.759   1.310   1.577 -0.2579  0.2511 -0.1028
11821ION     NA14021  18.935   1.522   8.365  0.0901  0.3491 -0.3707
11822ION     NA14022  20.732   7.808  31.897  0.2682  0.2574 -0.0028
11823ION     NA14023   8.522   1.766   0.133 -0.1331  0.0643 -0.0399
11824ION     NA14024   7.313   1.252  27.300 -0.2718 -0.1935  0.0414
11825ION     NA14025  21.593   2.883  15.002 -0.2179 -0.3965 -0.3906
11826ION     NA14026  14.132   7.009  28.383 -0.2539 -0.0009 -0.2459
11827ION     NA14027  15.182   6.813   0.083 -0.1780  0.0273 -0.0833
11828ION     NA14028  19.734   0.303   6.623 -0.1437  0.0101 -0.1673
11829ION     NA14029   5.804   1.532  16.261 -0.0999 -0.2660  0.2669
11830ION     NA14030   2.721   0.710   3.996 -0.3466  0.0570  0.3126
11831ION     NA14031  15.564   1.071  29.964  0.1290 -0.2503 -0.0515
11832ION     NA14032   6.248   4.435  31.280 -0.0279 -0.3158 -0.0209
11833ION     NA14033  19.834   4.367  16.618  0.2228 -0.8494  0.1462
11834ION     NA14034   4.296   3.084   2.344  0.1846 -0.2663 -0.2423
11835ION     NA14035  22.464   7.502  26.970  0.1954 -0.3724  0.1935
11836ION     NA14036  16.534   0.743  23.995  0.0524  0.1881 -0.0295
11837ION     NA14037   3.803   5.525  23.500 -0.0184 -0.2640 -0.2387
11838ION     NA14038   7.853   1.344  21.950  0.1942  0.4158  0.0877
11839ION     NA14039  10.729   2.456  30.805 -0.0370 -0.0099 -0.0805
11840ION     NA14040  14.159   1.115  29.768 -0.1658  0.1034 -0.2478
11841ION     NA14041  17.582   1.207  26.870  0.1123  0.0605  0.1215
11842ION     NA14042   2.966   2.315  17.837  0.0197  0.1045  0.1251
11843ION     CL14043  23.979   1.664   7.554  0.0051  0.4212  0.6227
11844ION     CL14044   9.557   4.872  22.783 -0.1305 -0.3399  0.4380
11845ION     CL14045  20.561   4.290  24.538  0.5290  0.2151 -0.1430
11846ION     CL14046  12.632   0.168   0.112  0.0878 -0.4486  0.0308
11847ION     CL14047  24.343   0.492   7.371  0.1500  0.1133  0.3206
11848ION     CL14048   4.918   3.673   2.611 -0.0052 -0.3007  0.3305
11849ION     CL14049   3.803   3.197  28.683  0.1262  0.1896  0.0881
11850ION     CL14050   4.585   6.591  28.678  0.4602  0.1307 -0.2112
11851ION     CL14051  19.209   0.799  16.356  0.0819 -0.2520 -0.1596
11852ION     CL14052  15.215   5.902  22.360 -0.1469  0.0808  0.0490
11853ION     CL14053   4.585   5.903  20.180 -0.0810 -0.1972 -0.0736
11854ION     CL14054   5.467   3.461  30.226 -0.2151 -0.1736  0.0728
11855ION     CL14055  15.585   5.376   5.335 -0.1744  0.1421 -0.0671
11856ION     CL14056  21.513   0.233  30.209 -0.0852 -0.4019 -0.1801
11857ION     CL14057  23.530   0.424  22.918  0.3559 -0.5074 -0.0504
11858ION     CL14058  24.988   2.162  23.022  0.2450  0.5679  0.3732
11859ION     CL14059   1.184   5.124  23.548  0.1849  0.1802  0.1269
11860ION     CL14060  14.192   3.130  30.785 -0.1923 -0.1594  0.0116
11861ION     CL14061   4.832   5.377   4.329 -0.3878  0.0315 -0.0877
11862ION     CL14062  21.975   0.116   3.620 -0.0341  0.1325  0.3939
11863ION     CL14063  12.806   5.832  31.084 -0.3662  0.4207 -0.1921
11864ION     CL14064   9.163   0.841   0.329 -0.2350 -0.3027  0.3769
11865ION     CL14065  13.338   5.050   1.893 -0.2573 -0.1778 -0.0568
11866ION     CL14066   5.448   0.937  21.483 -0.0779  0.4177  0.2606
11867ION     CL14067   1.472   1.556  22.952 -0.2764  0.4249 -0.0962
11868ION     CL14068   2.949   4.646   8.389 -0.1215  0.1683  0.0217
11869ION     CL14069  21.040   0.786   5.547  0.0746  0.2121 -0.4627
11870ION     CL14070   1.800   3.607  29.986  0.4404  0.1075 -0.3510
11871ION     CL14071  14.505   3.301  13.842  0.6629  0.0727 -0.4229
11872ION     CL14072  18.215   6.416  16.294  0.1495  0.1248  0.0365
11873ION     CL14073  24.456   1.170   0.401 -0.2248  0.1660  0.0848
11874ION     CL14074  14.798   0.773   1.752  0.1075 -0.0451 -0.5360
11875ION     CL14075  10.255   7.778  28.868  0.1928  0.3311 -0.4277
11876ION     CL14076  15.958   0.035   0.384  0.2496 -0.1642  0.2769
11877ION     CL14077  20.776   6.972   8.019  0.0546 -0.4910  0.2492
11878ION     CL14078   2.569   3.306  31.932 -0.0129  0.2704  0.2919
11879ION     CL14079   6.868   4.527   0.673  0.0592  0.3364  0.1187
11880ION     CL14080   3.259   0.775   0.820  0.2733 -0.0436  0.1206
11881ION     CL14081   7.561   2.427  21.470 -0.1325  0.1272 -0.1157
11882ION     CL14082   2.559   1.185  31.187  0.0869 -0.0846 -0.3763
11883ION     CL14083   3.154   4.216   9.369  0.3152 -0.1412  0.4059
11884ION     CL14084  16.711   1.538  31.597 -0.1726  0.1794  0.0206
11885ION     CL14085  18.768   7.124   1.245 -0.2214 -0.0537  0.1391
11886ION     CL14086   8.809   1.616  21.903 -0.2299 -0.2384  0.1415
11887ION     CL14087  23.579   4.188  14.350 -0.2830 -0.2947  0.3440
11888ION     CL14088  14.031   1.791  29.711  0.2502  0.0202  0.3811
11889ION     CL14089   6.713   0.464  24.871  0.0738  0.5613  0.3648
11890ION     CL14090  18.070   5.460   3.805  0.1536  0.2456 -0.3263
11891ION     CL14091   6.706   7.670   0.484 -0.4827  0.0240 -0.1480
11892ION     CL14092  16.245   4.497   1.244  0.0956 -0.0617 -0.0387
11893ION     CL14093   3.298   6.810  32.044  0.2604  0.2905 -0.0358
11894ION     CL14094   6.756   0.581   5.757 -0.1813 -0.2515  0.0793
11895ION     CL14095  15.386   0.210  29.669 -0.2546  0.1428  0.1272
11896ION     CL14096  18.212   1.973  29.771 -0.0986 -0.4792 -0.3080
11897ION     CL14097  19.665   3.142   7.253  0.0499  0.0593 -0.5305
11898ION     CL14098   5.651   0.022  19.295  0.4888 -0.0486 -0.3853
11899ION     CL14099  19.549   0.970  32.159  0.0789  0.1448  0.2701
11900ION     CL14100   3.069   4.925   6.741 -0.0155 -0.0938  0.1833
11901ION     CL14101  17.583   4.192  13.730  0.3399  0.3635  0.1367
11902ION     CL14102  11.832   0.246  10.940 -0.0368  0.1503  0.2248
11903ION     CL14103  15.909   2.395   8.563 -0.1803  0.5210  0.1616
11904ION     CL14104  20.082   6.901   3.206  0.2388 -0.0547 -0.5447
11905ION     CL14105  17.693   1.531   4.247  0.1095  0.1637  0.4750
11906ION     CL14106   9.578   0.361  10.046  0.0896  0.1149 -0.2759
11907ION     CL14107  24.554   7.816  22.008  0.1770 -0.3994  0.4054
11908ION     CL14108  17.765   3.667  10.705  0.5588  0.1255  0.2431
11909ION     CL14109  15.247   1.327  25.372  0.0586 -0.2821 -0.6293
11910ION     CL14110   2.162   2.927  28.114  0.2699 -0.2757 -0.2255
11911ION     CL14111   8.027   3.652  25.202 -0.1814  0.0119 -0.3556
11912ION     CL14112  12.202   0.720  11.270  0.4478 -0.0517  0.0530
11913ION     CL14113  12.566   5.123   4.385 -0.1464 -0.0056  0.1880
11914ION     CL14114   0.166   4.797  32.219  0.1211  0.3554 -0.0070
11915ION     CL14115  18.582   7.679  30.152  0.0411  0.1782  0.0781
11916ION     CL14116  13.665   6.579  12.248 -0.2163  0.3396  0.0007
11917ION     CL14117  11.522   0.509  23.570  0.1277 -0.0652 -0.0479
11918ION     CL14118  18.544   5.187   4.466 -0.3696 -0.1749 -0.0658
11919ION     CL14119  11.519   2.777  25.505  0.3385  0.1813 -0.2541
11920ION     CL14120   6.206   3.009   1.489  0.2142  0.1495  0.0302
11921ION     CL14121  19.075   7.466   6.612 -0.0203 -0.3360  0.1944
11922ION     CL14122  17.139   5.954  26.830  0.2751 -0.1665 -0.1108
11923ION     CL14123   0.382   7.402  20.144 -0.2329 -0.1807 -0.0647
11924ION     CL14124  19.385   1.992  30.390  0.2757  0.2087 -0.2379
11925ION     CL14125  22.038   6.378   1.517  0.3240 -0.2244 -0.0711
11926ION     CL14126  17.268   7.720   0.740  0.1071  0.0173 -0.1401
11927ION     CL14127  22.444   1.524  23.708 -0.3381 -0.0340  0.1253
11928ION     CL14128   1.516   3.422  10.026 -0.1036 -0.1177  0.1470
11929ION     CL14129  24.353   6.460  11.983 -0.1207  0.4328 -0.3479
11930ION     CL14130  17.534   2.277  27.553 -0.1418  0.1427  0.2298
11931ION     CL14131   3.399   4.661   4.328  0.0118  0.2624  0.1005
11932ION     CL14132   3.227   0.952  17.350 -0.0600  0.1104 -0.3891
11933ION     CL14133   5.276   2.919   8.372 -0.2041 -0.1264 -0.5776
11934ION     CL14134   7.973   0.942   2.652  0.3317 -0.0271 -0.0125
11935ION     CL14135  10.528   6.764  30.123  0.2195  0.0413  0.3469
11936ION     CL14136  14.234   7.331  24.720  0.0129 -0.1076 -0.1177
11937ION     CL14137   7.307   1.701  21.478 -0.3576  0.3314  0.2992
11938ION     CL14138   7.413   5.076  22.877  0.2096  0.0289  0.0828
11939ION     CL14139  20.155   6.338  14.174  0.0378 -0.3444  0.4872
11940ION     CL14140  19.108   5.128  29.612 -0.0443 -0.2519 -0.1914
11941ION     CL14141   1.888   0.272  22.513  0.0450 -0.4289  0.2578
11942ION     CL14142  21.149   5.987   5.499 -0.2220  0.2351 -0.1075
11943ION     CL14143   1.459   5.357   8.527 -0.2414 -0.2217 -0.3066
11944ION     CL14144   7.639   4.365  26.106 -0.3860  0.2225  0.2811
11945ION     CL14145  10.538   0.770   5.609 -0.0366  0.3968  0.2601
11946ION     CL14146  21.887   4.604  27.085  0.3835  0.0882 -0.0333
11947ION     CL14147  18.853   3.969  24.025 -0.1199  0.2158 -0.4911
11948ION     CL14148  15.651   6.530  28.043  0.3295  0.2390  0.2604
11949ION     CL14149  11.478   5.294  25.869  0.1351 -0.2931  0.1582
11950ION     CL14150  19.601   4.440  23.739  0.1467  0.0179  0.1203
11951ION     CL14151  13.459   0.936   5.575 -0.1404 -0.3420  0.3267
11952ION     CL14152  12.457   2.176  28.541 -0.3134 -0.1253  0.1943
11953ION     CL14153  22.494   1.686   9.688 -0.1310  0.2597  0.1263
11954ION     CL14154  12.490   2.736   6.988  0.2028 -0.0544  0.1761
11955ION     CL14155  21.277   3.796   3.647  0.0286  0.3617 -0.2921
11956ION     CL14156  22.313   7.625  31.402  0.0068 -0.2995  0.3825
11957ION     CL14157   8.234   6.350  16.372  0.0837  0.1815  0.0408
11958ION     CL14158   6.004   3.878  30.438  0.0734  0.0073 -0.0672
11959ION     CL14159   7.117   6.726   4.843 -0.2264 -0.3045  0.1888
11960ION     CL14160   7.161   4.006  17.318  0.0677 -0.2465  0.1524
11961ION     CL14161  24.800   0.501   4.945  0.1112  0.3732  0.1129
11962ION     CL14162  14.247   1.234  25.831 -0.0888 -0.0518 -0.1507
11963ION     CL14163   3.456   7.177   6.235 -0.0333 -0.2986 -0.0265
11964ION     CL14164  12.432   0.989   5.093  0.2087 -0.2101  0.0400
11965ION     CL14165   2.918   1.305  26.250  0.0153  0.3900 -0.1091
11966ION     CL14166  21.446   4.176  29.604 -0.0218  0.2707  0.3199
11967ION     CL14167   6.267   6.046  27.136 -0.2407  0.0368  0.0080
11968ION     CL14168  13.870   1.738   3.391  0.0034  0.1312 -0.0359
11969ION     CL14169  23.715   0.640  10.059 -0.0209 -0.0871 -0.2620
11970ION     CL14170   9.700   1.854   3.475  0.1281  0.1822  0.2877
11971ION     CL14171   5.096   6.802  19.686  0.2426 -0.0553  0.1040
11972ION     CL14172   6.393   0.921  23.182  0.1295  0.1623  0.0811
11973ION     CL14173   3.268   1.439  21.175  0.2013 -0.1695  0.1201
11974ION     CL14174   3.737   5.815  29.609  0.0135  0.1799  0.0589
11975ION     CL14175   1.087   1.867  28.437  0.2742  0.0389  0.4552
11976ION     CL14176   7.818   0.405  18.486 -0.1488  0.6864 -0.0236
11977ION     CL14177   1.464   5.318  30.117  0.2379  0.0540  0.2469
11978ION     CL14178   4.148   7.394  23.897 -0.1483 -0.3149  0.0203
11979ION     CL14179   1.687   5.577   6.604 -0.1044 -0.2584  0.0097
11980ION     CL14180  23.195   6.677  30.907 -0.4111 -0.4380  0.0744
11981ION     CL14181  24.480   4.675  24.212 -0.4339 -0.4390 -0.0399
11982ION     CL14182  19.883   5.988   7.632 -0.0009  0.0342 -0.1214
11983ION     CL14183  12.794   6.696   8.814  0.1752 -0.0419  0.1995
11984ION     CL14184  23.633   3.317  27.011 -0.1126  0.0465 -0.2234
11985ION     CL14185  10.145   4.765  18.557 -0.2103 -0.0143  0.0341
11986ION     CL14186   8.346   0.056  15.295 -0.1529  0.1945  0.3456
11987ION     CL14187  12.426   5.890   1.257 -0.2361 -0.2334  0.0849
11988DOPC   NC314188   5.726   6.946  14.589  0.0814 -0.0241  0.0283
11988DOPC   PO414189   6.099   7.111  14.588  0.0002  0.0372  0.3214
11988DOPC   GL114190   6.095   6.946  14.126 -0.1439 -0.3244  0.1890
11988DOPC   GL214191   6.263   6.717  14.104 -0.0701 -0.3085  0.2418
11988DOPC   C1A14192   5.838   6.978  13.764  0.1505 -0.3502 -0.2153
11988DOPC   D2A14193   5.512   7.104  13.486  0.2378 -0.2815  0.0917
11988DOPC   C3A14194   5.569   7.325  13.143 -0.3302  0.0634 -0.1266
11988DOPC   C4A14195   5.432   7.580  12.708 -0.2412 -0.0042 -0.0523
11988DOPC   C1B14196   6.477   6.709  13.668 -0.1098 -0.1906  0.0079
11988DOPC   D2B14197   6.710   6.603  13.196  0.0187 -0.0707  0.2079
11988DOPC   C3B14198   6.500   6.265  13.073  0.2159 -0.0339  0.3306
11988DOPC   C4B14199   6.363   5.823  12.816 -0.3136  0.0672  0.0810
11989DOPC   NC314200  19.380   6.710  22.271 -0.1693  0.2258 -0.0141
11989DOPC   PO414201  19.044   6.796  22.091 -0.0246  0.1424  0.2198
11989DOPC   GL114202  19.049   6.675  21.695  0.0081 -0.3455  0.3348
11989DOPC   GL214203  18.757   6.594  21.612 -0.5096 -0.1346  0.1438
11989DOPC   C1A14204  19.087   6.736  21.287  0.1242 -0.1401  0.1166
11989DOPC   D2A14205  19.193   6.483  20.879 -0.0102 -0.0708  0.1899
11989DOPC   C3A14206  19.505   6.675  20.610 -0.0051  0.0057 -0.0273
11989DOPC   C4A14207  19.608   7.059  20.426 -0.0107 -0.0546 -0.0650
11989DOPC   C1B14208  18.505   6.317  21.388 -0.0320 -0.1246  0.0327
11989DOPC   D2B14209  18.268   5.939  21.330 -0.0793 -0.0317 -0.0224
11989DOPC   C3B14210  18.195   5.803  20.889 -0.0503  0.0225  0.3123
11989DOPC   C4B14211  17.973   6.029  20.507  0.2290  0.0238 -0.1058
11990DOPC   NC314212   2.221   0.091  16.945 -0.0158  0.0808  0.0364
11990DOPC   PO414213   2.490   0.063  16.646 -0.0657 -0.0308  0.3374
11990DOPC   GL114214   2.273  -0.216  16.308  0.2231  0.0588  0.0119
11990DOPC   GL214215   2.084  -0.094  16.447  0.0976 -0.0790  0.0062
11990DOPC   C1A14216   2.026  -0.435  16.042  0.0459  0.0203  0.0801
11990DOPC   D2A14217   2.166  -0.629  15.617 -0.1486 -0.1903  0.1080
11990DOPC   C3A14218   2.054  -0.421  15.262 -0.1550 -0.3839 -0.2906
11990DOPC   C4A14219   2.013  -0.237  14.793 -0.1526  0.0261  0.0963
11990DOPC   C1B14220   1.662  -0.132  16.247  0.0498  0.3012 -0.3324
11990DOPC   D2B14221   1.365  -0.009  15.878 -0.1516  0.0299  0.3831
11990DOPC   C3B14222   1.296   0.419  15.765 -0.0592  0.4041  0.4495
11990DOPC   C4B14223   1.364   0.741  15.399 -0.3240 -0.0543  0.2168
11991DOPC   NC314224  13.976   5.363  20.658  0.2405 -0.1772  0.3016
11991DOPC   PO414225  14.255   5.626  20.753 -0.1621  0.0214  0.0235
11991DOPC   GL114226  14.599   5.609  20.761  0.2103 -0.0887  0.3215
11991DOPC   GL214227  14.665   5.897  20.645 -0.1439  0.1222 -0.0956
11991DOPC   C1A14228  14.921   5.455  20.982 -0.1574  0.0221  0.0300
11991DOPC   D2A14229  15.365   5.176  20.985  0.1737  0.1403 -0.0072
11991DOPC   C3A14230  15.388   4.862  21.364 -0.0808 -0.0167 -0.1041
11991DOPC   C4A14231  15.684   4.620  21.727 -0.2438  0.0819 -0.0291
11991DOPC   C1B14232  14.976   5.905  20.379 -0.2682  0.2608 -0.2919
11991DOPC   D2B14233  15.377   5.804  20.104  0.0813 -0.0134 -0.0759
11991DOPC   C3B14234  15.220   5.685  19.730 -0.0131 -0.0098  0.1040
11991DOPC   C4B14235  15.169   5.894  19.276 -0.0578  0.2497  0.0838
11992DOPC   NC314236   1.270   0.326  18.259 -0.3359  0.1151  0.1688
11992DOPC   PO414237   0.872   0.189  18.170  0.1584  0.0408  0.2205
11992DOPC   GL114238   0.599   0.358  18.025  0.1244  0.2571 -0.0402
11992DOPC   GL214239   0.437   0.411  18.198 -0.0691  0.0496  0.0820
11992DOPC   C1A14240   0.524   0.561  17.656  0.2565 -0.1208 -0.0309
11992DOPC   D2A14241   0.512   0.839  17.208  0.3042 -0.1614 -0.1038
11992DOPC   C3A14242   0.467   1.161  16.913  0.1399  0.3510  0.3626
11992DOPC   C4A14243   0.416   1.404  16.461 -0.0965 -0.2894  0.0813
11992DOPC   C1B14244   0.099   0.639  18.001  0.1835  0.1618 -0.2959
11992DOPC   D2B14245  -0.298   0.793  17.832 -0.1210  0.3773 -0.1148
11992DOPC   C3B14246  -0.227   1.191  17.645 -0.0104 -0.1403 -0.1497
11992DOPC   C4B14247  -0.140   1.675  17.547  0.2419 -0.1200  0.3854
11993DOPC   NC314248  13.732   7.184  20.094 -0.0633 -0.1630  0.0452
11993DOPC   PO414249  13.862   6.918  20.368 -0.0701 -0.1305 -0.0384
11993DOPC   GL114250  14.114   6.864  20.057  0.2738  0.3595  0.0888
11993DOPC   GL214251  14.218   6.551  20.200 -0.1766  0.1608  0.2378
11993DOPC   C1A14252  14.150   7.033  19.717 -0.0487  0.2748 -0.1808
11993DOPC   D2A14253  14.312   7.231  19.278 -0.3691  0.1550 -0.1919
11993DOPC   C3A14254  14.597   7.489  19.111  0.3218 -0.4105 -0.1867
11993DOPC   C4A14255  14.942   7.780  18.988 -0.0825  0.0058 -0.1588
11993DOPC   C1B14256  14.369   6.382  19.792 -0.0178 -0.0695 -0.2991
11993DOPC   D2B14257  14.734   6.337  19.497  0.0362 -0.0948 -0.4311
11993DOPC   C3B14258  14.959   6.358  19.168 -0.1288  0.0226  0.2266
11993DOPC   C4B14259  15.245   6.214  18.773 -0.0913  0.1546  0.2049
11994DOPC   NC314260   0.670   4.289  19.010  0.1455  0.0208  0.0432
11994DOPC   PO414261   0.505   4.127  19.353  0.1015 -0.2487 -0.0910
11994DOPC   GL114262   0.165   3.842  19.144  0.3361  0.1839 -0.3892
11994DOPC   GL214263   0.305   3.848  18.919 -0.1295  0.1562 -0.2693
11994DOPC   C1A14264  -0.252   3.706  19.371  0.1108  0.0613 -0.0136
11994DOPC   D2A14265  -0.675   3.443  19.284  0.0131  0.1206  0.3935
11994DOPC   C3A14266  -1.104   3.374  19.076 -0.0978  0.1056 -0.3591
11994DOPC   C4A14267  -1.390   3.042  18.954  0.0502 -0.3619 -0.1818
11994DOPC   C1B14268  -0.046   3.881  18.645 -0.2544 -0.0273 -0.2304
11994DOPC   D2B14269  -0.474   3.704  18.372 -0.2802  0.0902 -0.0070
11994DOPC   C3B14270  -0.885   3.644  18.099 -0.0510 -0.0968  0.1702
11994DOPC   C4B14271  -0.947   3.408  17.651  0.0703 -0.3800  0.0863
11995DOPC   NC314272  13.536   4.651  21.228  0.1613  0.3781 -0.0385
11995DOPC   PO414273  13.466   4.563  20.816 -0.3172  0.1284  0.0949
11995DOPC   GL114274  13.820   4.590  20.468  0.3072  0.4063  0.1937
11995DOPC   GL214275  13.814   4.313  20.542 -0.2978  0.0366 -0.1308
11995DOPC   C1A14276  14.119   4.928  20.593  0.0710  0.2191 -0.1609
11995DOPC   D2A14277  14.382   5.301  20.360  0.1352 -0.2193 -0.0203
11995DOPC   C3A14278  14.390   5.346  19.864 -0.0325 -0.2878 -0.1590
11995DOPC   C4A14279  14.743   5.631  19.603 -0.0593  0.0461 -0.1388
11995DOPC   C1B14280  14.279   4.453  20.657  0.1227  0.0154  0.4657
11995DOPC   D2B14281  14.797   4.521  20.702  0.1342 -0.1529  0.0124
11995DOPC   C3B14282  14.998   4.721  20.355 -0.1592  0.2267  0.0178
11995DOPC   C4B14283  15.118   4.696  19.878 -0.0739  0.1999  0.1811
11996DOPC   NC314284  15.790   4.765  22.304 -0.0806  0.0952  0.0358
11996DOPC   PO414285  16.136   4.939  22.217  0.0875 -0.0301 -0.1136
11996DOPC   GL114286  16.130   4.882  21.816  0.1430 -0.0686  0.0674
11996DOPC   GL214287  15.927   4.985  21.657 -0.3554 -0.0666 -0.3576
11996DOPC   C1A14288  16.374   4.802  21.444 -0.0577 -0.0473 -0.1452
11996DOPC   D2A14289  16.583   4.577  21.061 -0.0310  0.0477  0.3486
11996DOPC   C3A14290  16.967   4.653  20.848  0.0503 -0.0973  0.3052
11996DOPC   C4A14291  17.328   4.383  20.778  0.2326 -0.0446  0.3966
11996DOPC   C1B14292  15.925   4.789  21.322 -0.1972  0.2247 -0.0979
11996DOPC   D2B14293  15.756   4.758  20.894 -0.1281 -0.0670 -0.0575
11996DOPC   C3B14294  16.003   4.867  20.467  0.0140 -0.1222  0.2718
11996DOPC   C4B14295  16.007   4.925  20.041 -0.1153  0.1269 -0.2170
11997DOPC   NC314296  23.684   3.145  20.815 -0.0460 -0.1696 -0.3293
11997DOPC   PO414297  24.006   3.423  20.802 -0.0425  0.1751  0.0631
11997DOPC   GL114298  23.920   3.367  20.434 -0.0644 -0.0186 -0.0444
11997DOPC   GL214299  23.661   3.322  20.358 -0.2230  0.0239  0.1842
11997DOPC   C1A14300  23.970   3.569  20.012  0.0769  0.1565  0.2363
11997DOPC   D2A14301  24.009   3.639  19.535 -0.2019 -0.0784  0.4001
11997DOPC   C3A14302  23.886   3.804  19.078  0.1393 -0.2411 -0.1331
11997DOPC   C4A14303  23.816   4.119  18.711 -0.0876 -0.0546  0.3922
11997DOPC   C1B14304  23.460   3.548  19.959 -0.2012 -0.2826  0.0115
11997DOPC   D2B14305  23.213   3.686  19.559  0.1061  0.2915  0.1388
11997DOPC   C3B14306  23.458   4.056  19.323  0.3926 -0.0275  0.0268
11997DOPC   C4B14307  23.902   4.175  19.374 -0.0138  0.0368 -0.0047
11998DOPC   NC314308  23.096   3.376  21.310  0.1023 -0.0723 -0.1705
11998DOPC   PO414309  23.329   3.500  21.011  0.1237 -0.0495 -0.0259
11998DOPC   GL114310  23.207   3.301  20.607 -0.0037  0.0832 -0.1460
11998DOPC   GL214311  23.252   3.068  20.687 -0.0630 -0.0340 -0.3649
11998DOPC   C1A14312  23.063   3.465  20.241 -0.1185 -0.2194 -0.2943
11998DOPC   D2A14313  22.592   3.519  20.095 -0.2175 -0.0763  0.1565
11998DOPC   C3A14314  22.460   3.126  19.946 -0.1009  0.0829 -0.0236
11998DOPC   C4A14315  22.551   2.689  19.687 -0.0851 -0.1021  0.0962
11998DOPC   C1B14316  23.314   2.963  20.267 -0.3174  0.2746 -0.1879
11998DOPC   D2B14317  23.430   3.044  19.780 -0.4183  0.0781  0.0566
11998DOPC   C3B14318  23.323   2.924  19.384  0.2028  0.0341 -0.0004
11998DOPC   C4B14319  23.255   2.848  18.891  0.0583 -0.2153  0.2248
11999DOPC   NC314320  13.500   2.961  19.649  0.2896  0.2168 -0.1747
11999DOPC   PO414321  13.518   3.289  19.867 -0.0584 -0.0112 -0.0618
11999DOPC   GL114322  13.812   3.510  19.757  0.1881 -0.0065  0.0874
11999DOPC   GL214323  14.019   3.472  19.965  0.3863 -0.3129 -0.0375
11999DOPC   C1A14324  13.946   3.344  19.429  0.0605  0.1262 -0.0693
11999DOPC   D2A14325  13.951   3.327  18.930  0.2110  0.4527 -0.0814
11999DOPC   C3A14326  14.212   3.160  18.590 -0.0782 -0.1800 -0.0088
11999DOPC   C4A14327  14.325   2.967  18.160  0.0926  0.1667 -0.3120
11999DOPC   C1B14328  14.352   3.278  19.724  0.2476 -0.3428  0.2198
11999DOPC   D2B14329  14.440   3.192  19.222 -0.0479  0.1991 -0.0798
11999DOPC   C3B14330  14.795   3.449  18.935 -0.1893 -0.3046  0.1013
11999DOPC   C4B14331  14.993   3.691  18.565  0.1590 -0.2412  0.2251
12000DOPC   NC314332   4.183   4.947  15.395  0.0510  0.1311  0.2013
12000DOPC   PO414333   4.014   5.008  15.037 -0.2764 -0.4551 -0.0710
12000DOPC   GL114334   4.081   5.064  14.692  0.2020 -0.0735 -0.0578
12000DOPC   GL214335   4.357   4.956  14.646  0.0932 -0.2005  0.0010
12000DOPC   C1A14336   3.964   5.041  14.276 -0.0336 -0.1134 -0.0104
12000DOPC   D2A14337   4.003   4.966  13.855  0.0969  0.5163  0.3238
12000DOPC   C3A14338   3.935   4.500  13.604 -0.1941 -0.2226 -0.1263
12000DOPC   C4A14339   4.087   4.030  13.518 -0.1589 -0.1057 -0.1504
12000DOPC   C1B14340   4.441   5.135  14.207  0.0227 -0.1890  0.0909
12000DOPC   D2B14341   4.190   5.443  13.856  0.0304  0.2990 -0.1893
12000DOPC   C3B14342   3.889   5.718  13.575  0.1219 -0.0162 -0.0842
12000DOPC   C4B14343   3.682   6.048  13.369  0.1167 -0.2744 -0.0375
12001DOPC   NC314344   4.933   5.578  15.349  0.0431 -0.0429 -0.0738
12001DOPC   PO414345   4.836   5.661  14.938  0.1080  0.0029 -0.1041
12001DOPC   GL114346   4.628   5.600  14.598 -0.1994 -0.2265 -0.3235
12001DOPC   GL214347   4.487   5.377  14.627  0.2200  0.2652 -0.0931
12001DOPC   C1A14348   4.531   5.771  14.185  0.2510  0.1800  0.1509
12001DOPC   D2A14349   4.335   5.959  13.788  0.0722 -0.4253 -0.3934
12001DOPC   C3A14350   4.406   6.392  13.679 -0.0362  0.2089  0.2039
12001DOPC   C4A14351   4.629   6.798  13.481 -0.0316  0.0381  0.1067
12001DOPC   C1B14352   4.139   5.521  14.368 -0.0307 -0.1370 -0.0272
12001DOPC   D2B14353   3.933   5.885  14.117  0.1833  0.0843 -0.0981
12001DOPC   C3B14354   3.446   6.013  13.946 -0.0417 -0.0644 -0.1441
12001DOPC   C4B14355   3.178   6.116  13.501 -0.2721 -0.0296 -0.0082
12002DOPC   NC314356   2.146   3.102  16.902 -0.0779  0.0050  0.3556
12002DOPC   PO414357   1.954   2.929  17.196 -0.0006 -0.0833 -0.0408
12002DOPC   GL114358   1.652   2.796  17.107 -0.1094  0.0340 -0.2015
12002DOPC   GL214359   1.660   2.851  16.765 -0.0214 -0.2229 -0.1948
12002DOPC   C1A14360   1.319   2.970  17.364  0.0575  0.1677 -0.0329
12002DOPC   D2A14361   0.952   2.966  17.551  0.0723 -0.0912  0.0687
12002DOPC   C3A14362   0.518   2.706  17.645 -0.1195 -0.0016  0.0148
12002DOPC   C4A14363   0.202   2.567  17.974 -0.2456  0.0991 -0.2574
12002DOPC   C1B14364   1.272   3.096  16.673 -0.0730 -0.1138  0.1130
12002DOPC   D2B14365   0.962   3.320  16.392 -0.1161 -0.0634 -0.0547
12002DOPC   C3B14366   0.640   3.424  16.101  0.2456 -0.3082  0.2085
12002DOPC   C4B14367   0.100   3.530  16.089 -0.1693  0.3090  0.1004
12003DOPC   NC314368  10.638   2.005  15.784  0.2907 -0.0517  0.1423
12003DOPC   PO414369  10.950   1.885  16.050  0.1942 -0.2985  0.2205
12003DOPC   GL114370  11.397   1.812  15.913 -0.0810  0.3059 -0.2985
12003DOPC   GL214371  11.463   2.008  16.013  0.0463  0.3258 -0.2779
12003DOPC   C1A14372  11.767   1.566  15.826  0.1591  0.2001  0.1492
12003DOPC   D2A14373  12.146   1.282  15.866 -0.0631  0.2980  0.2392
12003DOPC   C3A14374  12.415   1.426  16.187  0.0842  0.1941  0.1744
12003DOPC   C4A14375  12.640   1.369  16.582 -0.1772  0.0187 -0.0407
12003DOPC   C1B14376  11.871   1.939  16.093 -0.0763  0.0936  0.2153
12003DOPC   D2B14377  12.365   1.830  15.931  0.2792  0.0788 -0.1131
12003DOPC   C3B14378  12.695   2.075  15.836 -0.2928  0.1963  0.0948
12003DOPC   C4B14379  13.154   2.353  16.003  0.0731 -0.0512  0.1552
12004DOPC   NC314380   9.561   4.489  15.753  0.1239 -0.1330 -0.3232
12004DOPC   PO414381   9.673   4.734  15.471 -0.2495  0.2018  0.1784
12004DOPC   GL114382   9.805   4.692  15.177  0.0824 -0.1061 -0.2438
12004DOPC   GL214383   9.732   4.436  15.041  0.2914 -0.0752 -0.1661
12004DOPC   C1A14384  10.100   4.805  14.937 -0.1402 -0.1680 -0.0341
12004DOPC   D2A14385  10.524   4.868  14.708  0.1306  0.0080  0.5517
12004DOPC   C3A14386  10.814   5.030  14.331 -0.1438 -0.0771 -0.1002
12004DOPC   C4A14387  10.864   5.245  13.839  0.0805  0.3421  0.1463
12004DOPC   C1B14388   9.802   4.458  14.637  0.1581 -0.0560  0.0069
12004DOPC   D2B14389   9.881   4.601  14.110  0.0527 -0.2015 -0.1938
12004DOPC   C3B14390   9.896   4.398  13.663 -0.0088 -0.0195 -0.2571
12004DOPC   C4B14391   9.807   4.280  13.199 -0.0505  0.1142 -0.1417
12005DOPC   NC314392   9.936   7.452  16.635 -0.1269  0.1113  0.0279
12005DOPC   PO414393  10.250   7.299  16.741  0.0602 -0.0028 -0.3682
12005DOPC   GL114394  10.599   7.209  16.497  0.1433  0.4036  0.1194
12005DOPC   GL214395  10.565   6.948  16.482 -0.1951 -0.0200 -0.0946
12005DOPC   C1A14396  11.010   7.333  16.366 -0.1656  0.1112 -0.1209
12005DOPC   D2A14397  11.321   7.185  15.947 -0.0751 -0.2925  0.2085
12005DOPC   C3A14398  11.718   7.009  15.975 -0.2728 -0.0101  0.3289
12005DOPC   C4A14399  12.045   6.696  15.705  0.1449  0.0506  0.3336
12005DOPC   C1B14400  10.930   6.855  16.153  0.1325 -0.0475 -0.0728
12005DOPC   D2B14401  11.320   6.602  15.935 -0.0777 -0.3224 -0.1268
12005DOPC   C3B14402  11.216   6.367  15.542  0.5627 -0.1484  0.0094
12005DOPC   C4B14403  10.921   6.369  15.141 -0.0666 -0.1050  0.2384
12006DOPC   NC314404   0.722   7.766  18.534 -0.0524  0.0609 -0.0038
12006DOPC   PO414405   0.870   7.476  18.290 -0.2161 -0.0943 -0.1121
12006DOPC   GL114406   0.582   7.606  17.969  0.0719  0.0724  0.1462
12006DOPC   GL214407   0.456   7.740  18.110  0.1630 -0.0278 -0.0572
12006DOPC   C1A14408   0.506   7.412  17.554 -0.0996  0.0179 -0.0612
12006DOPC   D2A14409   0.593   7.255  17.119  0.0388  0.2338  0.4487
12006DOPC   C3A14410   0.465   6.810  16.960  0.2800  0.0137  0.1690
12006DOPC   C4A14411   0.382   6.402  16.738 -0.0435  0.3955 -0.1969
12006DOPC   C1B14412   0.274   7.984  17.824  0.0693 -0.0739 -0.2212
12006DOPC   D2B14413   0.004   8.293  17.556 -0.0786  0.2050  0.1868
12006DOPC   C3B14414   0.259   8.226  17.151  0.1165  0.1752  0.2611
12006DOPC   C4B14415   0.292   8.099  16.680 -0.0151 -0.2268  0.0624
12007DOPC   NC314416   3.604   5.228  15.855 -0.1834 -0.1952  0.1870
12007DOPC   PO414417   3.677   5.612  15.945  0.0245 -0.0087  0.0887
12007DOPC   GL114418   3.338   5.713  15.762 -0.1883 -0.1164 -0.0810
12007DOPC   GL214419   3.255   5.432  15.642 -0.0807  0.0114  0.2086
12007DOPC   C1A14420   3.242   5.921  15.329 -0.1161  0.1541  0.4036
12007DOPC   D2A14421   2.840   6.082  15.018 -0.0241  0.0831 -0.0977
12007DOPC   C3A14422   2.607   6.309  14.639 -0.1086 -0.1584 -0.0215
12007DOPC   C4A14423   2.442   6.733  14.405  0.4287 -0.2864 -0.0482
12007DOPC   C1B14424   2.884   5.552  15.500  0.2983  0.0599 -0.0712
12007DOPC   D2B14425   2.578   5.305  15.263  0.5256 -0.0880  0.1715
12007DOPC   C3B14426   2.176   5.492  15.070  0.1774  0.1875 -0.0604
12007DOPC   C4B14427   1.882   5.480  14.632 -0.0605  0.3657  0.0734
12008DOPC   NC314428  13.759   7.462  20.880  0.1612 -0.0991 -0.0151
12008DOPC   PO414429  13.804   7.566  20.467  0.0389 -0.0073  0.0166
12008DOPC   GL114430  14.137   7.423  20.323  0.0477 -0.2831  0.0681
12008DOPC   GL214431  14.257   7.714  20.243  0.2411 -0.3287 -0.0402
12008DOPC   C1A14432  14.448   7.211  20.144  0.0424  0.1440  0.0400
12008DOPC   D2A14433  14.926   7.161  19.914  0.2708  0.0625 -0.3504
12008DOPC   C3A14434  15.382   7.265  19.834  0.1118 -0.0726 -0.1125
12008DOPC   C4A14435  15.516   7.504  19.448  0.1216 -0.0071 -0.0096
12008DOPC   C1B14436  14.134   8.002  19.887 -0.0465 -0.1774  0.3315
12008DOPC   D2B14437  13.886   8.351  19.672 -0.1816  0.1003  0.1376
12008DOPC   C3B14438  13.871   8.605  19.285 -0.0253 -0.1179  0.3936
12008DOPC   C4B14439  13.708   8.874  18.897  0.0304 -0.0678 -0.1738
12009DOPC   NC314440  17.009   1.717  22.065 -0.0967  0.0383 -0.0035
12009DOPC   PO414441  17.332   1.960  21.842 -0.0132  0.1653  0.1684
12009DOPC   GL114442  17.364   1.975  21.386  0.0856  0.1379 -0.0734
12009DOPC   GL214443  17.595   2.152  21.399  0.0953  0.0998 -0.1164
12009DOPC   C1A14444  17.523   1.965  20.955  0.3668 -0.1012  0.3323
12009DOPC   D2A14445  17.486   2.210  20.497 -0.2936  0.1021  0.2572
12009DOPC   C3A14446  17.485   1.858  20.191 -0.0487  0.0397  0.2353
12009DOPC   C4A14447  17.549   1.662  19.760 -0.3672  0.1422 -0.0966
12009DOPC   C1B14448  17.565   2.441  21.054 -0.1155 -0.1133  0.0419
12009DOPC   D2B14449  17.371   2.729  20.697 -0.1641 -0.2822  0.1096
12009DOPC   C3B14450  17.541   3.109  20.537 -0.1038  0.2471 -0.0778
12009DOPC   C4B14451  17.483   3.497  20.251  0.3355 -0.0513 -0.1746
12010DOPC   NC314452  16.230   2.145  21.922 -0.0743  0.1355 -0.1574
12010DOPC   PO414453  16.554   1.908  22.038 -0.1696 -0.0031  0.0105
12010DOPC   GL114454  16.735   1.644  21.703  0.0661  0.1371 -0.2523
12010DOPC   GL214455  16.888   1.851  21.594  0.1636  0.2073  0.1614
12010DOPC   C1A14456  16.754   1.427  21.309 -0.0198  0.1084 -0.0954
12010DOPC   D2A14457  16.690   1.470  20.818 -0.0033 -0.1381  0.1403
12010DOPC   C3A14458  16.721   1.266  20.397  0.0341 -0.1114 -0.1552
12010DOPC   C4A14459  16.771   1.075  19.926 -0.1137 -0.0012 -0.0687
12010DOPC   C1B14460  16.921   1.859  21.143  0.2428 -0.0882  0.1489
12010DOPC   D2B14461  16.663   2.106  20.749 -0.0453  0.2103  0.1070
12010DOPC   C3B14462  16.816   2.200  20.323 -0.0421 -0.0569 -0.1232
12010DOPC   C4B14463  17.180   2.265  20.065 -0.0048  0.3495  0.1550
12011DOPC   NC314464  11.212   5.040  18.226  0.1690  0.2282  0.0479
12011DOPC   PO414465  11.290   5.186  17.864  0.0655 -0.1008  0.0450
12011DOPC   GL114466  11.587   4.949  17.594  0.0782  0.0136  0.0267
12011DOPC   GL214467  11.716   5.212  17.595  0.0560  0.0959 -0.4312
12011DOPC   C1A14468  11.761   4.795  17.250 -0.0667 -0.0331  0.3362
12011DOPC   D2A14469  12.195   4.799  16.979  0.0990  0.2250 -0.0246
12011DOPC   C3A14470  12.617   4.743  16.722  0.2918 -0.1256  0.1264
12011DOPC   C4A14471  12.986   5.003  16.546  0.3831  0.1393  0.1047
12011DOPC   C1B14472  12.031   5.196  17.328 -0.2506  0.0831  0.2553
12011DOPC   D2B14473  12.407   5.226  16.962 -0.1343 -0.1813 -0.0813
12011DOPC   C3B14474  12.781   5.369  16.766  0.1350  0.0328  0.0571
12011DOPC   C4B14475  13.317   5.475  16.679 -0.1270 -0.1028  0.0073
12012DOPC   NC314476  18.084   1.944  22.302  0.0206 -0.2616  0.1171
12012DOPC   PO414477  18.477   1.860  22.355 -0.1323 -0.0967 -0.1078
12012DOPC   GL114478  18.471   1.948  21.995 -0.4739 -0.1395  0.0392
12012DOPC   GL214479  18.728   1.875  21.911 -0.0422 -0.0754 -0.1435
12012DOPC   C1A14480  18.291   1.996  21.650  0.2508 -0.0578 -0.0109
12012DOPC   D2A14481  18.043   2.254  21.305 -0.0864  0.1372  0.0796
12012DOPC   C3A14482  18.151   2.599  20.950 -0.2082  0.3687  0.1637
12012DOPC   C4A14483  17.857   2.690  20.537  0.1239  0.0696 -0.3270
12012DOPC   C1B14484  18.782   2.094  21.513 -0.4715 -0.1746  0.0542
12012DOPC   D2B14485  19.014   2.353  21.099  0.0348 -0.1941 -0.0038
12012DOPC   C3B14486  19.208   2.553  20.682 -0.1297 -0.0179  0.1170
12012DOPC   C4B14487  19.322   2.986  20.467 -0.3554  0.2226  0.0175
12013DOPC   NC314488   2.521   7.465  17.028  0.0251 -0.1822  0.3538
12013DOPC   PO414489   2.612   7.424  16.649 -0.3553 -0.1442 -0.0190
12013DOPC   GL114490   2.371   7.230  16.356  0.0465 -0.0848  0.1130
12013DOPC   GL214491   2.532   7.345  16.117  0.2152 -0.1595  0.1462
12013DOPC   C1A14492   1.971   7.336  16.523  0.0699 -0.4195  0.1866
12013DOPC   D2A14493   1.735   7.639  16.914 -0.2247  0.1550 -0.0091
12013DOPC   C3A14494   1.404   7.914  16.686 -0.1116 -0.0201  0.1601
12013DOPC   C4A14495   1.281   8.079  16.259  0.1399 -0.2205  0.1829
12013DOPC   C1B14496   2.431   7.634  15.828 -0.3041  0.1121 -0.0408
12013DOPC   D2B14497   2.308   7.921  15.487  0.4439 -0.0937  0.2526
12013DOPC   C3B14498   1.998   8.014  15.239  0.2139  0.4680  0.0015
12013DOPC   C4B14499   1.782   8.189  14.876 -0.0570 -0.0376  0.0057
12014DOPC   NC314500  15.813   5.943  22.050  0.0090  0.3152 -0.0739
12014DOPC   PO414501  16.187   5.821  21.956 -0.2463 -0.0537  0.0948
12014DOPC   GL114502  16.363   5.625  21.596 -0.1480  0.3022 -0.1322
12014DOPC   GL214503  16.420   5.906  21.567 -0.0033  0.2893 -0.0799
12014DOPC   C1A14504  16.302   5.438  21.219  0.1356  0.2082  0.0600
12014DOPC   D2A14505  16.399   5.382  20.725 -0.0839 -0.1713 -0.0054
12014DOPC   C3A14506  16.323   5.243  20.284  0.1767  0.0816  0.0776
12014DOPC   C4A14507  16.611   4.971  19.933 -0.1119  0.0001 -0.1139
12014DOPC   C1B14508  16.691   5.846  21.243 -0.0721  0.1494 -0.2558
12014DOPC   D2B14509  16.883   5.666  20.788  0.1566 -0.3849  0.1340
12014DOPC   C3B14510  16.882   5.860  20.333 -0.1410 -0.0581 -0.1582
12014DOPC   C4B14511  16.792   6.190  19.890 -0.0444 -0.0316  0.1501
12015DOPC   NC314512   4.371   2.373  14.947 -0.0470 -0.1452  0.0932
12015DOPC   PO414513   4.102   2.204  15.248 -0.2361 -0.0392  0.1775
12015DOPC   GL114514   3.781   2.067  15.046  0.1367  0.0349  0.1227
12015DOPC   GL214515   3.894   2.183  14.788 -0.0522  0.3571 -0.1592
12015DOPC   C1A14516   3.501   1.804  14.806  0.0489  0.1465  0.1279
12015DOPC   D2A14517   3.062   1.727  14.847 -0.1562 -0.3504  0.1322
12015DOPC   C3A14518   2.680   1.924  14.900  0.1494  0.1915 -0.0269
12015DOPC   C4A14519   2.257   2.049  14.883 -0.0618  0.2437  0.0767
12015DOPC   C1B14520   3.660   2.220  14.464 -0.4773 -0.1948  0.2088
12015DOPC   D2B14521   3.610   2.183  13.973  0.0125  0.1073 -0.2613
12015DOPC   C3B14522   3.247   2.145  13.677 -0.1170 -0.0920 -0.2351
12015DOPC   C4B14523   2.932   2.044  13.343  0.1138 -0.2121  0.1706
12016DOPC   NC314524  19.332   3.017  22.218  0.2292 -0.1576 -0.0287
12016DOPC   PO414525  19.141   2.667  22.268  0.0093 -0.0160 -0.0741
12016DOPC   GL114526  19.089   2.424  21.969  0.3564 -0.0897 -0.0819
12016DOPC   GL214527  18.909   2.561  21.849  0.1615  0.5199 -0.0048
12016DOPC   C1A14528  19.263   2.303  21.597  0.1426  0.0460 -0.0738
12016DOPC   D2A14529  19.566   1.938  21.426  0.2373 -0.1043  0.1209
12016DOPC   C3A14530  19.527   1.535  21.226 -0.2079  0.1128  0.3351
12016DOPC   C4A14531  19.588   1.141  20.961 -0.1340 -0.0922 -0.0834
12016DOPC   C1B14532  18.931   2.713  21.504  0.2376  0.1817  0.2498
12016DOPC   D2B14533  18.696   2.762  21.067  0.3528  0.1539 -0.2105
12016DOPC   C3B14534  18.838   2.924  20.603 -0.1669  0.0599 -0.1971
12016DOPC   C4B14535  18.944   3.324  20.291 -0.1829  0.0377  0.1020
12017DOPC   NC314536   3.796   6.255  15.515 -0.2732 -0.0619  0.1589
12017DOPC   PO414537   3.737   6.645  15.559 -0.2268 -0.2141  0.1003
12017DOPC   GL114538   3.525   6.790  15.263 -0.0436  0.0527  0.0812
12017DOPC   GL214539   3.328   6.889  15.438 -0.1278  0.0818  0.0105
12017DOPC   C1A14540   3.370   6.888  14.829 -0.2612 -0.0775  0.1998
12017DOPC   D2A14541   3.289   6.866  14.314 -0.0792 -0.3199  0.0581
12017DOPC   C3A14542   3.097   7.014  13.925 -0.0836  0.1177  0.0707
12017DOPC   C4A14543   3.061   7.132  13.467 -0.1670  0.1878  0.0077
12017DOPC   C1B14544   2.920   6.995  15.221 -0.1853  0.1361 -0.0226
12017DOPC   D2B14545   2.520   7.042  14.942 -0.1539 -0.1416  0.0348
12017DOPC   C3B14546   2.080   7.114  14.864 -0.0894 -0.3083  0.4820
12017DOPC   C4B14547   1.640   7.231  15.017  0.0658  0.2160 -0.0416
12018DOPC   NC314548  23.131   5.876  21.456 -0.1019 -0.0395  0.0594
12018DOPC   PO414549  22.827   6.010  21.261  0.3327  0.0717 -0.0251
12018DOPC   GL114550  22.753   6.058  20.903 -0.1922 -0.0098  0.1417
12018DOPC   GL214551  22.933   6.032  20.693  0.2768  0.4130 -0.2397
12018DOPC   C1A14552  22.524   6.340  20.804  0.1147 -0.0938  0.3470
12018DOPC   D2A14553  22.093   6.599  20.708  0.0360  0.1784  0.1442
12018DOPC   C3A14554  21.825   6.883  20.457 -0.1632 -0.1821 -0.1812
12018DOPC   C4A14555  21.830   7.045  20.046 -0.0235  0.1032  0.2138
12018DOPC   C1B14556  22.744   6.266  20.315 -0.1250 -0.0936 -0.0638
12018DOPC   D2B14557  22.797   6.370  19.834 -0.1664 -0.1195  0.1224
12018DOPC   C3B14558  22.645   6.185  19.430 -0.3001  0.2782 -0.2868
12018DOPC   C4B14559  22.936   5.714  19.308 -0.0189 -0.2237  0.0352
12019DOPC   NC314560  18.231   5.813  22.687  0.0916  0.2367  0.0780
12019DOPC   PO414561  17.870   6.003  22.592  0.1601 -0.0601 -0.1247
12019DOPC   GL114562  17.701   5.785  22.222 -0.0373 -0.1547 -0.0531
12019DOPC   GL214563  17.756   6.021  22.072 -0.0925  0.1006 -0.2099
12019DOPC   C1A14564  17.933   5.405  22.189 -0.3131 -0.1372  0.0140
12019DOPC   D2A14565  17.892   5.129  21.797 -0.1319 -0.3577  0.2001
12019DOPC   C3A14566  17.898   5.385  21.388 -0.3874  0.2579 -0.1332
12019DOPC   C4A14567  17.737   5.817  21.184  0.0544 -0.0815 -0.0140
12019DOPC   C1B14568  17.666   6.093  21.613  0.1551 -0.3028  0.0434
12019DOPC   D2B14569  17.784   6.295  21.195 -0.0107 -0.0027  0.1804
12019DOPC   C3B14570  18.206   6.357  21.027 -0.0797 -0.2879 -0.0709
12019DOPC   C4B14571  18.604   6.625  20.943  0.0426 -0.3035 -0.1639
12020DOPC   NC314572   0.479   3.255  19.687  0.1928  0.2426 -0.2729
12020DOPC   PO414573   0.112   3.152  19.556 -0.0724 -0.1451  0.1708
12020DOPC   GL114574   0.016   3.379  19.222  0.2479 -0.1557  0.0999
12020DOPC   GL214575  -0.247   3.313  19.205  0.1573 -0.0663  0.2320
12020DOPC   C1A14576   0.054   3.259  18.752 -0.2748 -0.1473 -0.0741
12020DOPC   D2A14577  -0.226   3.274  18.333 -0.0796 -0.1343  0.1579
12020DOPC   C3A14578  -0.375   3.432  17.917 -0.1679 -0.1161  0.2588
12020DOPC   C4A14579  -0.446   3.308  17.463 -0.1721  0.1663 -0.1598
12020DOPC   C1B14580  -0.385   3.570  18.879 -0.1232 -0.4841 -0.3083
12020DOPC   D2B14581  -0.804   3.856  18.857  0.0369  0.3149 -0.0225
12020DOPC   C3B14582  -0.869   3.998  18.480 -0.2266 -0.0702 -0.0786
12020DOPC   C4B14583  -0.901   4.100  18.007 -0.2073 -0.0395 -0.0262
12021DOPC   NC314584  25.051   7.144  19.493  0.2111 -0.2187  0.0889
12021DOPC   PO414585  25.337   7.120  19.202 -0.1269  0.1048  0.0525
12021DOPC   GL114586  25.175   7.137  18.874 -0.3729  0.1609 -0.3039
12021DOPC   GL214587  24.876   7.319  18.933  0.2411  0.1498 -0.1348
12021DOPC   C1A14588  25.109   6.742  18.615  0.2580 -0.2289 -0.2369
12021DOPC   D2A14589  25.116   6.565  18.160 -0.0301  0.3492  0.0650
12021DOPC   C3A14590  24.632   6.655  18.117  0.2434  0.0222 -0.0371
12021DOPC   C4A14591  24.165   6.458  18.173 -0.0677  0.1545  0.2766
12021DOPC   C1B14592  24.690   7.265  18.523 -0.3604 -0.0569  0.2223
12021DOPC   D2B14593  24.376   7.346  18.049  0.0679  0.0166  0.3520
12021DOPC   C3B14594  24.138   7.631  17.873  0.1258 -0.1778  0.1040
12021DOPC   C4B14595  23.861   7.980  17.658 -0.0028  0.0556 -0.1012
12022DOPC   NC314596  12.637   0.271  19.821 -0.0303 -0.1727 -0.0790
12022DOPC   PO414597  12.851   0.584  19.893  0.0326 -0.1729  0.3118
12022DOPC   GL114598  13.118   0.659  19.539  0.3347 -0.1980 -0.2932
12022DOPC   GL214599  12.926   0.880  19.445 -0.1387  0.0054 -0.1225
12022DOPC   C1A14600  13.534   0.363  19.410  0.2721 -0.2226  0.1002
12022DOPC   D2A14601  13.802   0.288  19.038  0.0905 -0.0753  0.0482
12022DOPC   C3A14602  14.116   0.569  18.833 -0.1819  0.3201  0.1384
12022DOPC   C4A14603  14.185   1.034  18.812 -0.1140  0.2785 -0.4232
12022DOPC   C1B14604  13.125   0.756  19.107  0.1696  0.2511 -0.1541
12022DOPC   D2B14605  13.434   0.641  18.687  0.2122 -0.1246  0.2859
12022DOPC   C3B14606  13.764   0.738  18.473  0.0420 -0.2483 -0.1681
12022DOPC   C4B14607  14.270   0.645  18.383  0.1881 -0.0586 -0.1130
12023DOPC   NC314608   4.893   5.095  14.560 -0.0963 -0.1943  0.0819
12023DOPC   PO414609   5.094   5.398  14.545  0.1225 -0.1469  0.0837
12023DOPC   GL114610   4.953   5.585  14.145 -0.0001 -0.0652 -0.4077
12023DOPC   GL214611   4.882   5.272  14.112  0.2922 -0.1103 -0.0944
12023DOPC   C1A14612   4.700   5.606  13.757 -0.1047 -0.3005  0.1555
12023DOPC   D2A14613   4.406   5.678  13.394 -0.0341  0.0293 -0.2847
12023DOPC   C3A14614   4.272   5.243  13.396 -0.1262 -0.3174  0.0419
12023DOPC   C4A14615   4.257   4.767  13.297 -0.0790 -0.0419  0.0068
12023DOPC   C1B14616   5.087   4.999  13.782 -0.0619  0.0347 -0.1152
12023DOPC   D2B14617   5.294   4.688  13.558  0.2168  0.0003  0.0185
12023DOPC   C3B14618   5.380   4.461  13.220 -0.3540  0.1159 -0.2887
12023DOPC   C4B14619   5.665   4.054  13.128 -0.1093  0.1109 -0.1278
12024DOPC   NC314620  13.693   6.367  20.539  0.0992 -0.4792 -0.0216
12024DOPC   PO414621  13.381   6.157  20.317 -0.1868  0.0867  0.3308
12024DOPC   GL114622  13.583   5.938  20.024  0.1377 -0.0359  0.2373
12024DOPC   GL214623  13.408   6.021  19.771  0.2704 -0.1073 -0.2575
12024DOPC   C1A14624  13.872   5.595  19.937 -0.0787  0.0074 -0.0163
12024DOPC   D2A14625  13.929   5.093  20.084  0.2825 -0.0851 -0.0224
12024DOPC   C3A14626  14.324   4.795  20.184 -0.1920  0.1819 -0.1220
12024DOPC   C4A14627  14.691   4.464  19.994 -0.1083 -0.0816  0.0139
12024DOPC   C1B14628  13.573   5.727  19.488 -0.3191  0.3177 -0.0080
12024DOPC   D2B14629  13.885   5.667  19.042 -0.2139 -0.4253 -0.0889
12024DOPC   C3B14630  14.299   5.564  18.899  0.0433  0.2540 -0.1188
12024DOPC   C4B14631  14.587   5.971  18.637 -0.0157 -0.1160 -0.2784
12025DOPC   NC314632   2.227   7.083  17.781  0.1279 -0.0860  0.0698
12025DOPC   PO414633   2.438   7.320  17.519  0.1963  0.0519  0.1665
12025DOPC   GL114634   2.289   7.118  17.166  0.0705 -0.3468 -0.2750
12025DOPC   GL214635   2.090   7.369  17.064 -0.1882  0.0248 -0.1553
12025DOPC   C1A14636   2.203   6.918  16.743  0.2231 -0.2941 -0.2592
12025DOPC   D2A14637   2.015   6.548  16.512  0.5071  0.2997 -0.2537
12025DOPC   C3A14638   1.757   6.471  16.143  0.1197  0.1016 -0.1122
12025DOPC   C4A14639   1.476   6.486  15.713  0.0909  0.0704 -0.1980
12025DOPC   C1B14640   1.725   7.097  16.933  0.0872 -0.0754 -0.2238
12025DOPC   D2B14641   1.220   6.950  16.758  0.1205  0.0379 -0.0956
12025DOPC   C3B14642   1.125   6.999  16.259 -0.1383  0.1485  0.1198
12025DOPC   C4B14643   1.139   6.903  15.802 -0.0511  0.1189 -0.2083
12026DOPC   NC314644  14.810   6.374  21.865  0.0769  0.0836  0.2738
12026DOPC   PO414645  14.768   6.231  21.520  0.0170  0.0497 -0.1485
12026DOPC   GL114646  15.035   6.174  21.170 -0.2180  0.1629  0.3777
12026DOPC   GL214647  15.210   6.302  21.326  0.1578 -0.2028  0.0699
12026DOPC   C1A14648  15.168   5.872  20.879  0.0559  0.0170  0.1105
12026DOPC   D2A14649  15.353   5.553  20.524 -0.0701  0.0487  0.0352
12026DOPC   C3A14650  15.366   5.252  20.171 -0.4376  0.1183  0.0235
12026DOPC   C4A14651  15.432   5.027  19.745 -0.0729  0.0515  0.0326
12026DOPC   C1B14652  15.465   6.272  20.979  0.1482  0.1234 -0.0005
12026DOPC   D2B14653  15.585   6.336  20.462 -0.0662 -0.0709 -0.0985
12026DOPC   C3B14654  15.651   6.261  20.016 -0.0447 -0.1330 -0.0481
12026DOPC   C4B14655  15.460   6.203  19.514  0.3532 -0.3636  0.0451
12027DOPC   NC314656  13.099   5.641  20.228  0.3142 -0.1549 -0.0852
12027DOPC   PO414657  12.884   5.525  19.918 -0.1007  0.0669  0.0723
12027DOPC   GL114658  12.976   5.574  19.533  0.0485 -0.0388  0.2280
12027DOPC   GL214659  13.024   5.828  19.617  0.1905  0.4836  0.0834
12027DOPC   C1A14660  13.227   5.367  19.198  0.0220 -0.3337  0.1778
12027DOPC   D2A14661  13.460   5.293  18.832  0.4085  0.0480 -0.1236
12027DOPC   C3A14662  13.843   5.413  18.613 -0.0055 -0.0272 -0.0054
12027DOPC   C4A14663  14.145   5.735  18.426  0.2694 -0.0535  0.1342
12027DOPC   C1B14664  13.366   6.137  19.382  0.1293 -0.4279 -0.1163
12027DOPC   D2B14665  13.739   6.185  19.086 -0.2384  0.1553  0.0587
12027DOPC   C3B14666  14.021   6.478  19.132  0.0225 -0.2312 -0.0179
12027DOPC   C4B14667  14.329   6.775  19.344 -0.1320  0.2207  0.0246
12028DOPC   NC314668  12.913   6.677  20.047 -0.1052 -0.0459  0.0411
12028DOPC   PO414669  13.134   6.962  19.890  0.1959  0.0973  0.0632
12028DOPC   GL114670  13.597   6.899  19.792 -0.1578 -0.2033  0.2266
12028DOPC   GL214671  13.517   7.109  19.602  0.1838  0.2922 -0.0982
12028DOPC   C1A14672  13.791   6.610  19.561  0.1695  0.1002  0.0426
12028DOPC   D2A14673  13.846   6.170  19.586 -0.1506  0.0391  0.1068
12028DOPC   C3A14674  14.203   6.050  19.309  0.2066 -0.1134 -0.2394
12028DOPC   C4A14675  14.649   5.871  19.193 -0.3039  0.3282  0.2420
12028DOPC   C1B14676  13.764   7.363  19.401  0.0213 -0.2187  0.1916
12028DOPC   D2B14677  14.139   7.695  19.379 -0.1776 -0.0798 -0.1325
12028DOPC   C3B14678  14.596   7.859  19.415 -0.2802  0.0315 -0.2227
12028DOPC   C4B14679  15.100   7.853  19.473 -0.1412 -0.0415  0.1651
12029DOPC   NC314680  15.238   0.546  21.103 -0.2394  0.1227 -0.6269
12029DOPC   PO414681  15.318   0.886  21.218 -0.0899 -0.1099  0.1359
12029DOPC   GL114682  15.674   0.879  20.987 -0.2569 -0.2596  0.2175
12029DOPC   GL214683  15.642   0.644  20.917  0.1850  0.1294  0.0765
12029DOPC   C1A14684  15.658   1.122  20.604  0.1013 -0.0358 -0.2821
12029DOPC   D2A14685  15.646   1.173  20.170 -0.0853  0.1635  0.0212
12029DOPC   C3A14686  15.869   0.900  19.872 -0.2171  0.0948  0.0260
12029DOPC   C4A14687  15.745   0.604  19.456 -0.1889  0.0734 -0.1249
12029DOPC   C1B14688  15.509   0.628  20.483 -0.3681 -0.0063 -0.0122
12029DOPC   D2B14689  15.637   0.520  20.038 -0.4160  0.1645 -0.0410
12029DOPC   C3B14690  16.057   0.427  19.840 -0.1054  0.1401  0.4447
12029DOPC   C4B14691  16.396   0.189  19.648 -0.4164 -0.3144 -0.1190
12030DOPC   NC314692   5.502   7.713  15.042 -0.0501 -0.0413  0.0804
12030DOPC   PO414693   5.148   7.708  14.893 -0.0670  0.0867 -0.2721
12030DOPC   GL114694   5.015   7.627  14.542 -0.2153 -0.1808  0.1601
12030DOPC   GL214695   4.779   7.495  14.551  0.0840 -0.0625  0.1393
12030DOPC   C1A14696   4.872   7.977  14.305  0.2354  0.0463  0.1638
12030DOPC   D2A14697   4.370   7.981  14.095  0.1641  0.2373 -0.2110
12030DOPC   C3A14698   4.088   8.203  13.763 -0.0085 -0.1408 -0.0675
12030DOPC   C4A14699   3.723   8.033  13.423 -0.0594  0.0328 -0.2588
12030DOPC   C1B14700   4.386   7.641  14.597 -0.1590 -0.1985 -0.0210
12030DOPC   D2B14701   4.075   7.984  14.519 -0.1687  0.0850  0.0009
12030DOPC   C3B14702   3.806   8.147  14.123 -0.0107 -0.0834 -0.2096
12030DOPC   C4B14703   3.414   8.068  13.831 -0.1421  0.0761  0.0201
12031DOPC   NC314704   7.457   7.425  13.988  0.0273 -0.1709  0.1536
12031DOPC   PO414705   7.343   7.793  13.945 -0.3053 -0.0471  0.1263
12031DOPC   GL114706   7.530   7.823  13.601  0.3056  0.0761  0.2463
12031DOPC   GL214707   7.480   7.570  13.568  0.2283 -0.0499 -0.0410
12031DOPC   C1A14708   7.427   7.951  13.175 -0.0281 -0.1230 -0.1286
12031DOPC   D2A14709   7.228   7.880  12.743  0.0277  0.1130  0.1917
12031DOPC   C3A14710   7.072   8.189  12.438 -0.0995 -0.0624  0.0238
12031DOPC   C4A14711   6.918   8.664  12.330  0.0538 -0.3279  0.0314
12031DOPC   C1B14712   7.348   7.433  13.165  0.0368 -0.1059  0.1471
12031DOPC   D2B14713   7.171   7.311  12.723  0.1399  0.0993 -0.0931
12031DOPC   C3B14714   7.510   7.103  12.437  0.3937 -0.1130 -0.0491
12031DOPC   C4B14715   7.900   6.924  12.520  0.0042  0.0642 -0.0108
12032DOPC   NC314716   0.433   5.116  18.984  0.0982 -0.1084  0.1695
12032DOPC   PO414717   0.318   5.060  19.357 -0.4493  0.2589 -0.2280
12032DOPC   GL114718  -0.057   5.074  19.189 -0.2365 -0.1932  0.1471
12032DOPC   GL214719   0.006   4.712  19.175  0.3012 -0.1978  0.2020
12032DOPC   C1A14720  -0.035   5.298  18.791 -0.0455 -0.1556  0.0153
12032DOPC   D2A14721  -0.197   5.580  18.456 -0.1124 -0.0715 -0.0220
12032DOPC   C3A14722  -0.451   5.441  18.191 -0.1718 -0.1491 -0.2472
12032DOPC   C4A14723  -0.848   5.424  17.906 -0.0219  0.2028 -0.1150
12032DOPC   C1B14724  -0.179   4.793  18.771  0.2115  0.0648  0.0470
12032DOPC   D2B14725  -0.323   4.957  18.375 -0.0475 -0.2922  0.1033
12032DOPC   C3B14726  -0.637   4.969  18.074  0.0420 -0.0814 -0.0021
12032DOPC   C4B14727  -0.948   4.898  17.741 -0.0859 -0.4611  0.0740
12033DOPC   NC314728   8.633   3.812  14.790 -0.0238  0.0475 -0.2237
12033DOPC   PO414729   8.620   4.159  14.569 -0.0226  0.1172 -0.2755
12033DOPC   GL114730   8.622   4.194  14.175  0.1337  0.2828 -0.2128
12033DOPC   GL214731   8.404   4.340  14.130  0.0864 -0.0497  0.2009
12033DOPC   C1A14732   8.810   4.398  13.757  0.1598 -0.0067 -0.0646
12033DOPC   D2A14733   9.044   4.655  13.390 -0.0590  0.1658  0.0667
12033DOPC   C3A14734   9.169   4.589  12.957  0.1015  0.2442 -0.1993
12033DOPC   C4A14735   9.159   4.524  12.471 -0.0044 -0.3804  0.2424
12033DOPC   C1B14736   8.125   4.323  13.774 -0.2965 -0.2282  0.4048
12033DOPC   D2B14737   7.636   4.203  13.641  0.0001  0.0060  0.1977
12033DOPC   C3B14738   7.539   3.733  13.378 -0.1207 -0.2115  0.1277
12033DOPC   C4B14739   7.381   3.419  13.071 -0.0584 -0.1545 -0.1949
12034DOPC   NC314740  22.493   3.964  21.997 -0.3121 -0.0843  0.1556
12034DOPC   PO414741  22.460   3.736  21.656  0.2227 -0.5039 -0.2514
12034DOPC   GL114742  22.064   3.769  21.488 -0.1131 -0.0846  0.3190
12034DOPC   GL214743  22.151   3.695  21.251 -0.1990 -0.3511 -0.0922
12034DOPC   C1A14744  21.879   4.118  21.332 -0.0441  0.1480 -0.0545
12034DOPC   D2A14745  21.656   4.429  21.051 -0.0651 -0.1691 -0.0638
12034DOPC   C3A14746  21.425   4.537  20.605  0.0841 -0.0028  0.1384
12034DOPC   C4A14747  21.389   4.862  20.251  0.2093  0.0909  0.1428
12034DOPC   C1B14748  22.093   3.653  20.820 -0.0906 -0.0975 -0.1071
12034DOPC   D2B14749  22.110   3.816  20.311  0.0199  0.1542  0.1532
12034DOPC   C3B14750  22.184   3.880  19.869  0.0433 -0.2488 -0.2429
12034DOPC   C4B14751  22.232   3.973  19.387  0.0975  0.1384  0.0706
12035DOPC   NC314752   8.012   3.484  14.234  0.0896 -0.0253 -0.0478
12035DOPC   PO414753   8.344   3.429  14.457 -0.1338 -0.1353 -0.1808
12035DOPC   GL114754   8.716   3.737  14.352  0.1163  0.0913 -0.2895
12035DOPC   GL214755   8.851   3.552  14.436  0.0085  0.4331  0.1720
12035DOPC   C1A14756   9.040   3.906  14.004 -0.1923  0.2529 -0.1467
12035DOPC   D2A14757   9.270   3.689  13.606  0.4080 -0.0278 -0.1532
12035DOPC   C3A14758   9.272   3.496  13.162 -0.1906 -0.1732 -0.2117
12035DOPC   C4A14759   9.297   3.397  12.668  0.0472 -0.1144  0.2553
12035DOPC   C1B14760   8.848   3.288  13.999 -0.1466 -0.2146 -0.2041
12035DOPC   D2B14761   8.789   3.324  13.532  0.0001  0.0443  0.0515
12035DOPC   C3B14762   8.917   3.137  13.106  0.2629  0.0956  0.0906
12035DOPC   C4B14763   8.767   2.920  12.755 -0.2450  0.3621 -0.4057
12036DOPC   NC314764   1.802   1.920  17.508  0.1466 -0.1296  0.2097
12036DOPC   PO414765   1.629   2.182  17.811  0.0822 -0.0141  0.1423
12036DOPC   GL114766   1.304   2.137  17.654 -0.0722  0.1026 -0.1800
12036DOPC   GL214767   1.270   1.863  17.560  0.1800  0.1233 -0.0332
12036DOPC   C1A14768   1.255   2.392  17.327 -0.3285 -0.1531 -0.3661
12036DOPC   D2A14769   1.060   2.657  17.024  0.1836  0.1942 -0.0878
12036DOPC   C3A14770   0.629   2.738  17.152  0.0107 -0.1596 -0.3319
12036DOPC   C4A14771   0.174   2.674  17.222 -0.1560  0.0490 -0.0600
12036DOPC   C1B14772   0.834   1.786  17.476 -0.0313 -0.0995  0.0875
12036DOPC   D2B14773   0.318   1.763  17.340 -0.2031  0.1067  0.0105
12036DOPC   C3B14774   0.079   2.130  17.183  0.0362  0.0261  0.0254
12036DOPC   C4B14775  -0.291   2.436  16.983 -0.1140  0.2560  0.1381
12037DOPC   NC314776  25.097   2.586  19.442 -0.0009 -0.1449  0.2415
12037DOPC   PO414777  24.956   2.360  19.120  0.1023 -0.1655  0.1225
12037DOPC   GL114778  24.726   2.433  18.806 -0.0695  0.3217  0.1842
12037DOPC   GL214779  24.895   2.426  18.522 -0.1627  0.2867 -0.2498
12037DOPC   C1A14780  24.266   2.422  18.680 -0.2214 -0.1598  0.0197
12037DOPC   D2A14781  23.893   2.716  18.555 -0.1547 -0.2527 -0.0108
12037DOPC   C3A14782  23.998   3.174  18.379  0.0156  0.4945 -0.1208
12037DOPC   C4A14783  23.905   3.660  18.397 -0.2767  0.1160  0.1295
12037DOPC   C1B14784  24.620   2.439  18.125 -0.3214  0.0387  0.1654
12037DOPC   D2B14785  24.349   2.397  17.736  0.3269 -0.0102 -0.0655
12037DOPC   C3B14786  24.263   1.942  17.580  0.1182 -0.1429  0.1544
12037DOPC   C4B14787  23.965   1.511  17.415 -0.0264 -0.0822 -0.0233
12038DOPC   NC314788   2.568   5.355  16.996 -0.3374  0.3778 -0.1797
12038DOPC   PO414789   2.433   5.046  16.794  0.3229 -0.0467 -0.0767
12038DOPC   GL114790   2.183   5.123  16.568 -0.0202  0.0375  0.1392
12038DOPC   GL214791   2.256   5.218  16.354  0.3539  0.5940 -0.1592
12038DOPC   C1A14792   1.755   5.204  16.595  0.1911  0.1539  0.2255
12038DOPC   D2A14793   1.387   5.179  16.319  0.2350 -0.1483 -0.2769
12038DOPC   C3A14794   0.941   5.220  16.149  0.3355  0.1522  0.0235
12038DOPC   C4A14795   0.478   5.080  16.061 -0.0452  0.0645  0.0891
12038DOPC   C1B14796   1.965   5.239  16.067 -0.0601  0.1536 -0.1244
12038DOPC   D2B14797   1.566   5.401  15.878 -0.1718 -0.1359 -0.2896
12038DOPC   C3B14798   1.172   5.506  15.717 -0.4121  0.0260 -0.0681
12038DOPC   C4B14799   0.729   5.598  15.700  0.1226 -0.2263  0.5374
12039DOPC   NC314800   9.723   2.717  15.220  0.1988 -0.2376  0.0938
12039DOPC   PO414801  10.023   2.902  15.426  0.0081  0.0381  0.1326
12039DOPC   GL114802  10.421   2.791  15.313  0.1661 -0.2488 -0.0212
12039DOPC   GL214803  10.451   3.104  15.249 -0.2659 -0.0480  0.3494
12039DOPC   C1A14804  10.704   2.409  15.274 -0.1889 -0.2662  0.2255
12039DOPC   D2A14805  11.078   2.142  15.156 -0.0730 -0.0438  0.0441
12039DOPC   C3A14806  11.085   1.680  15.046  0.0623  0.1636  0.0823
12039DOPC   C4A14807  11.435   1.424  14.815  0.1725 -0.0749 -0.0682
12039DOPC   C1B14808  10.530   3.263  14.881  0.1819  0.2671 -0.0065
12039DOPC   D2B14809  10.742   3.018  14.530 -0.0899  0.2571  0.3023
12039DOPC   C3B14810  10.905   3.066  14.095 -0.1031 -0.4605 -0.1282
12039DOPC   C4B14811  11.057   3.337  13.762 -0.0110  0.0155 -0.0519
12040DOPC   NC314812   3.151   2.161  16.811  0.2560 -0.0603  0.2781
12040DOPC   PO414813   2.925   1.855  16.668  0.1992 -0.2626 -0.1359
12040DOPC   GL114814   2.496   1.955  16.504 -0.1987  0.0876  0.0435
12040DOPC   GL214815   2.620   2.037  16.256  0.1616 -0.5736  0.0496
12040DOPC   C1A14816   2.096   2.155  16.566 -0.1336  0.0328  0.0116
12040DOPC   D2A14817   1.825   2.497  16.488  0.2505 -0.0455  0.0763
12040DOPC   C3A14818   1.447   2.685  16.321 -0.4066 -0.1549 -0.2558
12040DOPC   C4A14819   0.993   2.802  16.368 -0.0683 -0.2046 -0.1750
12040DOPC   C1B14820   2.316   2.246  16.052 -0.1406  0.2714 -0.3654
12040DOPC   D2B14821   1.855   2.437  15.984  0.1841 -0.0306 -0.1158
12040DOPC   C3B14822   1.634   2.403  15.600  0.0192  0.3484  0.0296
12040DOPC   C4B14823   1.505   2.706  15.303 -0.1267 -0.0005 -0.1434
12041DOPC   NC314824  12.080   7.239  18.019 -0.0809 -0.1642 -0.3231
12041DOPC   PO414825  12.182   7.577  18.247 -0.5369  0.1100  0.0637
12041DOPC   GL114826  12.471   7.813  18.119 -0.2332  0.0913  0.0230
12041DOPC   GL214827  12.657   7.688  18.348  0.1975  0.2225 -0.2609
12041DOPC   C1A14828  12.581   8.087  17.793 -0.1333 -0.1061 -0.3138
12041DOPC   D2A14829  12.705   8.494  17.452 -0.2016  0.1581  0.1045
12041DOPC   C3A14830  13.051   8.307  17.267 -0.2708 -0.0966  0.1076
12041DOPC   C4A14831  13.559   8.238  17.179  0.3026 -0.0343  0.3079
12041DOPC   C1B14832  13.093   7.775  18.294 -0.1963  0.0900 -0.0786
12041DOPC   D2B14833  13.556   7.925  18.087  0.1244 -0.1321  0.0071
12041DOPC   C3B14834  14.034   8.056  18.134  0.4501  0.0159  0.1849
12041DOPC   C4B14835  14.534   8.163  18.025 -0.1561  0.2576 -0.0221
12042DOPC   NC314836  12.075   0.621  18.612 -0.2964 -0.0212 -0.0710
12042DOPC   PO414837  12.296   0.543  18.942 -0.0053 -0.1193 -0.0004
12042DOPC   GL114838  12.660   0.577  18.707  0.2329  0.1885 -0.0000
12042DOPC   GL214839  12.649   0.815  18.560  0.2027  0.2808 -0.0550
12042DOPC   C1A14840  13.004   0.344  18.785 -0.5821  0.1416  0.2789
12042DOPC   D2A14841  13.481   0.151  18.656  0.0587 -0.1458  0.0214
12042DOPC   C3A14842  13.902   0.020  18.541  0.0583 -0.2340 -0.3079
12042DOPC   C4A14843  14.363  -0.056  18.400  0.0763 -0.0252  0.4303
12042DOPC   C1B14844  12.967   0.929  18.255 -0.1928  0.0608  0.4137
12042DOPC   D2B14845  13.343   1.073  17.958 -0.0292 -0.2421  0.0813
12042DOPC   C3B14846  13.708   1.332  18.042 -0.0356 -0.0984  0.0970
12042DOPC   C4B14847  14.145   1.493  17.896  0.0066  0.3607 -0.2220
12043DOPC   NC314848  13.403   2.418  20.257 -0.4897 -0.2294  0.2870
12043DOPC   PO414849  13.325   2.612  19.943 -0.0780 -0.1042  0.0031
12043DOPC   GL114850  13.591   2.533  19.586  0.0650  0.2139 -0.2742
12043DOPC   GL214851  13.594   2.271  19.582 -0.4129 -0.0963  0.1387
12043DOPC   C1A14852  13.944   2.771  19.495 -0.1497 -0.1177 -0.0942
12043DOPC   D2A14853  14.407   2.728  19.329 -0.2333  0.1521  0.2774
12043DOPC   C3A14854  14.550   2.890  18.823 -0.1004  0.1342  0.1345
12043DOPC   C4A14855  14.785   2.882  18.456  0.1323  0.2387 -0.0018
12043DOPC   C1B14856  13.996   2.149  19.592  0.1609  0.2672  0.1286
12043DOPC   D2B14857  14.336   1.896  19.716 -0.1553  0.1559  0.1662
12043DOPC   C3B14858  14.291   1.767  19.271 -0.1026 -0.1451  0.0054
12043DOPC   C4B14859  14.511   1.615  18.863 -0.0282 -0.1390  0.1478
12044DOPC   NC314860   1.084   5.802  18.274  0.0452 -0.0609  0.0493
12044DOPC   PO414861   0.770   5.697  18.476 -0.3223  0.3243  0.1621
12044DOPC   GL114862   0.510   5.492  18.276 -0.0618  0.1599  0.1632
12044DOPC   GL214863   0.246   5.574  18.326 -0.0458  0.2921 -0.2541
12044DOPC   C1A14864   0.489   5.116  18.007  0.3557 -0.1091  0.3390
12044DOPC   D2A14865   0.163   4.829  17.707  0.2532 -0.1904  0.1146
12044DOPC   C3A14866   0.117   4.560  17.317  0.0674 -0.0831 -0.0124
12044DOPC   C4A14867  -0.209   4.554  16.994  0.1435  0.1086 -0.3486
12044DOPC   C1B14868  -0.037   5.720  18.021  0.1551  0.1186 -0.0476
12044DOPC   D2B14869  -0.349   5.700  17.627  0.0062 -0.1823  0.1931
12044DOPC   C3B14870  -0.803   5.672  17.476 -0.0556  0.1374  0.0503
12044DOPC   C4B14871  -1.172   5.788  17.216  0.1468  0.2483 -0.0672
12045DOPC   NC314872   5.290   1.064  14.349 -0.0231  0.1635  0.3434
12045DOPC   PO414873   5.381   1.247  14.044  0.2713 -0.0041 -0.1074
12045DOPC   GL114874   5.484   1.173  13.590  0.0534  0.0398 -0.0400
12045DOPC   GL214875   5.222   1.209  13.623 -0.3400  0.0563  0.2243
12045DOPC   C1A14876   5.566   1.185  13.180  0.0694  0.0196 -0.2720
12045DOPC   D2A14877   5.610   1.252  12.737 -0.2048 -0.1158 -0.0772
12045DOPC   C3A14878   5.549   1.633  12.466  0.0818  0.0660 -0.1104
12045DOPC   C4A14879   5.306   1.979  12.385 -0.2423 -0.2034 -0.1975
12045DOPC   C1B14880   5.134   0.792  13.387  0.1101  0.0633  0.1239
12045DOPC   D2B14881   5.105   0.270  13.299 -0.6259 -0.0559 -0.2280
12045DOPC   C3B14882   4.743   0.093  13.084  0.1124  0.0499 -0.1886
12045DOPC   C4B14883   4.688  -0.351  13.349  0.1009  0.2136  0.0339
12046DOPC   NC314884  24.689   6.065  19.812  0.1591  0.1141  0.1141
12046DOPC   PO414885  24.722   6.440  19.935 -0.3864  0.1247  0.0838
12046DOPC   GL114886  24.751   6.656  19.493  0.1036  0.1156  0.0913
12046DOPC   GL214887  24.725   6.336  19.439 -0.0632 -0.0054 -0.0274
12046DOPC   C1A14888  24.628   6.771  19.048  0.0236  0.1040 -0.1995
12046DOPC   D2A14889  24.413   6.848  18.560  0.0195  0.0351 -0.2665
12046DOPC   C3A14890  24.137   6.974  18.214 -0.2694 -0.0488 -0.1119
12046DOPC   C4A14891  23.825   7.072  17.821 -0.1317 -0.1396  0.0268
12046DOPC   C1B14892  24.367   6.311  19.094  0.4678  0.3096 -0.1201
12046DOPC   D2B14893  24.052   6.558  18.886 -0.1394 -0.1489  0.3156
12046DOPC   C3B14894  23.853   6.637  18.516  0.0654  0.1943 -0.0772
12046DOPC   C4B14895  23.626   6.692  18.119 -0.0787 -0.2506  0.2193
12047DOPC   NC314896  22.125   1.958  21.914  0.2267  0.0171 -0.0758
12047DOPC   PO414897  22.357   1.999  21.587 -0.0238 -0.1245 -0.0871
12047DOPC   GL114898  22.081   1.958  21.335  0.2261  0.3845 -0.1372
12047DOPC   GL214899  21.812   1.962  21.534 -0.1921  0.4965 -0.0843
12047DOPC   C1A14900  21.885   1.858  20.928 -0.0838 -0.1470 -0.0095
12047DOPC   D2A14901  21.689   1.448  20.665  0.3152  0.0670 -0.1954
12047DOPC   C3A14902  21.495   1.583  20.254  0.0559  0.1923 -0.2652
12047DOPC   C4A14903  21.464   1.691  19.738 -0.2339 -0.0946  0.2105
12047DOPC   C1B14904  21.377   2.142  21.427  0.2362  0.1408 -0.1437
12047DOPC   D2B14905  20.986   2.253  21.242 -0.2666  0.4940  0.1241
12047DOPC   C3B14906  21.065   2.320  20.716 -0.0199  0.1977 -0.0213
12047DOPC   C4B14907  21.299   2.043  20.428 -0.0227 -0.1432 -0.2120
12048DOPC   NC314908   0.083   7.628  19.049  0.1542 -0.0068 -0.0344
12048DOPC   PO414909   0.264   7.938  18.904  0.0181 -0.1281  0.0197
12048DOPC   GL114910   0.250   7.915  18.468  0.4637  0.3214  0.1985
12048DOPC   GL214911   0.280   7.618  18.528  0.2491 -0.0224  0.2344
12048DOPC   C1A14912  -0.023   8.050  18.187  0.2286 -0.2070 -0.1903
12048DOPC   D2A14913  -0.346   8.054  17.833 -0.0521 -0.2376  0.0234
12048DOPC   C3A14914  -0.734   7.960  17.668 -0.0829 -0.0628  0.3081
12048DOPC   C4A14915  -0.991   7.676  17.374 -0.3205  0.2367  0.1710
12048DOPC   C1B14916   0.076   7.531  18.051  0.0939 -0.0703 -0.0966
12048DOPC   D2B14917  -0.094   7.347  17.601 -0.1728  0.1053 -0.0088
12048DOPC   C3B14918   0.084   7.031  17.281 -0.3722 -0.3520  0.0014
12048DOPC   C4B14919  -0.016   6.613  17.083  0.0374 -0.0791  0.0491
12049DOPC   NC314920  10.162   7.828  16.032  0.3110 -0.0976  0.0023
12049DOPC   PO414921   9.806   7.883  15.933  0.2277 -0.0769  0.3872
12049DOPC   GL114922   9.955   7.824  15.588  0.4021 -0.1414  0.0865
12049DOPC   GL214923   9.792   7.886  15.386 -0.1356  0.0567 -0.1421
12049DOPC   C1A14924  10.268   7.725  15.307  0.0605  0.3240 -0.0203
12049DOPC   D2A14925  10.573   7.790  14.972  0.1665  0.1733 -0.0829
12049DOPC   C3A14926  10.731   8.113  14.680 -0.0985  0.3058 -0.4798
12049DOPC   C4A14927  10.913   8.456  14.338 -0.0889  0.3052  0.0011
12049DOPC   C1B14928  10.002   8.019  15.048 -0.1391  0.1868  0.1083
12049DOPC   D2B14929  10.179   8.073  14.586 -0.1263  0.0271  0.1513
12049DOPC   C3B14930   9.923   8.271  14.206 -0.0149  0.1783 -0.1204
12049DOPC   C4B14931   9.553   8.424  13.916 -0.0945  0.0506 -0.2262
12050DOPC   NC314932   5.411   1.995  14.719 -0.0182  0.1676 -0.0471
12050DOPC   PO414933   5.692   2.121  14.494 -0.0013 -0.0653  0.0174
12050DOPC   GL114934   5.905   2.321  14.149  0.2413  0.3379 -0.2721
12050DOPC   GL214935   5.835   2.027  14.059 -0.0928  0.1403  0.0511
12050DOPC   C1A14936   5.858   2.424  13.749 -0.2422  0.3919 -0.0813
12050DOPC   D2A14937   5.656   2.347  13.323  0.0981 -0.0788 -0.3350
12050DOPC   C3A14938   5.346   2.135  13.041  0.0991 -0.1460  0.1721
12050DOPC   C4A14939   4.977   2.005  12.740  0.0729  0.1482  0.1913
12050DOPC   C1B14940   5.495   2.035  13.770  0.0535 -0.0668 -0.1774
12050DOPC   D2B14941   5.159   2.304  13.531 -0.0626  0.1268  0.0662
12050DOPC   C3B14942   4.968   2.547  13.175 -0.0464 -0.1645  0.1168
12050DOPC   C4B14943   4.737   2.541  12.768  0.4112  0.0087 -0.0867
12051DOPC   NC314944  13.988   4.526  21.051 -0.0145 -0.1758 -0.2998
12051DOPC   PO414945  14.085   4.775  21.342  0.1149 -0.0922 -0.0094
12051DOPC   GL114946  14.544   4.851  21.176  0.3471  0.1271 -0.4611
12051DOPC   GL214947  14.457   4.736  20.959  0.0999  0.2403  0.3658
12051DOPC   C1A14948  14.881   4.967  20.940  0.0240 -0.0352 -0.3062
12051DOPC   D2A14949  14.996   5.239  20.504 -0.1170  0.0895 -0.2317
12051DOPC   C3A14950  14.836   5.516  20.136 -0.2476 -0.0919  0.0902
12051DOPC   C4A14951  14.804   6.019  19.911 -0.0326 -0.0695  0.0813
12051DOPC   C1B14952  14.606   4.945  20.575 -0.3787  0.2415 -0.1361
12051DOPC   D2B14953  14.718   5.038  20.073 -0.0933 -0.0860 -0.1975
12051DOPC   C3B14954  14.991   5.153  19.721  0.0107 -0.2342 -0.2334
12051DOPC   C4B14955  15.158   5.395  19.329 -0.2595  0.2109  0.1783
12052DOPC   NC314956   9.428   4.844  14.376 -0.0881  0.0451 -0.3166
12052DOPC   PO414957   9.252   4.532  14.330 -0.1630  0.0558 -0.0529
12052DOPC   GL114958   9.283   4.462  13.889  0.0049  0.4282 -0.1786
12052DOPC   GL214959   9.485   4.678  13.767  0.1720 -0.1813 -0.1415
12052DOPC   C1A14960   9.379   4.237  13.554 -0.0807 -0.0342 -0.0741
12052DOPC   D2A14961   9.207   4.048  13.090 -0.0220 -0.3886 -0.1321
12052DOPC   C3A14962   9.602   3.818  13.018 -0.0673 -0.1404  0.1312
12052DOPC   C4A14963  10.045   3.641  13.062  0.1498  0.3470  0.0423
12052DOPC   C1B14964   9.532   4.682  13.379 -0.0649 -0.0344  0.1750
12052DOPC   D2B14965   9.692   4.684  12.948 -0.0593 -0.0525  0.1538
12052DOPC   C3B14966   9.565   4.231  12.698 -0.0126 -0.2984 -0.0105
12052DOPC   C4B14967   9.190   3.873  12.507  0.0185  0.3071  0.0247
12053DOPC   NC314968  11.268   4.565  17.209  0.0083 -0.1283 -0.2158
12053DOPC   PO414969  11.357   4.217  17.022  0.2123 -0.2980  0.1975
12053DOPC   GL114970  11.521   3.838  17.076 -0.0415 -0.6377 -0.1108
12053DOPC   GL214971  11.535   3.860  16.781  0.1279 -0.1014  0.0628
12053DOPC   C1A14972  11.948   3.772  17.086  0.2438  0.0748  0.1077
12053DOPC   D2A14973  12.472   3.794  17.092 -0.1154  0.2458  0.1153
12053DOPC   C3A14974  12.672   3.713  17.564  0.1421 -0.0248 -0.1574
12053DOPC   C4A14975  12.899   3.789  18.012 -0.2066  0.2195 -0.0272
12053DOPC   C1B14976  11.865   3.734  16.556 -0.2592  0.1964 -0.2300
12053DOPC   D2B14977  12.306   3.827  16.397  0.0120 -0.0161  0.0457
12053DOPC   C3B14978  12.483   4.244  16.237  0.1745  0.1279  0.1483
12053DOPC   C4B14979  12.641   4.449  15.810 -0.0743  0.1640 -0.0067
12054DOPC   NC314980  20.160   2.631  22.048  0.2718 -0.0214  0.1499
12054DOPC   PO414981  20.075   2.259  22.190  0.0470  0.0143 -0.0736
12054DOPC   GL114982  19.823   1.940  21.866  0.1601 -0.0711  0.1256
12054DOPC   GL214983  19.655   2.185  21.839 -0.1396  0.1656 -0.0718
12054DOPC   C1A14984  19.667   1.522  21.710  0.1985 -0.0630 -0.4068
12054DOPC   D2A14985  19.350   1.119  21.783 -0.1547 -0.1203 -0.1409
12054DOPC   C3A14986  19.204   1.103  21.350 -0.1233 -0.0907  0.3859
12054DOPC   C4A14987  18.903   1.327  21.101  0.0797  0.1880 -0.0377
12054DOPC   C1B14988  19.875   2.501  21.618 -0.2018  0.0804 -0.2925
12054DOPC   D2B14989  20.251   2.875  21.646  0.0047  0.1383  0.2833
12054DOPC   C3B14990  20.375   3.085  21.262 -0.2866 -0.0578  0.1623
12054DOPC   C4B14991  20.777   3.106  21.055 -0.0843  0.1068 -0.1765
12055DOPC   NC314992  17.805   3.450  22.478 -0.2751 -0.4248  0.2434
12055DOPC   PO414993  18.143   3.677  22.462  0.0177 -0.0770 -0.1062
12055DOPC   GL114994  18.005   3.940  22.119 -0.0875  0.1740  0.1253
12055DOPC   GL214995  18.101   3.658  21.959 -0.0500  0.1901 -0.1515
12055DOPC   C1A14996  18.224   4.289  21.811  0.1008 -0.1279  0.2057
12055DOPC   D2A14997  18.635   4.530  21.546  0.0525 -0.0842 -0.2407
12055DOPC   C3A14998  18.670   5.048  21.475 -0.0241  0.2380 -0.0485
12055DOPC   C4A14999  18.878   5.450  21.278 -0.1622 -0.0441  0.5819
12055DOPC   C1B15000  17.808   3.681  21.656 -0.2801  0.0334  0.3633
12055DOPC   D2B15001  17.827   3.603  21.170 -0.2749 -0.1739 -0.2215
12055DOPC   C3B15002  17.697   3.680  20.690  0.3540 -0.0217 -0.0601
12055DOPC   C4B15003  17.826   3.904  20.288  0.1390  0.2148 -0.0044
12056DOPC   NC315004  15.306   1.341  21.404  0.1235  0.2767 -0.1312
12056DOPC   PO415005  15.331   1.688  21.243  0.2393  0.0719  0.0046
12056DOPC   GL115006  15.510   1.647  20.932 -0.1484 -0.0805 -0.3462
12056DOPC   GL215007  15.558   1.322  20.981  0.3676  0.1090 -0.0555
12056DOPC   C1A15008  15.858   1.800  20.774  0.2167 -0.0090 -0.4293
12056DOPC   D2A15009  16.038   2.206  20.528  0.0588  0.0197 -0.1976
12056DOPC   C3A15010  16.358   2.246  20.200 -0.0374 -0.0294 -0.0643
12056DOPC   C4A15011  16.610   2.176  19.862  0.1509  0.0735  0.2010
12056DOPC   C1B15012  16.018   1.335  20.986 -0.0331 -0.1473 -0.0300
12056DOPC   D2B15013  16.261   1.310  20.552 -0.1784  0.0606  0.0535
12056DOPC   C3B15014  16.167   1.204  20.148 -0.1440 -0.1757 -0.0594
12056DOPC   C4B15015  16.284   1.249  19.748 -0.2319 -0.1421  0.1443
12057DOPC   NC315016   9.256   7.046  15.306  0.0678  0.1409  0.0659
12057DOPC   PO415017   9.034   6.742  15.108  0.1357 -0.0969 -0.1500
12057DOPC   GL115018   9.047   6.396  14.804 -0.1172  0.1558 -0.4714
12057DOPC   GL215019   9.245   6.303  15.005 -0.0458  0.1173  0.2746
12057DOPC   C1A15020   9.036   6.469  14.396  0.1347 -0.0051  0.0351
12057DOPC   D2A15021   8.872   6.637  13.991 -0.0162 -0.1510 -0.1708
12057DOPC   C3A15022   9.096   6.674  13.582 -0.2106 -0.0487 -0.1935
12057DOPC   C4A15023   9.403   6.768  13.189 -0.0403  0.2794 -0.0691
12057DOPC   C1B15024   9.671   6.461  14.883 -0.0205 -0.3129 -0.0536
12057DOPC   D2B15025  10.113   6.494  15.027 -0.1155 -0.1495  0.2420
12057DOPC   C3B15026  10.434   6.166  15.136  0.3589 -0.0595  0.2208
12057DOPC   C4B15027  10.764   5.842  15.070  0.2844  0.0728  0.1946
12058DOPC   NC315028  12.678   3.454  19.355 -0.0554 -0.1153  0.1399
12058DOPC   PO415029  12.986   3.661  19.252  0.1087  0.1207  0.0705
12058DOPC   GL115030  13.207   3.820  18.948  0.1139  0.2605  0.2394
12058DOPC   GL215031  13.366   3.965  19.179  0.2158 -0.3459  0.0527
12058DOPC   C1A15032  13.411   3.897  18.531  0.1572 -0.0256  0.1813
12058DOPC   D2A15033  13.819   4.104  18.254 -0.2778  0.0844  0.0845
12058DOPC   C3A15034  14.261   4.186  18.160  0.1174  0.2832 -0.3563
12058DOPC   C4A15035  14.685   4.432  18.118 -0.0493  0.1806  0.1320
12058DOPC   C1B15036  13.780   3.789  19.274 -0.0862  0.1985 -0.3864
12058DOPC   D2B15037  14.154   4.131  19.234  0.0262  0.1508 -0.2787
12058DOPC   C3B15038  14.621   4.073  19.305  0.3393  0.0265  0.3058
12058DOPC   C4B15039  15.059   3.819  19.259  0.0510  0.0054 -0.1942
12059DOPC   NC315040   0.878   0.875  19.499 -0.2556  0.0984  0.0586
12059DOPC   PO415041   0.880   0.973  19.086 -0.0194  0.2242 -0.3807
12059DOPC   GL115042   0.661   0.869  18.688 -0.1022  0.1626 -0.1420
12059DOPC   GL215043   0.808   1.072  18.553  0.1021  0.1918  0.1713
12059DOPC   C1A15044   0.263   1.066  18.629  0.1142  0.0920  0.1449
12059DOPC   D2A15045  -0.149   1.030  18.393  0.1777 -0.0005 -0.1255
12059DOPC   C3A15046  -0.313   0.555  18.288  0.1441  0.0296 -0.2061
12059DOPC   C4A15047  -0.548   0.212  18.336  0.2331  0.0981  0.2059
12059DOPC   C1B15048   0.631   1.238  18.223 -0.1002  0.2222 -0.0716
12059DOPC   D2B15049   0.164   1.128  18.022 -0.0563 -0.2881 -0.0067
12059DOPC   C3B15050   0.198   0.981  17.622  0.1103  0.2128 -0.2269
12059DOPC   C4B15051  -0.050   0.838  17.199 -0.2283  0.2409  0.0163
12060DOPC   NC315052   8.943   5.531  14.937 -0.2060 -0.1398  0.1596
12060DOPC   PO415053   8.890   5.482  14.536  0.0915  0.4578 -0.0267
12060DOPC   GL115054   9.327   5.601  14.478 -0.0453 -0.1690  0.1169
12060DOPC   GL215055   9.264   5.339  14.383 -0.1482  0.0160  0.1544
12060DOPC   C1A15056   9.536   5.796  14.145 -0.0953 -0.0292 -0.0149
12060DOPC   D2A15057   9.831   6.011  13.849  0.0879 -0.1464  0.0742
12060DOPC   C3A15058  10.074   6.292  13.578  0.0396 -0.0038  0.0712
12060DOPC   C4A15059  10.453   6.561  13.394  0.1540  0.2224 -0.1397
12060DOPC   C1B15060   9.422   5.346  14.017  0.0307  0.1500  0.0527
12060DOPC   D2B15061   9.641   5.526  13.534 -0.0722 -0.0779 -0.1458
12060DOPC   C3B15062   9.679   5.171  13.296 -0.1113  0.2686  0.0543
12060DOPC   C4B15063   9.705   5.175  12.794 -0.2126  0.1647 -0.0233
12061DOPC   NC315064  18.798   0.305  22.434 -0.1204  0.0377  0.3130
12061DOPC   PO415065  18.483   0.520  22.293 -0.0778 -0.1669  0.1262
12061DOPC   GL115066  18.401   0.714  21.947 -0.0016  0.1210 -0.1325
12061DOPC   GL215067  18.220   0.454  21.851  0.0583 -0.0763  0.1603
12061DOPC   C1A15068  18.299   1.124  21.741 -0.1230  0.0262  0.1626
12061DOPC   D2A15069  18.026   1.398  21.454 -0.2534  0.2253  0.0069
12061DOPC   C3A15070  18.098   1.323  21.002  0.1601  0.1371  0.0654
12061DOPC   C4A15071  17.927   1.127  20.615  0.5332 -0.0711 -0.0400
12061DOPC   C1B15072  18.284   0.500  21.438  0.1886  0.3619  0.4456
12061DOPC   D2B15073  18.332   0.369  20.984 -0.0622 -0.2632 -0.2861
12061DOPC   C3B15074  18.032   0.231  20.709 -0.1684  0.1135  0.3868
12061DOPC   C4B15075  17.718   0.287  20.329  0.0680  0.2772 -0.2209
12062DOPC   NC315076   2.737   5.804  16.924 -0.1096 -0.0112  0.1149
12062DOPC   PO415077   2.931   5.527  16.727  0.0973  0.0153  0.0755
12062DOPC   GL115078   2.576   5.688  16.509  0.0076 -0.1182  0.3549
12062DOPC   GL215079   2.384   5.609  16.675 -0.1526 -0.4470  0.1176
12062DOPC   C1A15080   2.544   5.625  16.165  0.0085  0.3273 -0.0313
12062DOPC   D2A15081   2.369   5.466  15.690  0.0163  0.1092 -0.2937
12062DOPC   C3A15082   1.935   5.610  15.625 -0.2551  0.0762  0.0098
12062DOPC   C4A15083   1.498   5.766  15.378  0.1671  0.0016 -0.2763
12062DOPC   C1B15084   1.961   5.624  16.509  0.1712 -0.2198  0.0506
12062DOPC   D2B15085   1.434   5.635  16.503 -0.2597  0.1029 -0.3536
12062DOPC   C3B15086   0.978   5.740  16.291 -0.2630  0.0285  0.1916
12062DOPC   C4B15087   0.610   6.146  16.335  0.0946 -0.0206  0.3188
12063DOPC   NC315088  13.428   0.294  19.962 -0.1282  0.0812  0.0864
12063DOPC   PO415089  13.581   0.219  20.327 -0.0250 -0.2249  0.2083
12063DOPC   GL115090  13.849  -0.056  20.120  0.2994 -0.3285 -0.2939
12063DOPC   GL215091  13.660  -0.204  20.042  0.1858  0.1012  0.0249
12063DOPC   C1A15092  14.038  -0.331  19.847 -0.1201  0.1480  0.0036
12063DOPC   D2A15093  14.556  -0.349  19.783  0.0633 -0.1873  0.3311
12063DOPC   C3A15094  14.919  -0.492  19.467 -0.1502 -0.0965 -0.0582
12063DOPC   C4A15095  15.050  -0.598  19.018  0.2435 -0.0014 -0.2898
12063DOPC   C1B15096  13.623  -0.094  19.645 -0.0983  0.0761  0.0160
12063DOPC   D2B15097  13.569  -0.105  19.162  0.2416  0.2757  0.1591
12063DOPC   C3B15098  13.861  -0.385  18.935 -0.0914  0.3904 -0.1361
12063DOPC   C4B15099  14.284  -0.432  18.691 -0.1292 -0.1209  0.2155
12064DOPC   NC315100   8.828   2.179  14.498 -0.1867 -0.2186 -0.0484
12064DOPC   PO415101   8.632   2.460  14.740  0.3205  0.2401  0.1119
12064DOPC   GL115102   8.929   2.684  14.536 -0.0633 -0.0210 -0.0538
12064DOPC   GL215103   8.774   2.577  14.299 -0.1266  0.2082  0.3310
12064DOPC   C1A15104   9.316   2.526  14.383  0.0535  0.1285  0.0154
12064DOPC   D2A15105   9.610   2.369  14.035  0.1807 -0.1196  0.1504
12064DOPC   C3A15106  10.025   2.490  13.789  0.1690 -0.1668 -0.1106
12064DOPC   C4A15107  10.309   2.711  13.471 -0.0101  0.2128 -0.2204
12064DOPC   C1B15108   8.794   2.444  13.834 -0.1736 -0.1148 -0.1072
12064DOPC   D2B15109   9.065   2.302  13.443  0.0409  0.1971  0.1731
12064DOPC   C3B15110   9.436   1.955  13.196  0.0886  0.0530  0.0325
12064DOPC   C4B15111   9.844   1.573  13.260  0.1226  0.1510 -0.0292
12065DOPC   NC315112  15.007   3.045  21.746  0.1509 -0.2662  0.0339
12065DOPC   PO415113  15.401   3.102  21.738 -0.0675 -0.1108 -0.2156
12065DOPC   GL115114  15.609   3.094  21.335 -0.0780  0.0197 -0.1186
12065DOPC   GL215115  15.389   3.251  21.236  0.1323 -0.0649  0.1966
12065DOPC   C1A15116  16.006   2.999  21.116 -0.1736 -0.0939  0.1240
12065DOPC   D2A15117  16.433   2.988  20.865 -0.0629 -0.1203  0.1543
12065DOPC   C3A15118  16.547   3.135  20.474 -0.0725 -0.2242  0.1649
12065DOPC   C4A15119  16.631   3.178  20.013  0.1945  0.0128  0.0228
12065DOPC   C1B15120  15.762   3.403  20.955  0.0669 -0.1914  0.1854
12065DOPC   D2B15121  16.127   3.384  20.586 -0.2381 -0.0225 -0.1588
12065DOPC   C3B15122  16.176   3.510  20.090 -0.0307 -0.1904  0.0947
12065DOPC   C4B15123  16.550   3.611  19.729 -0.1216 -0.1423  0.0793
12066DOPC   NC315124   4.298   1.316  15.069  0.1171 -0.0114  0.1386
12066DOPC   PO415125   4.628   1.467  14.932  0.1618 -0.0126 -0.1439
12066DOPC   GL115126   4.453   1.598  14.548  0.2243  0.1820 -0.0072
12066DOPC   GL215127   4.184   1.434  14.622  0.0098 -0.5273  0.0611
12066DOPC   C1A15128   4.431   1.772  14.095  0.0602 -0.2026 -0.0814
12066DOPC   D2A15129   4.449   1.860  13.559 -0.0442 -0.0058 -0.0979
12066DOPC   C3A15130   4.088   1.638  13.401  0.1346  0.1164 -0.2170
12066DOPC   C4A15131   3.799   1.278  13.189 -0.1542 -0.0717 -0.1536
12066DOPC   C1B15132   3.975   1.020  14.609 -0.1912  0.0704  0.2118
12066DOPC   D2B15133   3.617   0.672  14.663 -0.0040  0.1229  0.2636
12066DOPC   C3B15134   3.538   0.678  14.232  0.3198  0.0836 -0.1858
12066DOPC   C4B15135   3.580   0.660  13.752 -0.0913  0.0869 -0.1204
12067DOPC   NC315136  16.650   5.918  21.956  0.2804 -0.0865  0.0480
12067DOPC   PO415137  17.025   6.082  22.056  0.4969 -0.1447 -0.0283
12067DOPC   GL115138  17.339   5.952  21.814 -0.0972  0.0877 -0.1241
12067DOPC   GL215139  17.198   6.034  21.587  0.0298  0.1281  0.0691
12067DOPC   C1A15140  17.548   5.610  21.744 -0.2516  0.3647  0.3484
12067DOPC   D2A15141  18.063   5.695  21.699  0.1204 -0.1290  0.1482
12067DOPC   C3A15142  18.372   5.492  21.352 -0.1515  0.3315  0.1029
12067DOPC   C4A15143  18.509   5.259  20.934 -0.1181  0.2716 -0.0977
12067DOPC   C1B15144  17.257   6.026  21.114 -0.0569 -0.1352  0.1109
12067DOPC   D2B15145  17.377   5.844  20.620 -0.0715  0.1891  0.2784
12067DOPC   C3B15146  17.782   5.576  20.603 -0.0197  0.0752  0.0215
12067DOPC   C4B15147  18.163   5.292  20.480  0.2457  0.1479 -0.0148
12068DOPC   NC315148   5.373   2.375  15.111 -0.1169  0.2629  0.0953
12068DOPC   PO415149   5.028   2.296  14.923  0.1321 -0.3891  0.1407
12068DOPC   GL115150   4.819   2.417  14.648  0.5441  0.0115  0.2620
12068DOPC   GL215151   4.982   2.393  14.360  0.0482 -0.0193 -0.1370
12068DOPC   C1A15152   4.483   2.642  14.559 -0.1374 -0.3740 -0.2263
12068DOPC   D2A15153   4.030   2.600  14.400 -0.1475 -0.0396 -0.0818
12068DOPC   C3A15154   3.909   2.525  13.966  0.2626 -0.0154  0.0485
12068DOPC   C4A15155   3.502   2.560  13.657 -0.0840 -0.0911  0.1629
12068DOPC   C1B15156   4.702   2.536  14.109 -0.2600  0.1859  0.0081
12068DOPC   D2B15157   4.335   2.772  14.005  0.1288 -0.4231  0.0038
12068DOPC   C3B15158   4.097   2.868  13.658 -0.0468  0.1183 -0.0741
12068DOPC   C4B15159   3.777   2.779  13.309 -0.2538 -0.0504  0.0304
12069DOPC   NC315160   9.473   0.367  16.190 -0.0097 -0.0172  0.3006
12069DOPC   PO415161   9.562   0.643  15.919 -0.1887  0.0576 -0.2478
12069DOPC   GL115162   9.802   0.419  15.613 -0.3966 -0.0808 -0.1344
12069DOPC   GL215163  10.050   0.408  15.859 -0.1495  0.0629 -0.0401
12069DOPC   C1A15164   9.989   0.637  15.278  0.1773  0.0975  0.0458
12069DOPC   D2A15165  10.260   0.872  14.875  0.0886 -0.0052 -0.0029
12069DOPC   C3A15166  10.433   0.691  14.492 -0.3280  0.1718  0.3187
12069DOPC   C4A15167  10.514   0.422  14.151  0.1727  0.0461 -0.2914
12069DOPC   C1B15168  10.292   0.298  15.525  0.2112 -0.0605  0.2011
12069DOPC   D2B15169  10.552   0.444  15.114  0.1973 -0.1173 -0.4245
12069DOPC   C3B15170  10.746   0.754  14.885  0.0109 -0.1343  0.2759
12069DOPC   C4B15171  10.968   1.137  14.721  0.3262 -0.2650 -0.0748
12070DOPC   NC315172  20.611   3.449  22.097  0.1291 -0.0768 -0.1369
12070DOPC   PO415173  20.969   3.563  22.108  0.0368  0.3783 -0.1681
12070DOPC   GL115174  20.909   3.540  21.719  0.0408 -0.2053  0.0811
12070DOPC   GL215175  21.196   3.475  21.588 -0.0076  0.3018  0.0907
12070DOPC   C1A15176  20.674   3.516  21.371  0.0111  0.2350 -0.0992
12070DOPC   D2A15177  20.479   3.419  20.889 -0.1667  0.0868 -0.0512
12070DOPC   C3A15178  20.079   3.409  21.031  0.0510  0.2934  0.3534
12070DOPC   C4A15179  19.635   3.185  21.005 -0.0914  0.1889 -0.0562
12070DOPC   C1B15180  21.126   3.505  21.175  0.1548 -0.2705  0.0610
12070DOPC   D2B15181  20.985   3.751  20.735  0.3102 -0.1030  0.2287
12070DOPC   C3B15182  20.590   3.816  20.435  0.0664 -0.0747  0.0443
12070DOPC   C4B15183  20.260   4.046  20.149 -0.0688 -0.1586  0.2734
12071DOPC   NC315184  20.384   7.591  21.777 -0.0523  0.0514 -0.2092
12071DOPC   PO415185  20.675   7.327  21.846 -0.1611  0.0325  0.0290
12071DOPC   GL115186  20.647   7.094  21.495 -0.0258  0.1447  0.0803
12071DOPC   GL215187  20.386   7.218  21.440 -0.1669  0.1462 -0.1863
12071DOPC   C1A15188  20.959   7.187  21.179 -0.1880 -0.1048 -0.2370
12071DOPC   D2A15189  21.233   7.144  20.904 -0.0246  0.3173  0.4449
12071DOPC   C3A15190  20.912   7.143  20.551 -0.0136  0.0690  0.0262
12071DOPC   C4A15191  20.898   6.935  20.114 -0.2087  0.2543 -0.1244
12071DOPC   C1B15192  20.095   6.957  21.290  0.2915 -0.0539  0.0140
12071DOPC   D2B15193  19.690   6.911  20.979 -0.1666 -0.1246 -0.1640
12071DOPC   C3B15194  19.364   7.178  20.876  0.0487 -0.0389 -0.2371
12071DOPC   C4B15195  19.083   7.633  20.869  0.3483 -0.4039  0.4187
12072DOPC   NC315196   6.291   2.074  13.907  0.0027  0.0886 -0.1207
12072DOPC   PO415197   6.599   2.200  14.101 -0.0888 -0.0325  0.1115
12072DOPC   GL115198   6.750   2.275  13.709  0.1447 -0.0779  0.1276
12072DOPC   GL215199   6.770   2.540  13.792  0.0454 -0.0729  0.1201
12072DOPC   C1A15200   6.456   2.174  13.384 -0.2393  0.0992 -0.2072
12072DOPC   D2A15201   6.547   2.207  12.914 -0.0420 -0.1492  0.2182
12072DOPC   C3A15202   6.402   2.007  12.552  0.1604  0.0646  0.1142
12072DOPC   C4A15203   6.096   1.798  12.260 -0.1233  0.2946  0.2144
12072DOPC   C1B15204   6.688   2.805  13.470  0.0194 -0.0007  0.1609
12072DOPC   D2B15205   6.637   2.962  13.010  0.0548 -0.0412  0.0816
12072DOPC   C3B15206   6.395   3.075  12.629 -0.0345 -0.1379 -0.3789
12072DOPC   C4B15207   6.368   3.365  12.219  0.1841 -0.0537  0.2659
12073DOPC   NC315208  22.659   5.558  21.309  0.2430 -0.0064 -0.1301
12073DOPC   PO415209  22.968   5.309  21.227 -0.0927 -0.2479 -0.0274
12073DOPC   GL115210  22.895   5.359  20.844  0.3792  0.0074  0.1655
12073DOPC   GL215211  22.956   5.337  20.627 -0.0731 -0.2636 -0.2444
12073DOPC   C1A15212  22.627   5.683  20.648  0.0897 -0.1328 -0.2002
12073DOPC   D2A15213  22.321   6.001  20.477  0.0269  0.1746 -0.3041
12073DOPC   C3A15214  22.168   6.357  20.258 -0.1318 -0.2660 -0.2050
12073DOPC   C4A15215  22.075   6.667  19.929  0.2279  0.2777 -0.1303
12073DOPC   C1B15216  22.707   5.350  20.290  0.0600 -0.1045 -0.0269
12073DOPC   D2B15217  22.453   5.263  19.916 -0.3115  0.0414  0.1068
12073DOPC   C3B15218  22.120   5.369  19.553  0.1742  0.0945 -0.2023
12073DOPC   C4B15219  21.941   5.452  19.030  0.0349  0.1365 -0.0976
12074DOPC   NC315220   3.450   3.997  16.241  0.1919 -0.0849 -0.0125
12074DOPC   PO415221   3.462   4.096  15.851 -0.3478 -0.0046 -0.0163
12074DOPC   GL115222   3.069   3.954  15.653  0.2604 -0.0139  0.2278
12074DOPC   GL215223   2.920   4.162  15.775 -0.1203 -0.2124 -0.1888
12074DOPC   C1A15224   2.755   3.757  15.452 -0.0416 -0.1791  0.0794
12074DOPC   D2A15225   2.319   3.898  15.271  0.0944 -0.2437 -0.2572
12074DOPC   C3A15226   1.962   3.549  15.320 -0.0337 -0.2514  0.1327
12074DOPC   C4A15227   1.583   3.255  15.387 -0.3017  0.2197 -0.2445
12074DOPC   C1B15228   2.532   4.201  15.591  0.3375  0.0187  0.0490
12074DOPC   D2B15229   2.391   4.421  15.156 -0.0396  0.0108 -0.0920
12074DOPC   C3B15230   2.122   4.784  15.145  0.0402 -0.1212  0.1630
12074DOPC   C4B15231   1.828   5.073  14.941  0.2135  0.2780 -0.0370
12075DOPC   NC315232   3.617   1.175  16.022  0.1525 -0.1655  0.2584
12075DOPC   PO415233   3.280   1.373  16.071 -0.0945 -0.3268 -0.0979
12075DOPC   GL115234   3.091   1.411  15.675  0.2754  0.0336 -0.2533
12075DOPC   GL215235   2.830   1.460  15.848  0.0338  0.3468 -0.2277
12075DOPC   C1A15236   2.975   1.765  15.378 -0.0570 -0.1342  0.3796
12075DOPC   D2A15237   2.926   2.253  15.137  0.1512 -0.0230 -0.2378
12075DOPC   C3A15238   2.737   2.572  14.887  0.1687 -0.0247 -0.4381
12075DOPC   C4A15239   2.487   2.942  14.679 -0.1368 -0.1437  0.3640
12075DOPC   C1B15240   2.711   1.263  15.462  0.2845 -0.1486  0.1960
12075DOPC   D2B15241   2.487   1.043  15.093  0.1281 -0.1194 -0.0874
12075DOPC   C3B15242   2.171   1.194  14.914 -0.1723 -0.0683  0.0258
12075DOPC   C4B15243   1.866   1.517  14.647  0.0561 -0.1069  0.0948
12076DOPC   NC315244  14.809   1.457  21.261  0.0442  0.3172  0.0100
12076DOPC   PO415245  14.820   1.030  21.164  0.0871  0.0735 -0.1578
12076DOPC   GL115246  14.983   0.845  20.821  0.3415  0.0775 -0.4096
12076DOPC   GL215247  15.234   0.832  20.778  0.0532 -0.0336 -0.0512
12076DOPC   C1A15248  14.716   0.934  20.457 -0.2144 -0.0045  0.3132
12076DOPC   D2A15249  14.702   0.887  19.981 -0.0020  0.0704 -0.2385
12076DOPC   C3A15250  14.735   0.534  19.698  0.3107 -0.0121  0.0782
12076DOPC   C4A15251  15.207   0.521  19.652 -0.2964  0.1677 -0.1387
12076DOPC   C1B15252  15.196   1.107  20.419 -0.1044 -0.0399  0.1557
12076DOPC   D2B15253  15.078   1.510  20.088  0.0122 -0.3347 -0.2037
12076DOPC   C3B15254  15.191   1.604  19.624  0.1354  0.0104  0.0475
12076DOPC   C4B15255  15.153   1.738  19.156 -0.0123  0.2073 -0.0305
12077DOPC   NC315256  17.381   0.949  22.515  0.2682 -0.1561 -0.2056
12077DOPC   PO415257  17.239   1.303  22.327 -0.2256 -0.1743 -0.0031
12077DOPC   GL115258  17.359   1.414  21.907  0.3087  0.0609 -0.0465
12077DOPC   GL215259  17.493   1.147  21.958  0.0790 -0.0128  0.0773
12077DOPC   C1A15260  17.219   1.452  21.456  0.1139 -0.1997 -0.1467
12077DOPC   D2A15261  17.192   1.483  20.969 -0.0979 -0.1361 -0.0814
12077DOPC   C3A15262  17.464   1.114  20.759  0.1335  0.0035 -0.0873
12077DOPC   C4A15263  17.698   0.671  20.623  0.0192 -0.0476  0.1429
12077DOPC   C1B15264  17.619   1.169  21.582 -0.0295 -0.1476 -0.1851
12077DOPC   D2B15265  17.644   1.425  21.179  0.0685  0.1426 -0.0460
12077DOPC   C3B15266  17.653   1.578  20.684 -0.0365 -0.1202 -0.2204
12077DOPC   C4B15267  17.628   1.359  20.253 -0.1124 -0.0546  0.1842
12078DOPC   NC315268  17.735   4.896  22.359  0.2180 -0.0634 -0.1764
12078DOPC   PO415269  18.101   4.875  22.552 -0.0557 -0.1005  0.1652
12078DOPC   GL115270  18.329   5.052  22.216  0.1621  0.0676 -0.0668
12078DOPC   GL215271  18.182   4.852  22.067  0.1018  0.1615  0.3147
12078DOPC   C1A15272  18.374   5.385  22.000  0.1390  0.2829 -0.1902
12078DOPC   D2A15273  18.752   5.436  21.785  0.0165 -0.1337 -0.5265
12078DOPC   C3A15274  19.149   5.317  21.712  0.1607 -0.1977 -0.0355
12078DOPC   C4A15275  19.501   4.972  21.506  0.0235 -0.0052  0.2926
12078DOPC   C1B15276  18.164   4.744  21.627 -0.0873  0.1353 -0.1441
12078DOPC   D2B15277  18.263   4.468  21.247 -0.1961  0.0358 -0.2098
12078DOPC   C3B15278  18.435   4.287  20.883  0.1367 -0.0271 -0.1095
12078DOPC   C4B15279  18.786   4.011  20.643  0.0434 -0.4270  0.3223
12079DOPC   NC315280   8.354   7.525  14.355 -0.1801  0.0410  0.1487
12079DOPC   PO415281   8.744   7.390  14.456  0.0477  0.0773 -0.1078
12079DOPC   GL115282   9.068   7.376  14.201 -0.1446 -0.1797 -0.1055
12079DOPC   GL215283   9.009   7.571  14.065  0.1272  0.0221  0.1591
12079DOPC   C1A15284   9.425   7.287  14.132 -0.0094  0.0102  0.0729
12079DOPC   D2A15285   9.848   7.055  14.094  0.1052  0.0905  0.0988
12079DOPC   C3A15286  10.231   6.986  14.303  0.1307 -0.0846 -0.4526
12079DOPC   C4A15287  10.740   6.891  14.425  0.0581 -0.1998 -0.1937
12079DOPC   C1B15288   9.261   7.588  13.756 -0.0099  0.0319 -0.1474
12079DOPC   D2B15289   9.373   7.712  13.265  0.0755  0.0864 -0.0427
12079DOPC   C3B15290   9.345   7.862  12.788  0.2075  0.0759 -0.1286
12079DOPC   C4B15291   9.174   7.873  12.324  0.2424  0.0964 -0.1912
12080DOPC   NC315292  14.601   3.105  21.050 -0.3718  0.1901 -0.1393
12080DOPC   PO415293  14.903   3.216  21.260 -0.2520  0.0305  0.0733
12080DOPC   GL115294  15.108   2.996  20.975 -0.0606  0.0878  0.2122
12080DOPC   GL215295  14.944   3.135  20.796  0.1385 -0.3150  0.3189
12080DOPC   C1A15296  15.563   2.933  20.896  0.1291  0.0695  0.2336
12080DOPC   D2A15297  15.911   2.874  20.648 -0.1866 -0.1192  0.1617
12080DOPC   C3A15298  16.064   3.025  20.258 -0.0381  0.1274  0.0693
12080DOPC   C4A15299  16.190   3.107  19.791 -0.1223  0.0004 -0.0866
12080DOPC   C1B15300  15.232   3.175  20.533  0.1574 -0.2148  0.3581
12080DOPC   D2B15301  15.609   3.372  20.343 -0.2704  0.0447 -0.1135
12080DOPC   C3B15302  15.714   3.458  19.871 -0.0668  0.1258 -0.2284
12080DOPC   C4B15303  15.713   3.698  19.405  0.0936 -0.0113 -0.3252
12081DOPC   NC315304   7.596   2.847  14.260  0.2937  0.2087 -0.1169
12081DOPC   PO415305   7.544   3.263  14.326  0.2017  0.2374 -0.0537
12081DOPC   GL115306   7.577   3.244  13.963 -0.2620 -0.0876  0.0201
12081DOPC   GL215307   7.504   3.002  13.794  0.1791 -0.2675 -0.0977
12081DOPC   C1A15308   7.855   3.412  13.699  0.4608 -0.0707 -0.0582
12081DOPC   D2A15309   7.983   3.326  13.211  0.0091  0.1095 -0.2590
12081DOPC   C3A15310   7.842   3.258  12.733 -0.3481  0.0788 -0.1136
12081DOPC   C4A15311   7.892   3.151  12.263 -0.0157 -0.1151  0.0653
12081DOPC   C1B15312   7.681   3.042  13.468 -0.0257 -0.0912 -0.1907
12081DOPC   D2B15313   7.882   2.826  13.004 -0.0402 -0.2155 -0.1513
12081DOPC   C3B15314   8.183   2.944  12.652 -0.1477  0.0334 -0.0210
12081DOPC   C4B15315   8.535   2.957  12.320  0.2509 -0.2066  0.1214
12082DOPC   NC315316   5.241   4.800  14.449  0.1462 -0.0038 -0.0023
12082DOPC   PO415317   5.302   4.383  14.464  0.2950  0.0276  0.2322
12082DOPC   GL115318   5.092   4.166  14.129 -0.0924  0.0845  0.3747
12082DOPC   GL215319   5.091   4.457  14.030 -0.1927 -0.2824 -0.2400
12082DOPC   C1A15320   4.886   3.795  14.103 -0.1427 -0.1096 -0.1858
12082DOPC   D2A15321   4.534   3.488  13.958  0.1637 -0.2385  0.2024
12082DOPC   C3A15322   4.083   3.426  13.813  0.1740  0.1337  0.0870
12082DOPC   C4A15323   3.744   3.668  13.575  0.4065  0.1518  0.0650
12082DOPC   C1B15324   4.859   4.506  13.692 -0.1956  0.0546 -0.0647
12082DOPC   D2B15325   4.812   4.451  13.165 -0.0838  0.0430 -0.0394
12082DOPC   C3B15326   4.467   4.463  12.841 -0.1857 -0.0621 -0.1425
12082DOPC   C4B15327   4.091   4.425  12.623  0.0224 -0.3665  0.1059
12083DOPC   NC315328   9.791   2.075  15.829 -0.2070  0.1989 -0.0106
12083DOPC   PO415329   9.805   2.366  15.581  0.1838 -0.0904  0.0476
12083DOPC   GL115330  10.193   2.389  15.279 -0.0956 -0.2790  0.1252
12083DOPC   GL215331  10.309   2.242  15.509  0.0741 -0.2128 -0.0513
12083DOPC   C1A15332  10.344   2.279  14.934 -0.1470  0.3334 -0.0723
12083DOPC   D2A15333  10.752   2.031  14.770 -0.1823 -0.0247 -0.0039
12083DOPC   C3A15334  11.084   1.743  14.521 -0.0083 -0.0701  0.1736
12083DOPC   C4A15335  11.198   1.320  14.214 -0.2958  0.1049  0.2971
12083DOPC   C1B15336  10.497   1.906  15.325 -0.0541  0.0583  0.3808
12083DOPC   D2B15337  10.967   1.775  15.510 -0.0322 -0.1677  0.3248
12083DOPC   C3B15338  11.382   1.977  15.509  0.2239 -0.2870  0.0242
12083DOPC   C4B15339  11.763   2.332  15.424  0.0440  0.2398 -0.3141
12084DOPC   NC315340  12.641   1.661  18.689 -0.3098  0.2749  0.0942
12084DOPC   PO415341  12.297   1.725  18.513  0.0560 -0.0946  0.0937
12084DOPC   GL115342  12.462   1.780  18.135  0.3305 -0.2415 -0.2788
12084DOPC   GL215343  12.690   1.878  18.238  0.2245 -0.0638  0.4730
12084DOPC   C1A15344  12.417   2.004  17.742 -0.0049 -0.1374  0.1099
12084DOPC   D2A15345  12.386   1.821  17.297  0.1234 -0.0501  0.3263
12084DOPC   C3A15346  12.709   1.769  16.988 -0.2409  0.1960  0.0189
12084DOPC   C4A15347  13.053   1.693  16.718 -0.2298  0.2230  0.0795
12084DOPC   C1B15348  12.985   1.908  17.877 -0.0891  0.0520 -0.1551
12084DOPC   D2B15349  13.284   1.962  17.519 -0.2254 -0.1703 -0.3598
12084DOPC   C3B15350  13.589   2.188  17.334 -0.0033  0.2392  0.2674
12084DOPC   C4B15351  13.983   2.444  17.166  0.3499 -0.0672 -0.2186
12085DOPC   NC315352  24.858   4.745  20.006  0.0622 -0.0079 -0.0518
12085DOPC   PO415353  25.030   4.426  19.882 -0.0024  0.1994  0.0167
12085DOPC   GL115354  24.710   4.508  19.566  0.3348  0.2696  0.3473
12085DOPC   GL215355  24.577   4.620  19.686  0.3878  0.0616  0.0287
12085DOPC   C1A15356  24.692   4.520  19.144 -0.0370  0.0967 -0.3301
12085DOPC   D2A15357  24.494   4.768  18.857 -0.1258 -0.3627  0.1316
12085DOPC   C3A15358  24.254   4.935  18.479 -0.1616  0.0126  0.1763
12085DOPC   C4A15359  23.982   5.071  18.104  0.1007 -0.1290 -0.2094
12085DOPC   C1B15360  24.200   4.642  19.504  0.0391  0.1259  0.2655
12085DOPC   D2B15361  24.008   4.715  19.020 -0.0961 -0.0536 -0.0519
12085DOPC   C3B15362  23.581   4.542  18.996  0.0120 -0.0807  0.1783
12085DOPC   C4B15363  23.212   4.223  18.901 -0.0203  0.1098  0.2784
12086DOPC   NC315364  11.971   4.999  18.325 -0.0926 -0.1573  0.1565
12086DOPC   PO415365  11.882   5.205  18.019  0.1258 -0.1156 -0.1093
12086DOPC   GL115366  12.101   5.075  17.758 -0.2975  0.0850 -0.1761
12086DOPC   GL215367  12.001   4.766  17.782 -0.2393  0.3023  0.3031
12086DOPC   C1A15368  12.484   5.030  17.559  0.0825 -0.0247 -0.1299
12086DOPC   D2A15369  12.807   4.894  17.185  0.2418 -0.1344  0.1965
12086DOPC   C3A15370  13.168   5.110  17.068 -0.0949 -0.0854  0.2052
12086DOPC   C4A15371  13.423   5.545  17.187  0.0103 -0.0895  0.0143
12086DOPC   C1B15372  12.185   4.540  17.447  0.3578 -0.0630 -0.1698
12086DOPC   D2B15373  12.220   4.246  17.043 -0.1531 -0.1357 -0.1850
12086DOPC   C3B15374  12.605   4.161  16.701 -0.4346  0.3114 -0.0714
12086DOPC   C4B15375  12.878   3.927  16.365  0.1545  0.0299  0.3036
12087DOPC   NC315376  18.801   1.480  22.454 -0.2360  0.2463 -0.1405
12087DOPC   PO415377  18.533   1.199  22.484  0.1098 -0.3173 -0.0987
12087DOPC   GL115378  18.198   1.455  22.259 -0.1786  0.2107  0.0141
12087DOPC   GL215379  18.516   1.472  22.108  0.0670  0.2209  0.0745
12087DOPC   C1A15380  17.968   1.453  21.914 -0.1637 -0.3402  0.0845
12087DOPC   D2A15381  17.704   1.731  21.563 -0.0640 -0.0412  0.0846
12087DOPC   C3A15382  17.979   1.820  21.184  0.2919  0.1325  0.0670
12087DOPC   C4A15383  18.247   2.034  20.886  0.0620 -0.1572 -0.3567
12087DOPC   C1B15384  18.528   1.564  21.641  0.4163  0.1808  0.0483
12087DOPC   D2B15385  18.494   1.616  21.174 -0.4251 -0.0566  0.1455
12087DOPC   C3B15386  18.744   1.833  20.787  0.1860 -0.0774  0.3235
12087DOPC   C4B15387  19.140   2.054  20.722 -0.2037  0.1014 -0.0542
12088DOPC   NC315388  16.836   5.333  17.520 -0.2123  0.3487 -0.0541
12088DOPC   PO415389  16.966   5.349  17.898  0.2425 -0.0395 -0.0575
12088DOPC   GL115390  16.754   5.581  18.266 -0.0427  0.1924 -0.3483
12088DOPC   GL215391  16.932   5.431  18.414 -0.0886  0.1724 -0.0628
12088DOPC   C1A15392  16.414   5.750  18.497 -0.1421  0.2199  0.1132
12088DOPC   D2A15393  16.163   5.874  18.920  0.1342 -0.0629 -0.4083
12088DOPC   C3A15394  16.148   5.994  19.347  0.1110 -0.2496  0.0604
12088DOPC   C4A15395  16.256   6.050  19.835 -0.0634 -0.0440 -0.0918
12088DOPC   C1B15396  16.844   5.800  18.764 -0.0288 -0.0610 -0.0792
12088DOPC   D2B15397  16.962   5.960  19.317  0.1646 -0.1987  0.3276
12088DOPC   C3B15398  16.586   5.858  19.529  0.1347 -0.1936 -0.5217
12088DOPC   C4B15399  16.322   5.520  19.836  0.2468 -0.2264 -0.0618
12089DOPC   NC315400  11.416   0.382  11.534 -0.0023 -0.1480 -0.1309
12089DOPC   PO415401  11.037   0.242  11.477 -0.1090  0.1279 -0.0498
12089DOPC   GL115402  10.696   0.401  11.645  0.2436  0.1610 -0.3421
12089DOPC   GL215403  10.641   0.094  11.675 -0.5763 -0.1792  0.2537
12089DOPC   C1A15404  10.563   0.708  11.930  0.0031 -0.1877  0.0279
12089DOPC   D2A15405  10.241   0.843  12.311  0.0399 -0.0520 -0.0881
12089DOPC   C3A15406   9.859   0.618  12.525 -0.0333 -0.0986 -0.1251
12089DOPC   C4A15407   9.373   0.399  12.515 -0.0506  0.0035  0.0886
12089DOPC   C1B15408  10.654  -0.200  12.015  0.1282 -0.0033 -0.2027
12089DOPC   D2B15409  10.661  -0.544  12.409  0.2700 -0.1334  0.3658
12089DOPC   C3B15410  10.502  -0.706  12.776 -0.3351  0.0508  0.1931
12089DOPC   C4B15411  10.340  -0.855  13.217 -0.3184  0.2277 -0.0762
12090DOPC   NC315412  19.891   0.538  18.497 -0.4262 -0.1374 -0.1341
12090DOPC   PO415413  19.925   0.913  18.372 -0.0492 -0.2249 -0.2274
12090DOPC   GL115414  19.870   1.094  18.723  0.4566 -0.0491 -0.0940
12090DOPC   GL215415  19.916   1.376  18.754 -0.4919 -0.1199 -0.1227
12090DOPC   C1A15416  20.107   0.884  19.069 -0.1054 -0.1600  0.0894
12090DOPC   D2A15417  20.437   0.782  19.426  0.0884 -0.2076  0.1242
12090DOPC   C3A15418  20.450   0.670  19.851 -0.1140 -0.2321 -0.2531
12090DOPC   C4A15419  20.596   0.643  20.304 -0.3797  0.1403  0.0789
12090DOPC   C1B15420  20.239   1.323  19.044 -0.0105  0.0297 -0.3449
12090DOPC   D2B15421  20.604   1.214  19.346  0.0133  0.2094 -0.0643
12090DOPC   C3B15422  20.998   1.209  19.612 -0.0971 -0.0518 -0.3461
12090DOPC   C4B15423  21.431   1.173  19.850  0.0432  0.0138  0.1472
12091DOPC   NC315424  17.590   1.192  18.705  0.2753  0.0232  0.3137
12091DOPC   PO415425  17.443   0.892  18.505  0.0437  0.1709  0.2865
12091DOPC   GL115426  17.194   0.748  18.768  0.1887 -0.2791 -0.2230
12091DOPC   GL215427  17.141   0.468  18.737  0.3034  0.2063 -0.0333
12091DOPC   C1A15428  17.132   1.044  19.130  0.2810  0.3614 -0.0427
12091DOPC   D2A15429  17.007   1.302  19.533 -0.2582 -0.1495  0.0855
12091DOPC   C3A15430  17.290   1.180  19.880 -0.1587 -0.3439  0.3569
12091DOPC   C4A15431  17.582   0.873  20.159 -0.0369 -0.1007  0.1661
12091DOPC   C1B15432  17.053   0.463  19.131 -0.0634  0.0169 -0.0595
12091DOPC   D2B15433  16.875   0.233  19.540  0.1302  0.0904 -0.1258
12091DOPC   C3B15434  16.904   0.222  20.034 -0.1102  0.0703  0.2739
12091DOPC   C4B15435  16.857   0.128  20.477  0.2477  0.2088  0.0559
12092DOPC   NC315436  16.816   3.254  17.535  0.0904  0.0016  0.2695
12092DOPC   PO415437  16.944   3.201  17.846  0.1150 -0.0959 -0.1600
12092DOPC   GL115438  16.622   3.153  18.137 -0.2506  0.0180 -0.0219
12092DOPC   GL215439  16.635   2.871  18.173 -0.2834 -0.0819  0.0400
12092DOPC   C1A15440  16.605   3.368  18.520 -0.1844  0.4250 -0.1335
12092DOPC   D2A15441  16.536   3.326  19.000  0.1054 -0.2624 -0.2640
12092DOPC   C3A15442  16.284   2.966  19.199  0.0201  0.0531 -0.1833
12092DOPC   C4A15443  15.869   2.700  19.443 -0.2920 -0.0949  0.2007
12092DOPC   C1B15444  16.357   2.614  18.358 -0.2682 -0.0268  0.1708
12092DOPC   D2B15445  16.068   2.281  18.530  0.0331 -0.0034  0.1456
12092DOPC   C3B15446  15.577   2.332  18.528 -0.1448  0.0564 -0.0203
12092DOPC   C4B15447  15.084   2.343  18.431  0.1773  0.1066 -0.1133
12093DOPC   NC315448   2.058   6.485  11.779 -0.0570  0.0904  0.1768
12093DOPC   PO415449   1.662   6.482  11.880 -0.1128 -0.2437  0.0865
12093DOPC   GL115450   1.883   6.544  12.245 -0.0574 -0.1008  0.1846
12093DOPC   GL215451   1.845   6.372  12.396 -0.0560  0.0729  0.0425
12093DOPC   C1A15452   2.014   6.974  12.432 -0.1174  0.2530  0.1735
12093DOPC   D2A15453   2.021   7.263  12.767  0.1329  0.3469 -0.0202
12093DOPC   C3A15454   2.203   7.279  13.192 -0.2354 -0.0694  0.1296
12093DOPC   C4A15455   2.590   7.480  13.478  0.0759 -0.0141  0.1745
12093DOPC   C1B15456   1.924   6.520  12.817 -0.0275 -0.3013 -0.5093
12093DOPC   D2B15457   1.909   6.605  13.356  0.2660  0.0738 -0.0395
12093DOPC   C3B15458   2.132   6.871  13.629  0.1758  0.2033 -0.2621
12093DOPC   C4B15459   2.583   7.087  13.832  0.1447 -0.0052 -0.1786
12094DOPC   NC315460  16.147   6.784  16.181  0.0899 -0.3059  0.4186
12094DOPC   PO415461  15.939   6.580  16.522 -0.0564 -0.0879  0.2469
12094DOPC   GL115462  15.620   6.624  16.772  0.1259 -0.1094  0.2642
12094DOPC   GL215463  15.402   6.738  16.630  0.0870  0.1349 -0.1748
12094DOPC   C1A15464  15.432   6.400  17.038 -0.1213 -0.2587 -0.1284
12094DOPC   D2A15465  15.298   6.003  17.219  0.1529  0.1005  0.3268
12094DOPC   C3A15466  14.926   6.149  17.391 -0.1565 -0.0219 -0.0852
12094DOPC   C4A15467  14.503   6.282  17.622  0.0194 -0.0425 -0.0152
12094DOPC   C1B15468  14.957   6.847  16.716  0.2016  0.0014 -0.1814
12094DOPC   D2B15469  14.488   6.837  16.805  0.0847  0.1023 -0.0689
12094DOPC   C3B15470  14.245   6.986  17.174  0.1777  0.1013  0.0289
12094DOPC   C4B15471  14.018   7.305  17.504 -0.2076  0.3058  0.2879
12095DOPC   NC315472  15.086   3.755  16.137 -0.0501  0.2086  0.1799
12095DOPC   PO415473  15.132   3.416  16.317 -0.0858 -0.2906 -0.1869
12095DOPC   GL115474  15.196   3.367  16.722  0.2980 -0.0018  0.0237
12095DOPC   GL215475  15.138   3.675  16.650  0.1009 -0.1477  0.0748
12095DOPC   C1A15476  14.898   3.401  17.022  0.1621 -0.4667  0.0729
12095DOPC   D2A15477  14.544   3.356  17.289  0.1310 -0.3093 -0.1278
12095DOPC   C3A15478  14.621   3.087  17.665 -0.1371  0.1287 -0.2889
12095DOPC   C4A15479  14.840   2.700  17.959  0.1766 -0.1630  0.3016
12095DOPC   C1B15480  15.015   3.882  16.967  0.1236  0.1614  0.3089
12095DOPC   D2B15481  14.841   3.904  17.406  0.3293  0.2632  0.0910
12095DOPC   C3B15482  14.782   4.200  17.690  0.0768 -0.1540 -0.1389
12095DOPC   C4B15483  15.151   4.485  17.887  0.1859 -0.3219 -0.0778
12096DOPC   NC315484  20.518   3.676  18.159  0.0474 -0.0017  0.0895
12096DOPC   PO415485  20.306   3.329  18.065 -0.1020  0.1919  0.1089
12096DOPC   GL115486  20.234   2.951  18.315  0.1212  0.0762  0.2127
12096DOPC   GL215487  20.009   3.065  18.444  0.1993  0.3004 -0.2696
12096DOPC   C1A15488  20.385   2.814  18.761 -0.1292 -0.0117 -0.0863
12096DOPC   D2A15489  20.690   2.673  19.203  0.1251 -0.2746  0.0885
12096DOPC   C3A15490  20.862   2.921  19.573  0.1052 -0.1215  0.3162
12096DOPC   C4A15491  21.093   3.299  19.832  0.1483  0.0553 -0.0685
12096DOPC   C1B15492  19.871   2.994  18.861 -0.0789 -0.2461 -0.2653
12096DOPC   D2B15493  19.754   2.825  19.312 -0.1070  0.0430 -0.1458
12096DOPC   C3B15494  19.608   2.364  19.505 -0.3645 -0.2038 -0.0402
12096DOPC   C4B15495  19.837   2.206  19.908  0.2560  0.0818  0.3520
12097DOPC   NC315496   4.829   4.332  10.492  0.3238  0.0501 -0.0505
12097DOPC   PO415497   4.473   4.493  10.576 -0.2340 -0.2250 -0.1776
12097DOPC   GL115498   4.448   4.506  11.019  0.2440  0.1791 -0.0434
12097DOPC   GL215499   4.365   4.767  10.959 -0.3500  0.2173  0.0293
12097DOPC   C1A15500   4.686   4.333  11.444 -0.2853  0.0475  0.0479
12097DOPC   D2A15501   4.913   4.277  11.904 -0.0982  0.0678  0.0637
12097DOPC   C3A15502   5.342   4.218  12.035  0.1783  0.2304  0.0152
12097DOPC   C4A15503   5.794   4.143  12.263  0.2417 -0.1857  0.0355
12097DOPC   C1B15504   4.624   4.855  11.293  0.0463 -0.1519  0.2629
12097DOPC   D2B15505   4.927   5.024  11.650 -0.0340 -0.0857 -0.1805
12097DOPC   C3B15506   4.793   4.740  11.962  0.0162  0.0033  0.1942
12097DOPC   C4B15507   5.188   4.673  12.257  0.1674  0.1424  0.1565
12098DOPC   NC315508  21.426   0.657  17.457  0.0959 -0.0290  0.0610
12098DOPC   PO415509  21.674   0.983  17.461  0.0993  0.0971  0.1955
12098DOPC   GL115510  21.729   1.095  17.874 -0.3090 -0.2385  0.4606
12098DOPC   GL215511  22.015   1.008  17.773  0.0833 -0.1372 -0.0030
12098DOPC   C1A15512  21.493   1.082  18.290 -0.0634 -0.1414 -0.1942
12098DOPC   D2A15513  21.166   1.037  18.700  0.0670 -0.1865  0.0433
12098DOPC   C3A15514  21.142   1.173  19.094  0.3312  0.2081 -0.1394
12098DOPC   C4A15515  21.427   1.391  19.401 -0.2068 -0.0898  0.3940
12098DOPC   C1B15516  22.235   1.331  17.869  0.0296 -0.0282  0.2639
12098DOPC   D2B15517  22.739   1.400  18.061 -0.1177  0.1838 -0.1806
12098DOPC   C3B15518  23.179   1.357  18.304 -0.1735 -0.1821  0.1085
12098DOPC   C4B15519  23.523   1.259  18.624  0.0728  0.3021 -0.1738
12099DOPC   NC315520  16.290   6.711  16.974 -0.1097 -0.1499 -0.0302
12099DOPC   PO415521  16.608   6.538  17.109 -0.2061 -0.0530  0.1309
12099DOPC   GL115522  16.627   6.438  17.500 -0.1349  0.0635 -0.0574
12099DOPC   GL215523  16.596   6.675  17.640 -0.1009  0.1442 -0.4210
12099DOPC   C1A15524  16.317   6.160  17.757  0.0905  0.0385 -0.1017
12099DOPC   D2A15525  15.910   5.914  17.919  0.1448  0.0012 -0.3813
12099DOPC   C3A15526  15.556   5.721  18.025  0.0153  0.1462  0.4455
12099DOPC   C4A15527  15.121   5.515  18.086  0.1925 -0.2563  0.0419
12099DOPC   C1B15528  16.245   6.600  17.914  0.3330  0.1560  0.2516
12099DOPC   D2B15529  15.931   6.755  18.282 -0.2877  0.0171  0.1994
12099DOPC   C3B15530  15.533   6.724  18.571 -0.3714 -0.1426 -0.2234
12099DOPC   C4B15531  15.515   6.561  19.056  0.3403 -0.2068 -0.0586
12100DOPC   NC315532  18.503   5.507  18.578 -0.0174 -0.2765 -0.1517
12100DOPC   PO415533  18.649   5.850  18.456 -0.0847 -0.0631 -0.4111
12100DOPC   GL115534  18.812   6.128  18.840  0.0782 -0.0116  0.1870
12100DOPC   GL215535  19.088   5.912  18.841 -0.0194 -0.2238  0.0163
12100DOPC   C1A15536  18.627   6.150  19.281 -0.1038  0.0847  0.0769
12100DOPC   D2A15537  18.586   5.992  19.751 -0.2051 -0.0659 -0.0908
12100DOPC   C3A15538  19.014   5.899  19.915 -0.2217  0.0551  0.0435
12100DOPC   C4A15539  19.311   5.910  20.274 -0.0586 -0.1961 -0.0716
12100DOPC   C1B15540  19.106   5.653  19.204  0.0016  0.1587 -0.2345
12100DOPC   D2B15541  19.204   5.475  19.666 -0.2892  0.0520  0.1945
12100DOPC   C3B15542  19.526   5.446  20.045  0.1606 -0.0241  0.1513
12100DOPC   C4B15543  19.872   5.518  20.375  0.1425  0.1717  0.0156
12101DOPC   NC315544   9.753   4.799  10.307  0.0939 -0.1809 -0.0933
12101DOPC   PO415545   9.413   4.621  10.335  0.0307  0.2429 -0.0839
12101DOPC   GL115546   9.349   5.004  10.609  0.2445  0.2269 -0.0812
12101DOPC   GL215547   9.179   4.793  10.779 -0.0613  0.3351 -0.1800
12101DOPC   C1A15548   9.352   5.303  10.891  0.0225  0.1763 -0.0086
12101DOPC   D2A15549   9.300   5.674  11.235  0.0637 -0.2286  0.2454
12101DOPC   C3A15550   9.495   5.383  11.589 -0.0804 -0.3329 -0.1088
12101DOPC   C4A15551   9.661   5.105  11.977 -0.4337 -0.4684  0.4720
12101DOPC   C1B15552   9.105   4.895  11.224  0.0900  0.2245 -0.2798
12101DOPC   D2B15553   9.213   4.966  11.750 -0.0595 -0.0708  0.1885
12101DOPC   C3B15554   9.468   4.684  12.084  0.1760 -0.0818 -0.2410
12101DOPC   C4B15555   9.772   4.581  12.437 -0.2407  0.3721 -0.1297
12102DOPC   NC315556  18.610   3.663  18.622  0.3258 -0.0032 -0.1398
12102DOPC   PO415557  18.274   3.729  18.386  0.1390 -0.0966  0.1894
12102DOPC   GL115558  18.214   3.913  18.794  0.0553  0.1458  0.2860
12102DOPC   GL215559  18.172   3.654  18.859 -0.0834  0.0010 -0.0643
12102DOPC   C1A15560  18.424   3.955  19.187 -0.1308 -0.0847  0.1231
12102DOPC   D2A15561  18.584   4.136  19.668 -0.2759 -0.1542  0.2125
12102DOPC   C3A15562  18.838   4.079  20.092  0.3281  0.0140  0.1507
12102DOPC   C4A15563  19.219   4.277  20.276 -0.0662 -0.2699 -0.0867
12102DOPC   C1B15564  18.026   3.402  19.195 -0.0114 -0.3892 -0.1899
12102DOPC   D2B15565  17.778   3.128  19.527 -0.0352  0.0684 -0.0368
12102DOPC   C3B15566  17.472   3.476  19.394  0.0420 -0.0826  0.3528
12102DOPC   C4B15567  17.439   3.867  19.090  0.0730 -0.0827 -0.3099
12103DOPC   NC315568   7.163   2.913   9.471  0.0561  0.3409 -0.2616
12103DOPC   PO415569   7.019   2.778   9.815  0.2346 -0.1146  0.2261
12103DOPC   GL115570   7.233   2.788  10.137 -0.0113  0.0652  0.2333
12103DOPC   GL215571   7.073   3.012  10.278  0.2604 -0.0369  0.1341
12103DOPC   C1A15572   7.355   2.538  10.535  0.3976  0.0281  0.1122
12103DOPC   D2A15573   7.095   2.155  10.712  0.1649  0.2609 -0.4575
12103DOPC   C3A15574   7.200   1.851  11.028  0.0544 -0.0808  0.0789
12103DOPC   C4A15575   7.263   1.479  11.305  0.1150  0.2711  0.1039
12103DOPC   C1B15576   7.001   2.893  10.739 -0.0753  0.4004 -0.0175
12103DOPC   D2B15577   6.962   2.717  11.194 -0.2661  0.0876 -0.1477
12103DOPC   C3B15578   7.285   2.700  11.554  0.1231 -0.1928  0.0225
12103DOPC   C4B15579   7.509   2.489  11.919 -0.1224 -0.0190  0.5169
12104DOPC   NC315580  16.076   3.321  17.197  0.1812  0.1461 -0.2320
12104DOPC   PO415581  16.336   3.418  17.478  0.0843  0.2283  0.0917
12104DOPC   GL115582  16.253   3.379  17.810  0.0366 -0.2337  0.0132
12104DOPC   GL215583  16.128   3.590  17.935  0.0520 -0.2220  0.0638
12104DOPC   C1A15584  16.200   3.083  18.146 -0.1811  0.2279 -0.0099
12104DOPC   D2A15585  16.239   3.009  18.663 -0.4455 -0.1966 -0.1158
12104DOPC   C3A15586  15.924   2.743  18.917 -0.2044  0.2302  0.2506
12104DOPC   C4A15587  15.680   2.347  19.087  0.0635 -0.0880 -0.3278
12104DOPC   C1B15588  15.878   3.535  18.240  0.0058  0.0696  0.0194
12104DOPC   D2B15589  15.552   3.528  18.600  0.2640 -0.1729 -0.1006
12104DOPC   C3B15590  15.377   3.515  19.054 -0.1762 -0.0998 -0.1440
12104DOPC   C4B15591  15.353   3.271  19.477 -0.0037  0.0130 -0.1487
12105DOPC   NC315592  11.859   4.719  12.064 -0.2039  0.2580  0.2514
12105DOPC   PO415593  11.879   4.345  11.937 -0.2013 -0.1088 -0.2097
12105DOPC   GL115594  11.578   4.118  12.103 -0.0817 -0.2753  0.0050
12105DOPC   GL215595  11.735   3.993  12.305  0.0329  0.1037  0.1154
12105DOPC   C1A15596  11.198   4.266  12.034  0.1191 -0.0435  0.0162
12105DOPC   D2A15597  10.793   4.357  12.223 -0.0381 -0.0809 -0.3719
12105DOPC   C3A15598  10.727   4.516  12.659  0.1273  0.0334 -0.0558
12105DOPC   C4A15599  10.618   4.712  13.140  0.2033 -0.3562  0.0283
12105DOPC   C1B15600  11.483   4.096  12.639 -0.0905 -0.2177 -0.3809
12105DOPC   D2B15601  11.060   4.007  12.944 -0.0617  0.2062  0.0432
12105DOPC   C3B15602  10.609   4.165  13.052 -0.0343 -0.2552  0.1066
12105DOPC   C4B15603  10.290   4.192  13.443 -0.1551  0.1505 -0.2601
12106DOPC   NC315604  20.870   3.045  17.987  0.0710 -0.0117  0.0025
12106DOPC   PO415605  20.558   2.830  18.028 -0.1585  0.0538  0.1347
12106DOPC   GL115606  20.639   2.884  18.425  0.2495  0.0252 -0.0323
12106DOPC   GL215607  20.563   3.177  18.402 -0.2366 -0.0122 -0.2738
12106DOPC   C1A15608  20.931   3.026  18.683  0.0368  0.0542 -0.0153
12106DOPC   D2A15609  21.016   3.111  19.149  0.3987 -0.0956  0.0085
12106DOPC   C3A15610  20.823   3.450  19.440 -0.2367 -0.0541 -0.3662
12106DOPC   C4A15611  20.883   3.900  19.531 -0.1275 -0.1878 -0.0700
12106DOPC   C1B15612  20.864   3.413  18.410  0.3464 -0.0978  0.0870
12106DOPC   D2B15613  21.285   3.464  18.680 -0.0875  0.1251 -0.4060
12106DOPC   C3B15614  21.449   3.393  19.170  0.0335  0.0367  0.1026
12106DOPC   C4B15615  21.596   3.198  19.609 -0.0254 -0.3049  0.3675
12107DOPC   NC315616  14.057   2.553  14.271  0.0550  0.0819  0.1821
12107DOPC   PO415617  13.740   2.637  14.021  0.2593 -0.0170  0.0132
12107DOPC   GL115618  13.306   2.493  14.141 -0.4054 -0.1014  0.0116
12107DOPC   GL215619  13.479   2.486  14.313 -0.2613  0.2062 -0.0062
12107DOPC   C1A15620  12.904   2.596  14.338 -0.2194 -0.0068  0.2998
12107DOPC   D2A15621  12.442   2.720  14.540 -0.1801  0.0714 -0.2627
12107DOPC   C3A15622  12.078   2.759  14.836  0.2119 -0.0576 -0.1571
12107DOPC   C4A15623  12.036   2.817  15.321  0.0501  0.3667  0.2384
12107DOPC   C1B15624  13.290   2.223  14.650  0.3043  0.0154  0.1420
12107DOPC   D2B15625  12.893   2.250  14.905  0.1840 -0.0124  0.3066
12107DOPC   C3B15626  12.901   2.449  15.326 -0.1798 -0.3913  0.3364
12107DOPC   C4B15627  13.043   2.728  15.701 -0.0296 -0.2890 -0.0740
12108DOPC   NC315628   7.786   6.565  10.187 -0.1630  0.4748  0.0156
12108DOPC   PO415629   7.959   6.185  10.121 -0.1671  0.0415  0.0236
12108DOPC   GL115630   7.914   5.931  10.477  0.0590 -0.3756  0.1431
12108DOPC   GL215631   8.145   6.138  10.552  0.3343  0.1048  0.1084
12108DOPC   C1A15632   8.016   5.828  10.863 -0.0160 -0.1743  0.1328
12108DOPC   D2A15633   8.079   5.761  11.309  0.1130 -0.4145 -0.1106
12108DOPC   C3A15634   8.386   5.758  11.611 -0.0326  0.0070 -0.1190
12108DOPC   C4A15635   8.637   5.689  12.093  0.0613  0.1590  0.2585
12108DOPC   C1B15636   8.117   6.375  10.869 -0.1566 -0.0693 -0.0063
12108DOPC   D2B15637   7.881   6.637  11.230 -0.2801 -0.2876 -0.0006
12108DOPC   C3B15638   7.630   6.942  10.927 -0.4064  0.1454  0.2868
12108DOPC   C4B15639   7.652   7.336  10.642 -0.0700  0.1749 -0.1838
12109DOPC   NC315640   8.469   6.342  10.305 -0.3611  0.1301  0.0836
12109DOPC   PO415641   8.730   6.649  10.438 -0.3591  0.0798  0.2520
12109DOPC   GL115642   8.770   6.631  10.819 -0.0839  0.1978 -0.0813
12109DOPC   GL215643   8.507   6.536  10.817 -0.0747  0.0823  0.0798
12109DOPC   C1A15644   8.813   6.989  11.110  0.3202  0.0231  0.2248
12109DOPC   D2A15645   8.926   7.081  11.563 -0.0236 -0.0805  0.1107
12109DOPC   C3A15646   8.841   7.148  12.032  0.1698 -0.1006 -0.3023
12109DOPC   C4A15647   8.845   7.086  12.570 -0.1231  0.0409 -0.0386
12109DOPC   C1B15648   8.348   6.749  11.117  0.0670 -0.1313 -0.2753
12109DOPC   D2B15649   8.390   7.077  11.456  0.0550  0.0389  0.1304
12109DOPC   C3B15650   8.148   7.129  11.811  0.3095  0.3170  0.1792
12109DOPC   C4B15651   8.045   7.335  12.257  0.0052 -0.2749 -0.2231
12110DOPC   NC315652  19.647   3.120  17.761  0.0151 -0.2107  0.2198
12110DOPC   PO415653  19.750   3.252  18.129  0.1639 -0.0713  0.0129
12110DOPC   GL115654  19.646   3.266  18.494  0.1015  0.3087  0.0212
12110DOPC   GL215655  19.501   3.050  18.534 -0.3247  0.0261 -0.2884
12110DOPC   C1A15656  19.625   3.486  18.816 -0.0184  0.0173 -0.1571
12110DOPC   D2A15657  19.482   3.301  19.270 -0.0241 -0.1244 -0.0363
12110DOPC   C3A15658  19.689   3.341  19.664  0.0203  0.1686  0.3715
12110DOPC   C4A15659  20.017   3.051  19.909 -0.1695  0.0960 -0.0481
12110DOPC   C1B15660  19.284   3.029  18.889  0.2115  0.0810  0.0257
12110DOPC   D2B15661  18.872   2.971  19.152  0.2291  0.3156  0.0943
12110DOPC   C3B15662  18.782   2.725  19.529 -0.1379 -0.0552 -0.4812
12110DOPC   C4B15663  18.623   2.558  20.038  0.0571 -0.3104 -0.1227
12111DOPC   NC315664  11.242   6.610  11.374 -0.0541  0.2603 -0.0272
12111DOPC   PO415665  11.333   6.220  11.272 -0.0253 -0.2235  0.0208
12111DOPC   GL115666  11.116   6.120  11.690  0.1290 -0.1859  0.3655
12111DOPC   GL215667  11.344   6.336  11.767  0.1708  0.2878 -0.2822
12111DOPC   C1A15668  10.796   6.002  11.977 -0.2381  0.2791  0.2614
12111DOPC   D2A15669  10.383   6.174  12.160 -0.1243  0.1723 -0.5490
12111DOPC   C3A15670  10.273   6.034  12.624  0.2654 -0.1691  0.3038
12111DOPC   C4A15671  10.202   6.139  13.133  0.0814  0.2286  0.0200
12111DOPC   C1B15672  11.142   6.417  12.175  0.1551 -0.0782 -0.1404
12111DOPC   D2B15673  10.689   6.318  12.517  0.2505  0.0303  0.0935
12111DOPC   C3B15674  10.673   5.934  12.868  0.2842 -0.0522 -0.0981
12111DOPC   C4B15675  10.485   5.548  13.093  0.6951 -0.2253  0.1522
12112DOPC   NC315676  20.528   6.564  17.654 -0.0391 -0.1613 -0.0683
12112DOPC   PO415677  20.569   6.338  17.983  0.2421  0.2201 -0.0167
12112DOPC   GL115678  20.916   6.333  18.049 -0.9314 -0.2115 -0.1449
12112DOPC   GL215679  20.998   6.586  17.811 -0.1206  0.0327  0.0117
12112DOPC   C1A15680  21.136   6.251  18.348 -0.1096 -0.0861 -0.0848
12112DOPC   D2A15681  21.448   6.097  18.637 -0.0206 -0.2633 -0.1083
12112DOPC   C3A15682  21.720   5.974  19.018 -0.3207  0.0045 -0.0482
12112DOPC   C4A15683  21.970   5.833  19.436 -0.0933  0.1882 -0.0470
12112DOPC   C1B15684  21.372   6.858  17.774  0.0228 -0.0968  0.0445
12112DOPC   D2B15685  21.727   7.073  17.974 -0.1326  0.1702 -0.1399
12112DOPC   C3B15686  22.011   7.200  18.255 -0.4149  0.0412 -0.2447
12112DOPC   C4B15687  22.191   7.563  18.449  0.0489  0.0940  0.0468
12113DOPC   NC315688  22.533   6.786  16.593 -0.0107  0.1197  0.2166
12113DOPC   PO415689  22.508   6.490  16.350  0.3309 -0.1224  0.1861
12113DOPC   GL115690  22.671   6.241  16.625  0.2010  0.1418 -0.0155
12113DOPC   GL215691  22.462   6.362  16.854 -0.1271 -0.1829  0.0529
12113DOPC   C1A15692  23.089   6.219  16.825 -0.1633  0.0345 -0.2027
12113DOPC   D2A15693  23.525   6.087  17.109  0.0726 -0.0677  0.2013
12113DOPC   C3A15694  23.279   6.445  17.285  0.1190 -0.0856  0.0451
12113DOPC   C4A15695  22.980   6.802  17.473 -0.2648 -0.1523  0.0475
12113DOPC   C1B15696  22.824   6.591  16.988 -0.1791  0.2252  0.0481
12113DOPC   D2B15697  23.285   6.744  16.880 -0.0550  0.1083 -0.1380
12113DOPC   C3B15698  23.621   7.073  17.117 -0.1241 -0.2560 -0.0383
12113DOPC   C4B15699  24.069   7.140  17.354 -0.1553 -0.0355 -0.0504
12114DOPC   NC315700   1.845   4.177  12.496  0.1721 -0.1837  0.0568
12114DOPC   PO415701   1.504   4.132  12.713  0.0794 -0.0779 -0.1097
12114DOPC   GL115702   1.715   4.138  13.041 -0.1898  0.1570  0.1365
12114DOPC   GL215703   1.772   3.865  13.067  0.1045 -0.0107 -0.5315
12114DOPC   C1A15704   1.757   4.432  13.367 -0.0618 -0.0919  0.1569
12114DOPC   D2A15705   1.807   4.844  13.595 -0.2247  0.1577 -0.0142
12114DOPC   C3A15706   2.102   4.881  13.939  0.1693  0.2748 -0.1443
12114DOPC   C4A15707   2.493   4.868  14.256 -0.0105  0.0579  0.5204
12114DOPC   C1B15708   1.681   3.900  13.530  0.0198  0.0198  0.3556
12114DOPC   D2B15709   1.912   3.872  13.959 -0.2962 -0.1195 -0.2011
12114DOPC   C3B15710   1.908   3.520  14.255  0.2252  0.0079 -0.0631
12114DOPC   C4B15711   2.053   3.060  14.296  0.0234  0.1864 -0.2143
12115DOPC   NC315712   2.202   7.155  11.494  0.0104 -0.1184 -0.2193
12115DOPC   PO415713   1.898   7.334  11.677  0.0974 -0.0737  0.3557
12115DOPC   GL115714   1.896   7.440  12.169  0.1787 -0.1323  0.2654
12115DOPC   GL215715   2.157   7.327  12.110  0.0350  0.2161  0.0734
12115DOPC   C1A15716   2.155   7.702  12.474 -0.0313 -0.1229 -0.2793
12115DOPC   D2A15717   2.222   7.863  12.952 -0.2783  0.0893  0.1712
12115DOPC   C3A15718   2.645   7.936  13.177 -0.5404  0.2418  0.0304
12115DOPC   C4A15719   3.049   8.142  13.156 -0.3067  0.2800 -0.0183
12115DOPC   C1B15720   2.457   7.281  12.455  0.0942  0.1917 -0.1067
12115DOPC   D2B15721   2.581   7.192  12.884 -0.0417  0.0549  0.1214
12115DOPC   C3B15722   2.918   7.434  13.107  0.1184 -0.0162  0.0535
12115DOPC   C4B15723   3.140   7.666  13.408 -0.0671  0.0701  0.0638
12116DOPC   NC315724  15.495   4.847  15.963  0.0089 -0.0589 -0.2548
12116DOPC   PO415725  15.114   4.717  15.766 -0.1698  0.2315  0.1886
12116DOPC   GL115726  14.674   4.616  15.824 -0.1208  0.0873 -0.1735
12116DOPC   GL215727  14.640   4.923  15.765 -0.0693  0.1710  0.3685
12116DOPC   C1A15728  14.400   4.530  16.231  0.1927 -0.2732 -0.1058
12116DOPC   D2A15729  14.061   4.529  16.600  0.2902 -0.0985 -0.0494
12116DOPC   C3A15730  13.623   4.487  16.625 -0.0076  0.3362  0.1656
12116DOPC   C4A15731  13.195   4.595  16.852  0.0727 -0.1116  0.5332
12116DOPC   C1B15732  14.458   5.305  15.913  0.0417 -0.0607 -0.0207
12116DOPC   D2B15733  14.299   5.479  16.318  0.0566  0.1805 -0.0097
12116DOPC   C3B15734  13.911   5.212  16.153 -0.2045 -0.1101 -0.1440
12116DOPC   C4B15735  13.458   5.376  16.183  0.1917  0.0521  0.3007
12117DOPC   NC315736  11.738   6.398  12.029  0.2765  0.2427  0.1554
12117DOPC   PO415737  11.649   6.791  11.946 -0.0224 -0.1956 -0.1041
12117DOPC   GL115738  11.389   6.880  12.279  0.0718 -0.5466  0.0421
12117DOPC   GL215739  11.642   6.796  12.427 -0.2117 -0.1638  0.1351
12117DOPC   C1A15740  10.946   6.792  12.481  0.3471 -0.4027  0.1435
12117DOPC   D2A15741  10.691   6.669  12.865 -0.3720 -0.2429  0.3626
12117DOPC   C3A15742  10.202   6.622  12.791 -0.0062  0.2159  0.2268
12117DOPC   C4A15743   9.758   6.701  12.601 -0.1726 -0.2504  0.2772
12117DOPC   C1B15744  11.393   6.886  12.751  0.1046 -0.3685  0.0961
12117DOPC   D2B15745  11.082   7.116  13.082 -0.2100  0.2642  0.0640
12117DOPC   C3B15746  10.820   7.000  13.463 -0.0573  0.1193 -0.0192
12117DOPC   C4B15747  10.664   6.985  13.925  0.1266  0.1013 -0.0430
12118DOPC   NC315748  23.509   0.086  15.598 -0.0055  0.1240 -0.0445
12118DOPC   PO415749  23.744  -0.125  15.369 -0.4303  0.0923  0.0063
12118DOPC   GL115750  24.098  -0.094  15.621  0.0032  0.1272  0.1357
12118DOPC   GL215751  24.134  -0.383  15.438 -0.0996  0.1217 -0.0799
12118DOPC   C1A15752  24.399   0.051  15.959  0.3438  0.0733  0.0419
12118DOPC   D2A15753  24.783   0.116  16.223  0.0960 -0.0235  0.0519
12118DOPC   C3A15754  24.978   0.404  16.462 -0.0208  0.1386  0.0861
12118DOPC   C4A15755  25.308   0.714  16.691  0.1853 -0.0371  0.0886
12118DOPC   C1B15756  24.388  -0.481  15.814 -0.3513  0.1595  0.1174
12118DOPC   D2B15757  24.739  -0.447  16.118 -0.1968 -0.1163 -0.1022
12118DOPC   C3B15758  25.000  -0.442  16.489  0.0165  0.0836 -0.0687
12118DOPC   C4B15759  25.329  -0.671  16.814  0.2638 -0.1158 -0.0067
12119DOPC   NC315760  15.513   3.445  16.004 -0.1156  0.1012 -0.0335
12119DOPC   PO415761  15.407   3.067  15.962  0.1282  0.0169 -0.0794
12119DOPC   GL115762  15.026   3.003  16.176  0.0579  0.1287 -0.2821
12119DOPC   GL215763  15.121   2.833  16.363  0.2076 -0.2261 -0.0837
12119DOPC   C1A15764  14.581   3.063  16.320 -0.0147 -0.0759  0.1023
12119DOPC   D2A15765  14.110   3.211  16.436  0.1254  0.1582 -0.0837
12119DOPC   C3A15766  13.747   3.386  16.182  0.0776  0.1394 -0.4449
12119DOPC   C4A15767  13.337   3.610  16.085 -0.1062  0.0649  0.1160
12119DOPC   C1B15768  14.992   2.439  16.464  0.0134 -0.1560 -0.1431
12119DOPC   D2B15769  14.559   2.270  16.331  0.0420  0.2982  0.2426
12119DOPC   C3B15770  14.341   2.154  16.721 -0.3057  0.0745 -0.1108
12119DOPC   C4B15771  14.081   1.987  17.040  0.1715  0.0880 -0.3910
12120DOPC   NC315772  14.028   0.389  14.714 -0.0537  0.2952 -0.3843
12120DOPC   PO415773  14.091  -0.020  14.766  0.1933  0.0489 -0.2158
12120DOPC   GL115774  13.829  -0.205  15.099  0.2676 -0.5811  0.2421
12120DOPC   GL215775  14.087  -0.340  15.239 -0.2384 -0.5655  0.0110
12120DOPC   C1A15776  13.414  -0.196  15.264  0.2147 -0.0338 -0.1820
12120DOPC   D2A15777  12.929  -0.096  15.097  0.3081 -0.1426 -0.0101
12120DOPC   C3A15778  12.885   0.140  14.703  0.3058 -0.1802  0.1802
12120DOPC   C4A15779  12.936   0.262  14.260 -0.1761  0.1075  0.1736
12120DOPC   C1B15780  14.207  -0.357  15.623 -0.0764  0.2572 -0.1443
12120DOPC   D2B15781  14.391  -0.713  15.910  0.1768  0.0452  0.2536
12120DOPC   C3B15782  14.030  -0.944  15.925  0.1760  0.1369  0.0937
12120DOPC   C4B15783  13.687  -1.051  15.604  0.0772  0.2114  0.2468
12121DOPC   NC315784  10.013   2.867  10.177 -0.1803  0.1723 -0.0871
12121DOPC   PO415785  10.124   3.111  10.456 -0.1119 -0.0132  0.2328
12121DOPC   GL115786  10.179   3.035  10.964 -0.4352 -0.0672  0.5526
12121DOPC   GL215787   9.996   2.874  10.926 -0.0256  0.0882  0.2316
12121DOPC   C1A15788  10.057   3.286  11.278 -0.0773  0.0565  0.2136
12121DOPC   D2A15789   9.835   3.749  11.436  0.1186 -0.5465  0.2099
12121DOPC   C3A15790   9.714   3.966  11.771  0.0477  0.0389 -0.0704
12121DOPC   C4A15791   9.619   4.056  12.232  0.1862  0.0445  0.1766
12121DOPC   C1B15792   9.604   2.877  11.102  0.0609 -0.2229 -0.2458
12121DOPC   D2B15793   9.298   2.896  11.414  0.1928  0.0919 -0.1201
12121DOPC   C3B15794   8.922   2.774  11.636  0.2520  0.1130  0.2952
12121DOPC   C4B15795   8.566   2.576  12.022  0.0341  0.0734  0.0993
12122DOPC   NC315796   9.413   0.734  10.008  0.0812  0.1597 -0.0058
12122DOPC   PO415797   9.082   0.909  10.175  0.0119  0.1394  0.2627
12122DOPC   GL115798   8.974   0.824  10.547 -0.2182 -0.1399  0.1528
12122DOPC   GL215799   8.693   0.836  10.494  0.3986  0.0328  0.5004
12122DOPC   C1A15800   9.029   0.593  10.968 -0.0151 -0.0149 -0.1030
12122DOPC   D2A15801   9.136   0.490  11.375  0.3023  0.2494  0.2639
12122DOPC   C3A15802   8.917   0.665  11.773  0.0537 -0.0651 -0.1177
12122DOPC   C4A15803   8.827   1.005  12.134 -0.0012  0.1862 -0.3964
12122DOPC   C1B15804   8.287   0.879  10.712  0.1121  0.1426 -0.0545
12122DOPC   D2B15805   7.833   0.810  10.947 -0.1553 -0.0236 -0.1455
12122DOPC   C3B15806   7.635   0.684  11.406  0.4002  0.1893 -0.0961
12122DOPC   C4B15807   7.348   0.612  11.800  0.1336  0.1664 -0.0246
12123DOPC   NC315808  15.871   4.545  16.828  0.0183 -0.1561  0.1744
12123DOPC   PO415809  15.906   4.929  16.945 -0.1592 -0.1709  0.0181
12123DOPC   GL115810  15.602   5.218  17.048  0.1470  0.4283  0.1160
12123DOPC   GL215811  15.825   5.442  17.157 -0.0125  0.1737 -0.0502
12123DOPC   C1A15812  15.283   5.185  17.348  0.0967  0.1634  0.0651
12123DOPC   D2A15813  14.857   5.170  17.627 -0.0411 -0.2643  0.2537
12123DOPC   C3A15814  14.463   5.192  17.704 -0.0046  0.2851 -0.0037
12123DOPC   C4A15815  13.985   5.102  17.662  0.0235  0.0643  0.1061
12123DOPC   C1B15816  15.573   5.588  17.443 -0.1803  0.1119  0.1169
12123DOPC   D2B15817  15.173   5.784  17.681  0.2592 -0.0729  0.3286
12123DOPC   C3B15818  14.861   6.033  17.923  0.0466 -0.3313  0.0538
12123DOPC   C4B15819  14.405   6.070  18.116  0.1001  0.0689 -0.1167
12124DOPC   NC315820  18.394   0.531  18.390  0.3462 -0.0412  0.0573
12124DOPC   PO415821  18.363   0.164  18.496 -0.0791  0.2319 -0.2664
12124DOPC   GL115822  18.150   0.023  18.822 -0.1736 -0.1644 -0.1282
12124DOPC   GL215823  18.385   0.052  18.929 -0.0463 -0.1938  0.0245
12124DOPC   C1A15824  17.878   0.197  19.089  0.3310  0.1924  0.0666
12124DOPC   D2A15825  17.531   0.275  19.416  0.2797  0.0794 -0.0589
12124DOPC   C3A15826  17.275   0.006  19.708  0.1735  0.1185  0.1167
12124DOPC   C4A15827  16.944  -0.257  19.932 -0.0911  0.0982  0.0617
12124DOPC   C1B15828  18.490   0.065  19.341  0.2343  0.0491  0.1331
12124DOPC   D2B15829  18.458   0.049  19.867 -0.0304 -0.1243  0.0188
12124DOPC   C3B15830  18.070  -0.071  20.167  0.0545  0.1362 -0.2695
12124DOPC   C4B15831  17.741  -0.260  20.477  0.1544  0.0805 -0.2031
12125DOPC   NC315832   6.691   0.347   9.742 -0.0462 -0.2720  0.2043
12125DOPC   PO415833   7.053   0.302   9.850 -0.2177 -0.0820  0.1902
12125DOPC   GL115834   7.211   0.187  10.215  0.0994 -0.1547 -0.1333
12125DOPC   GL215835   7.258   0.521  10.200 -0.3061  0.1169 -0.2703
12125DOPC   C1A15836   7.303  -0.075  10.509 -0.1625  0.0543  0.0011
12125DOPC   D2A15837   7.498  -0.073  10.927 -0.1939  0.2376 -0.0071
12125DOPC   C3A15838   7.811  -0.336  11.121  0.0037  0.1507 -0.1769
12125DOPC   C4A15839   7.851  -0.723  11.372 -0.2176  0.1403  0.1115
12125DOPC   C1B15840   7.122   0.601  10.622  0.0469 -0.0596 -0.2669
12125DOPC   D2B15841   6.662   0.642  10.799 -0.0431 -0.2607  0.1271
12125DOPC   C3B15842   6.364   0.283  10.914 -0.0796 -0.0529  0.0301
12125DOPC   C4B15843   6.099  -0.033  11.239 -0.1365 -0.0211  0.1495
12126DOPC   NC315844  23.515   7.494  14.998  0.3967  0.2274  0.0025
12126DOPC   PO415845  23.680   7.202  15.254 -0.0067  0.0597 -0.2839
12126DOPC   GL115846  23.782   7.239  15.727 -0.3094 -0.0305  0.2347
12126DOPC   GL215847  23.740   6.971  15.844 -0.7535 -0.1848 -0.0520
12126DOPC   C1A15848  23.999   7.561  16.024  0.1223 -0.0881  0.0886
12126DOPC   D2A15849  24.312   7.578  16.333  0.2689 -0.3725  0.0909
12126DOPC   C3A15850  24.620   7.712  16.650  0.1051  0.2057  0.0093
12126DOPC   C4A15851  25.082   7.785  16.801  0.1712  0.1719 -0.0032
12126DOPC   C1B15852  24.067   7.020  16.112  0.0734  0.1555  0.0859
12126DOPC   D2B15853  24.446   7.080  16.369  0.0089 -0.0683  0.1201
12126DOPC   C3B15854  24.688   7.062  16.797  0.1700 -0.0529 -0.2042
12126DOPC   C4B15855  24.748   7.016  17.229 -0.0808  0.0723  0.1745
12127DOPC   NC315856  17.237   1.015  17.534 -0.0869 -0.2796  0.1510
12127DOPC   PO415857  17.101   1.322  17.802 -0.1121 -0.0980  0.0577
12127DOPC   GL115858  16.760   1.500  17.939  0.1031 -0.1727  0.1731
12127DOPC   GL215859  16.873   1.707  18.104  0.1431 -0.0551 -0.1001
12127DOPC   C1A15860  16.415   1.422  18.173 -0.1039 -0.0653  0.2866
12127DOPC   D2A15861  15.981   1.377  18.411 -0.0749  0.0652  0.1267
12127DOPC   C3A15862  15.892   1.396  18.865  0.3684  0.1161  0.1068
12127DOPC   C4A15863  15.603   1.620  19.211  0.0292  0.1196 -0.0893
12127DOPC   C1B15864  16.868   1.616  18.499  0.0846  0.2801  0.2203
12127DOPC   D2B15865  16.878   1.172  18.752  0.0945  0.0782  0.2120
12127DOPC   C3B15866  16.734   0.739  18.786  0.3409 -0.0172 -0.3146
12127DOPC   C4B15867  16.642   0.210  18.877  0.0530  0.0447  0.0638
12128DOPC   NC315868  21.767   7.774  16.889  0.1314  0.0563 -0.2226
12128DOPC   PO415869  21.924   7.821  17.268  0.0824 -0.0751  0.3010
12128DOPC   GL115870  22.143   7.562  17.509  0.2529 -0.1812 -0.2554
12128DOPC   GL215871  22.242   7.408  17.255 -0.2981  0.0798 -0.0873
12128DOPC   C1A15872  22.399   7.471  17.853 -0.1420 -0.2939 -0.1676
12128DOPC   D2A15873  22.536   7.239  18.289  0.1536 -0.4237  0.0739
12128DOPC   C3A15874  22.954   7.159  18.366 -0.0163  0.3265 -0.2688
12128DOPC   C4A15875  23.261   6.727  18.445  0.4604  0.0939  0.0272
12128DOPC   C1B15876  22.568   7.194  17.492 -0.2128  0.2091  0.1636
12128DOPC   D2B15877  22.800   7.048  17.897  0.0280 -0.0808 -0.0642
12128DOPC   C3B15878  22.846   6.592  18.024  0.1100 -0.0645 -0.1137
12128DOPC   C4B15879  22.959   6.096  18.083 -0.0219  0.1063  0.3552
12129DOPC   NC315880  23.275   1.055  15.832  0.0233 -0.2772 -0.0130
12129DOPC   PO415881  23.404   1.229  15.461  0.2343 -0.1080 -0.1668
12129DOPC   GL115882  23.746   1.420  15.417 -0.1693  0.2448  0.0962
12129DOPC   GL215883  23.728   1.653  15.280  0.0403  0.3161  0.0391
12129DOPC   C1A15884  24.129   1.453  15.625 -0.2730 -0.2137  0.2456
12129DOPC   D2A15885  24.539   1.499  15.929  0.0545  0.1820 -0.1693
12129DOPC   C3A15886  25.016   1.494  15.933 -0.0502  0.0229 -0.1100
12129DOPC   C4A15887  25.504   1.745  15.858  0.1490  0.0086  0.0172
12129DOPC   C1B15888  23.923   1.882  15.627  0.1868 -0.2877  0.2102
12129DOPC   D2B15889  24.419   2.007  15.682  0.0968  0.1811 -0.0266
12129DOPC   C3B15890  24.699   2.323  15.671  0.1074  0.1927  0.1615
12129DOPC   C4B15891  25.003   2.742  15.608  0.1675 -0.1442 -0.2152
12130DOPC   NC315892   5.588   1.807  10.115 -0.2333  0.2326  0.1067
12130DOPC   PO415893   5.908   1.688  10.332 -0.0008 -0.2046  0.1406
12130DOPC   GL115894   5.826   1.804  10.685  0.0154 -0.0801 -0.0636
12130DOPC   GL215895   6.056   1.907  10.731 -0.0743 -0.0028  0.1383
12130DOPC   C1A15896   5.672   1.687  11.102 -0.1512 -0.1207  0.0409
12130DOPC   D2A15897   5.546   1.753  11.575  0.2103  0.1675  0.4728
12130DOPC   C3A15898   5.833   1.556  11.893 -0.1031  0.1323  0.0596
12130DOPC   C4A15899   5.906   1.338  12.347  0.1389  0.0712  0.2590
12130DOPC   C1B15900   6.265   1.825  11.037  0.1830 -0.1896 -0.0260
12130DOPC   D2B15901   6.656   1.623  11.311  0.1797  0.0602  0.0402
12130DOPC   C3B15902   6.840   1.809  11.739 -0.1130 -0.0369  0.1640
12130DOPC   C4B15903   6.962   1.833  12.223  0.1839  0.1438  0.0658
12131DOPC   NC315904  13.594   4.185  13.524  0.0571 -0.3877  0.1812
12131DOPC   PO415905  13.261   4.073  13.317  0.1204  0.0548  0.0357
12131DOPC   GL115906  12.873   4.153  13.572 -0.0318 -0.1799 -0.1855
12131DOPC   GL215907  13.065   4.049  13.735 -0.0810 -0.2089 -0.0829
12131DOPC   C1A15908  12.584   3.838  13.635 -0.0518 -0.3390  0.1533
12131DOPC   D2A15909  12.321   3.478  13.851  0.1239 -0.0630 -0.3028
12131DOPC   C3A15910  11.921   3.401  13.691  0.2812  0.0754  0.3925
12131DOPC   C4A15911  11.471   3.398  13.466 -0.1821 -0.0623  0.2225
12131DOPC   C1B15912  12.928   3.660  13.997 -0.3673 -0.2535  0.1118
12131DOPC   D2B15913  12.710   3.230  13.904 -0.1357  0.0984 -0.1670
12131DOPC   C3B15914  12.358   3.064  14.152  0.0654  0.1303 -0.2676
12131DOPC   C4B15915  11.973   3.362  14.151  0.0144  0.3072  0.0242
12132DOPC   NC315916  15.364   1.226  15.992 -0.0452 -0.0541  0.1134
12132DOPC   PO415917  15.449   1.359  16.368  0.0477 -0.0665 -0.0060
12132DOPC   GL115918  15.193   1.147  16.715 -0.1426  0.3076 -0.2079
12132DOPC   GL215919  14.991   1.135  16.497 -0.2359  0.0020 -0.0769
12132DOPC   C1A15920  15.215   0.739  16.957 -0.0284  0.0016  0.2083
12132DOPC   D2A15921  15.006   0.398  17.320  0.1029  0.0149  0.0797
12132DOPC   C3A15922  14.579   0.403  17.532 -0.0789 -0.1735 -0.2592
12132DOPC   C4A15923  14.153   0.574  17.854 -0.2168 -0.0630  0.2188
12132DOPC   C1B15924  14.597   1.124  16.683  0.3225 -0.2177 -0.1722
12132DOPC   D2B15925  14.229   1.134  17.008  0.4185 -0.0754  0.1421
12132DOPC   C3B15926  14.187   1.460  17.288  0.1956 -0.0101 -0.0612
12132DOPC   C4B15927  14.283   1.816  17.515 -0.1434  0.1089  0.0219
12133DOPC   NC315928  24.908   7.467  13.521 -0.2088 -0.1181  0.1628
12133DOPC   PO415929  25.085   7.855  13.521 -0.0055  0.1421 -0.1087
12133DOPC   GL115930  25.265   8.093  13.831  0.2929 -0.0493 -0.3358
12133DOPC   GL215931  25.071   7.953  14.109  0.1210  0.3324 -0.0125
12133DOPC   C1A15932  25.550   8.327  14.174 -0.1600 -0.0658 -0.1024
12133DOPC   D2A15933  26.010   8.522  14.373 -0.0976  0.0491  0.0774
12133DOPC   C3A15934  26.448   8.538  14.348 -0.2421  0.2217 -0.0330
12133DOPC   C4A15935  26.977   8.662  14.282 -0.0023 -0.4246 -0.0416
12133DOPC   C1B15936  25.282   7.998  14.475  0.2175 -0.1074 -0.3798
12133DOPC   D2B15937  25.512   7.939  14.955  0.3073  0.1626  0.1678
12133DOPC   C3B15938  25.945   7.753  15.120  0.1014 -0.2081 -0.0470
12133DOPC   C4B15939  26.338   7.722  15.377  0.0317  0.1431  0.1770
12134DOPC   NC315940   2.586   6.414  11.714  0.0648 -0.1323 -0.0067
12134DOPC   PO415941   2.690   6.111  11.546  0.1683  0.1383  0.1082
12134DOPC   GL115942   3.059   5.878  11.516 -0.0757 -0.1673  0.0871
12134DOPC   GL215943   3.120   6.122  11.531  0.2116  0.0303  0.1193
12134DOPC   C1A15944   3.259   5.755  11.841  0.0070 -0.1885 -0.0002
12134DOPC   D2A15945   3.441   5.639  12.344 -0.1950  0.0937  0.3466
12134DOPC   C3A15946   3.899   5.816  12.474  0.0563 -0.3021 -0.1057
12134DOPC   C4A15947   4.292   5.958  12.763 -0.1857 -0.0957 -0.4993
12134DOPC   C1B15948   3.404   6.257  11.836  0.0723 -0.0646  0.4158
12134DOPC   D2B15949   3.711   6.163  12.146  0.0459 -0.1496 -0.2195
12134DOPC   C3B15950   4.007   6.360  12.515 -0.0703  0.1141  0.0125
12134DOPC   C4B15951   4.366   6.497  12.827  0.2831 -0.0734  0.2080
12135DOPC   NC315952  15.487   3.091  16.466 -0.2874  0.1651 -0.0008
12135DOPC   PO415953  15.633   3.214  16.818  0.2576 -0.0683  0.1084
12135DOPC   GL115954  15.311   3.338  17.182 -0.1116  0.0285 -0.0473
12135DOPC   GL215955  15.225   3.078  17.112 -0.0410  0.3119 -0.1202
12135DOPC   C1A15956  15.051   3.409  17.526  0.2337  0.1678 -0.1421
12135DOPC   D2A15957  14.861   3.614  17.934 -0.1791  0.1222 -0.5038
12135DOPC   C3A15958  14.585   3.830  18.294  0.0838 -0.2755 -0.0592
12135DOPC   C4A15959  14.393   4.100  18.717 -0.1542 -0.0490  0.0342
12135DOPC   C1B15960  14.834   2.896  17.205 -0.0303 -0.3016  0.0297
12135DOPC   D2B15961  14.321   2.785  17.252  0.2149 -0.0931 -0.1976
12135DOPC   C3B15962  13.964   2.915  16.983  0.0157  0.3037  0.2512
12135DOPC   C4B15963  13.697   3.235  16.734 -0.2028  0.0846  0.0816
12136DOPC   NC315964  16.728   3.772  17.546  0.1432 -0.0191  0.4235
12136DOPC   PO415965  16.650   3.582  17.882  0.2585 -0.1300  0.1470
12136DOPC   GL115966  16.985   3.474  18.211  0.4878 -0.1766 -0.0117
12136DOPC   GL215967  16.885   3.749  18.333 -0.0869  0.0031  0.0692
12136DOPC   C1A15968  16.970   3.038  18.416  0.1089  0.3301 -0.2341
12136DOPC   D2A15969  16.790   2.767  18.710 -0.0160 -0.0529  0.0330
12136DOPC   C3A15970  16.422   2.547  18.820 -0.1270  0.2439 -0.2336
12136DOPC   C4A15971  16.130   2.211  19.134  0.1350  0.1241  0.0811
12136DOPC   C1B15972  16.821   3.732  18.806 -0.1143 -0.2025 -0.0396
12136DOPC   D2B15973  16.758   3.919  19.229  0.3189  0.0753 -0.1831
12136DOPC   C3B15974  16.555   4.263  19.374  0.0649 -0.2569 -0.0467
12136DOPC   C4B15975  16.376   4.602  19.558  0.1887 -0.0199  0.0495
12137DOPC   NC315976  24.265   0.336  14.796  0.0609  0.0627 -0.0105
12137DOPC   PO415977  24.295  -0.016  14.627  0.4215 -0.3552  0.0914
12137DOPC   GL115978  24.529  -0.052  14.950  0.1590  0.1343 -0.0150
12137DOPC   GL215979  24.679  -0.172  14.772  0.3069  0.0068  0.0760
12137DOPC   C1A15980  24.701   0.236  15.264  0.1358 -0.0823 -0.3089
12137DOPC   D2A15981  25.027   0.566  15.559 -0.0124 -0.2412  0.0485
12137DOPC   C3A15982  25.351   0.856  15.509 -0.3864  0.1413 -0.1982
12137DOPC   C4A15983  25.458   1.191  15.809 -0.1671  0.1661  0.0314
12137DOPC   C1B15984  25.018  -0.340  14.930 -0.2096  0.0515  0.1988
12137DOPC   D2B15985  25.543  -0.488  14.973 -0.3386 -0.1412  0.1230
12137DOPC   C3B15986  25.777  -0.492  15.367 -0.0536 -0.1571  0.1843
12137DOPC   C4B15987  26.101  -0.417  15.755  0.0689  0.2994  0.0678
12138DOPC   NC315988   1.015   4.711  12.523  0.3554 -0.0924  0.0837
12138DOPC   PO415989   1.101   4.814  12.916 -0.3834 -0.1961 -0.0772
12138DOPC   GL115990   1.404   4.951  13.111 -0.0338 -0.2500  0.1229
12138DOPC   GL215991   1.632   5.092  13.028 -0.1886  0.0810 -0.0246
12138DOPC   C1A15992   1.335   4.645  13.505 -0.2697 -0.1381  0.2962
12138DOPC   D2A15993   1.563   4.296  13.808  0.0503  0.2008 -0.1711
12138DOPC   C3A15994   1.638   4.322  14.330  0.0259 -0.1414 -0.2503
12138DOPC   C4A15995   1.624   4.620  14.753 -0.1126  0.0226  0.0370
12138DOPC   C1B15996   1.638   5.273  13.455  0.0185  0.2346  0.1207
12138DOPC   D2B15997   1.741   5.345  13.971 -0.1322 -0.2214  0.1583
12138DOPC   C3B15998   1.474   5.293  14.345 -0.1904 -0.0529 -0.0824
12138DOPC   C4B15999   1.345   5.153  14.759 -0.0969 -0.1056  0.0796
12139DOPC   NC316000  15.068   2.050  15.636 -0.0285  0.1127 -0.1483
12139DOPC   PO416001  15.175   1.680  15.776  0.0485  0.1280  0.1800
12139DOPC   GL116002  14.959   1.438  15.912 -0.1678  0.0707 -0.1549
12139DOPC   GL216003  14.997   1.492  16.219 -0.3829 -0.2454 -0.0659
12139DOPC   C1A16004  14.531   1.509  15.888  0.1042  0.0118  0.1311
12139DOPC   D2A16005  14.014   1.485  15.906 -0.0655  0.2021  0.3597
12139DOPC   C3A16006  13.687   1.433  16.238 -0.0363 -0.3414  0.0904
12139DOPC   C4A16007  13.161   1.442  16.309  0.1700  0.0816  0.2458
12139DOPC   C1B16008  14.573   1.631  16.384  0.0768 -0.2520 -0.0943
12139DOPC   D2B16009  14.362   1.631  16.860 -0.0291 -0.1466 -0.0152
12139DOPC   C3B16010  13.910   1.507  16.824  0.1122  0.1363 -0.0530
12139DOPC   C4B16011  13.471   1.375  16.690 -0.0409 -0.0172  0.0296
12140DOPC   NC316012  24.774   2.054  13.661 -0.0424  0.2149  0.0190
12140DOPC   PO416013  24.649   2.320  13.952  0.0529 -0.1778 -0.0801
12140DOPC   GL116014  24.849   2.454  14.337 -0.0382 -0.1882 -0.0474
12140DOPC   GL216015  25.071   2.316  14.093 -0.0281 -0.0568  0.0513
12140DOPC   C1A16016  25.089   2.369  14.695  0.2876  0.2101 -0.0606
12140DOPC   D2A16017  25.459   2.142  14.961 -0.0220  0.0412  0.1341
12140DOPC   C3A16018  25.809   2.176  15.226  0.0183  0.2454  0.1405
12140DOPC   C4A16019  25.937   1.950  15.651  0.2530  0.2670  0.1473
12140DOPC   C1B16020  25.474   2.244  14.262  0.1527  0.2951 -0.0037
12140DOPC   D2B16021  25.804   1.946  14.552  0.0809 -0.3215  0.0085
12140DOPC   C3B16022  25.996   1.713  14.867 -0.1985 -0.1624  0.2313
12140DOPC   C4B16023  26.134   1.288  15.040  0.1640 -0.2462  0.1717
12141DOPC   NC316024   3.725   6.009  11.075  0.0481 -0.1425  0.0587
12141DOPC   PO416025   4.081   6.112  11.006  0.0574 -0.0463 -0.3272
12141DOPC   GL116026   4.353   6.396  11.185  0.1987 -0.2693  0.0585
12141DOPC   GL216027   4.108   6.537  11.151  0.1749  0.1389 -0.1110
12141DOPC   C1A16028   4.382   6.425  11.637 -0.0489 -0.1188 -0.0323
12141DOPC   D2A16029   4.117   6.519  12.005  0.0477 -0.1679  0.4043
12141DOPC   C3A16030   3.921   6.786  12.325 -0.3659  0.1844 -0.1544
12141DOPC   C4A16031   3.690   6.839  12.753 -0.1295 -0.0540  0.0160
12141DOPC   C1B16032   3.978   6.735  11.497  0.3676 -0.4332 -0.2598
12141DOPC   D2B16033   4.118   7.011  11.821  0.0654  0.0431 -0.1064
12141DOPC   C3B16034   4.485   6.906  12.187 -0.3726 -0.2819  0.0475
12141DOPC   C4B16035   4.764   6.917  12.585  0.3800  0.1248 -0.1713
12142DOPC   NC316036   0.846   6.468  12.125  0.0551  0.1363 -0.2623
12142DOPC   PO416037   0.999   6.611  12.458  0.2133 -0.0424 -0.0568
12142DOPC   GL116038   0.894   6.678  12.838  0.0818  0.2253 -0.3305
12142DOPC   GL216039   1.222   6.627  12.861  0.1551 -0.0731 -0.2500
12142DOPC   C1A16040   0.936   7.027  13.204  0.0958 -0.0882 -0.2318
12142DOPC   D2A16041   0.998   7.429  13.556 -0.0391 -0.1012  0.0126
12142DOPC   C3A16042   1.316   7.347  13.819  0.4931 -0.0357 -0.0227
12142DOPC   C4A16043   1.627   7.083  14.015 -0.0283 -0.0802  0.0243
12142DOPC   C1B16044   1.454   6.390  13.238 -0.0203 -0.2330  0.1310
12142DOPC   D2B16045   1.630   6.158  13.656 -0.0517  0.0571  0.1254
12142DOPC   C3B16046   1.919   6.464  13.929 -0.0208 -0.2794  0.2364
12142DOPC   C4B16047   2.383   6.603  13.985  0.1829 -0.0884 -0.1615
12143DOPC   NC316048   9.621   5.641  10.450 -0.1578  0.2276 -0.1255
12143DOPC   PO416049   9.843   5.361  10.273  0.0037  0.4546  0.2236
12143DOPC   GL116050   9.723   5.168  10.656  0.0135  0.0714  0.1754
12143DOPC   GL216051   9.835   5.432  10.807  0.1048 -0.0201  0.1898
12143DOPC   C1A16052   9.831   4.773  10.825 -0.4174  0.3524 -0.2161
12143DOPC   D2A16053   9.993   4.415  11.077 -0.2644  0.3006 -0.0997
12143DOPC   C3A16054  10.138   4.123  11.406 -0.2421  0.2083  0.0230
12143DOPC   C4A16055  10.234   3.684  11.706  0.0134 -0.3104  0.1926
12143DOPC   C1B16056   9.715   5.129  11.162  0.0627 -0.1377 -0.2948
12143DOPC   D2B16057   9.546   4.663  11.215  0.4332  0.0853  0.3553
12143DOPC   C3B16058   9.284   4.540  11.580  0.1552 -0.0117 -0.2617
12143DOPC   C4B16059   8.823   4.520  11.844  0.0651  0.1404  0.2238
12144DOPC   NC316060  14.655   4.316  15.445 -0.0880  0.3998 -0.1341
12144DOPC   PO416061  14.684   4.694  15.312 -0.2273  0.1434 -0.3408
12144DOPC   GL116062  14.387   4.840  15.425  0.2385  0.5541  0.3351
12144DOPC   GL216063  14.248   4.757  15.189  0.0160 -0.2447  0.4374
12144DOPC   C1A16064  14.207   4.831  15.884  0.0205 -0.2218  0.3843
12144DOPC   D2A16065  13.845   4.655  16.162  0.0533  0.0298 -0.0517
12144DOPC   C3A16066  13.432   4.824  16.132  0.1147  0.1403  0.0012
12144DOPC   C4A16067  12.995   4.945  16.076  0.0693  0.1011 -0.1485
12144DOPC   C1B16068  13.917   4.750  15.468  0.1537 -0.0209  0.1773
12144DOPC   D2B16069  13.592   4.550  15.722  0.2108  0.0765 -0.1015
12144DOPC   C3B16070  13.219   4.823  15.596 -0.0041  0.0560  0.0598
12144DOPC   C4B16071  13.157   4.645  15.170  0.1475  0.0857  0.0207
12145DOPC   NC316072  15.348   4.335  15.491 -0.0461 -0.2217  0.0215
12145DOPC   PO416073  15.146   4.098  15.734  0.1159  0.2277  0.2416
12145DOPC   GL116074  14.809   4.203  15.865 -0.1943  0.3770 -0.0964
12145DOPC   GL216075  14.970   4.345  16.051 -0.3213 -0.0145  0.0692
12145DOPC   C1A16076  14.453   3.995  16.017  0.2634  0.0062 -0.1904
12145DOPC   D2A16077  14.202   3.743  16.370  0.0272  0.0187  0.1088
12145DOPC   C3A16078  13.722   3.780  16.494 -0.2788  0.0901  0.0341
12145DOPC   C4A16079  13.277   3.601  16.559 -0.0114  0.0654 -0.0039
12145DOPC   C1B16080  14.896   4.563  16.342  0.2437  0.1114  0.0492
12145DOPC   D2B16081  14.685   4.737  16.736 -0.0956 -0.2355 -0.1860
12145DOPC   C3B16082  14.795   4.448  17.143  0.0107  0.4317  0.1329
12145DOPC   C4B16083  14.388   4.332  17.421 -0.0024  0.2478 -0.0615
12146DOPC   NC316084   1.262   0.687  11.991 -0.0918  0.0119  0.4458
12146DOPC   PO416085   1.492   0.883  12.251  0.0465  0.0424  0.0199
12146DOPC   GL116086   1.763   0.616  12.485  0.0012 -0.0787 -0.1673
12146DOPC   GL216087   1.885   0.863  12.506  0.0842  0.2034  0.1333
12146DOPC   C1A16088   1.835   0.217  12.718  0.1043 -0.1173  0.2753
12146DOPC   D2A16089   1.827   0.214  13.223 -0.3615 -0.3806 -0.0905
12146DOPC   C3A16090   2.013   0.370  13.594  0.0192  0.1596  0.2684
12146DOPC   C4A16091   2.484   0.456  13.878  0.1422 -0.1172 -0.2184
12146DOPC   C1B16092   2.191   0.856  12.208 -0.1298 -0.0834 -0.0763
12146DOPC   D2B16093   2.528   0.674  11.908 -0.1597 -0.3380  0.0739
12146DOPC   C3B16094   2.923   0.861  12.088 -0.2195  0.0225  0.3564
12146DOPC   C4B16095   3.059   0.981  12.465  0.0685 -0.0433  0.2006
12147DOPC   NC316096  13.154   6.266  13.200  0.0442 -0.1420 -0.0323
12147DOPC   PO416097  13.051   5.957  13.391 -0.3063 -0.0956  0.1826
12147DOPC   GL116098  12.879   5.706  13.662  0.3304 -0.0245 -0.0084
12147DOPC   GL216099  12.923   5.889  13.915  0.3755 -0.0891 -0.2371
12147DOPC   C1A16100  12.478   5.909  13.639 -0.2272  0.0683 -0.0993
12147DOPC   D2A16101  12.003   6.051  13.631 -0.1236  0.5948  0.1506
12147DOPC   C3A16102  11.653   6.064  13.905 -0.1540 -0.0483  0.3445
12147DOPC   C4A16103  11.275   5.977  14.233  0.3715  0.0561 -0.0597
12147DOPC   C1B16104  12.632   6.108  14.161 -0.3285  0.0713  0.2318
12147DOPC   D2B16105  12.314   6.211  14.549  0.0307  0.0843 -0.1158
12147DOPC   C3B16106  11.892   6.449  14.674  0.0035  0.0118 -0.2013
12147DOPC   C4B16107  11.430   6.351  14.871 -0.2566  0.0573 -0.2868
12148DOPC   NC316108  13.363   7.138  13.262 -0.0315  0.1260  0.1419
12148DOPC   PO416109  13.036   7.364  13.202 -0.4201 -0.1806 -0.0538
12148DOPC   GL116110  12.744   7.451  13.413  0.1337 -0.0005 -0.3607
12148DOPC   GL216111  12.642   7.174  13.339  0.2782  0.3468  0.0229
12148DOPC   C1A16112  12.568   7.677  13.819 -0.1769 -0.2053  0.0172
12148DOPC   D2A16113  12.490   7.934  14.215 -0.0351  0.0919 -0.1600
12148DOPC   C3A16114  12.058   7.973  14.385 -0.1518  0.1437  0.1958
12148DOPC   C4A16115  11.642   7.839  14.526 -0.1258 -0.2608  0.2417
12148DOPC   C1B16116  12.358   7.036  13.616 -0.1445 -0.0979 -0.2405
12148DOPC   D2B16117  11.879   6.942  13.744  0.0080 -0.1255  0.1221
12148DOPC   C3B16118  11.683   7.288  13.931  0.1076 -0.1168  0.2043
12148DOPC   C4B16119  11.332   7.517  14.236  0.0449  0.1727 -0.2166
12149DOPC   NC316120  24.015   4.088  14.613  0.0517 -0.0499 -0.0661
12149DOPC   PO416121  24.316   3.997  14.391  0.2189 -0.1017 -0.1194
12149DOPC   GL116122  24.580   3.894  14.606  0.0554 -0.1488  0.2352
12149DOPC   GL216123  24.425   3.893  14.887  0.0095  0.3116 -0.0159
12149DOPC   C1A16124  25.026   3.877  14.584 -0.2174  0.1541  0.0718
12149DOPC   D2A16125  25.418   4.004  14.811  0.1362  0.1060  0.0263
12149DOPC   C3A16126  25.662   4.011  15.124  0.1315 -0.1478  0.0997
12149DOPC   C4A16127  26.051   3.816  15.276 -0.1948 -0.2134 -0.0652
12149DOPC   C1B16128  24.766   4.087  14.972 -0.1139  0.3443 -0.0892
12149DOPC   D2B16129  25.180   4.068  15.293 -0.0620  0.0663 -0.1164
12149DOPC   C3B16130  25.536   4.187  15.571 -0.5357  0.0741  0.1416
12149DOPC   C4B16131  25.897   4.208  16.018 -0.0379 -0.3552  0.2882
12150DOPC   NC316132   8.568   4.500  10.162  0.3741 -0.0439  0.0479
12150DOPC   PO416133   8.933   4.316  10.220 -0.0063 -0.0887 -0.1697
12150DOPC   GL116134   9.065   4.443  10.619 -0.0291  0.5605  0.1887
12150DOPC   GL216135   9.278   4.216  10.480 -0.2374  0.1541 -0.1169
12150DOPC   C1A16136   8.908   4.452  11.066  0.1194  0.2078  0.0559
12150DOPC   D2A16137   8.513   4.356  11.398 -0.0498  0.1192  0.1246
12150DOPC   C3A16138   8.312   4.258  11.792 -0.0184 -0.1516 -0.0090
12150DOPC   C4A16139   8.125   4.133  12.245  0.1276 -0.0922  0.2560
12150DOPC   C1B16140   9.069   3.954  10.734  0.2949  0.0460  0.1713
12150DOPC   D2B16141   8.837   3.529  10.782 -0.0198  0.0583 -0.1081
12150DOPC   C3B16142   8.586   3.516  11.136  0.2940  0.1154  0.2921
12150DOPC   C4B16143   8.109   3.446  11.290 -0.0879 -0.0678 -0.1675
12151DOPC   NC316144  11.936   1.901  11.647  0.3109  0.2524  0.1192
12151DOPC   PO416145  11.895   1.496  11.707 -0.2970 -0.0246  0.3870
12151DOPC   GL116146  11.641   1.320  11.962  0.0459 -0.2447  0.1724
12151DOPC   GL216147  11.409   1.133  11.849 -0.0874  0.0545  0.3267
12151DOPC   C1A16148  11.583   1.453  12.349 -0.2794 -0.1426 -0.2076
12151DOPC   D2A16149  11.340   1.578  12.773  0.0221  0.0267 -0.0575
12151DOPC   C3A16150  10.933   1.741  12.973 -0.0575 -0.2325  0.0697
12151DOPC   C4A16151  10.743   1.681  13.409 -0.3692 -0.0099 -0.0901
12151DOPC   C1B16152  11.181   1.437  12.056 -0.2033  0.0635 -0.0938
12151DOPC   D2B16153  10.980   1.476  12.525 -0.0008  0.0655 -0.0494
12151DOPC   C3B16154  10.585   1.305  12.807 -0.3221  0.1201 -0.3300
12151DOPC   C4B16155  10.206   1.154  12.955 -0.0236  0.2474 -0.0868
12152DOPC   NC316156   8.976   7.170  10.568  0.0847 -0.1588 -0.1180
12152DOPC   PO416157   9.359   7.171  10.762  0.2165  0.0155 -0.0551
12152DOPC   GL116158   9.417   7.363  11.121 -0.0450 -0.3360  0.2105
12152DOPC   GL216159   9.150   7.313  11.265 -0.1446  0.0767 -0.2092
12152DOPC   C1A16160   9.564   7.463  11.529 -0.2142 -0.3164 -0.1119
12152DOPC   D2A16161   9.542   7.617  12.007 -0.0977  0.1536  0.1290
12152DOPC   C3A16162   9.665   7.461  12.444  0.1562  0.1996 -0.0306
12152DOPC   C4A16163   9.640   7.507  12.926  0.1217 -0.1513  0.1203
12152DOPC   C1B16164   9.018   7.522  11.625  0.0024 -0.2134 -0.0198
12152DOPC   D2B16165   8.824   7.608  12.123  0.2627  0.1408  0.0778
12152DOPC   C3B16166   8.505   7.440  12.397  0.1243 -0.0325  0.0932
12152DOPC   C4B16167   8.422   7.166  12.740  0.2450  0.3012 -0.0912
12153DOPC   NC316168  13.319   7.853  13.006  0.1864  0.2048  0.2432
12153DOPC   PO416169  13.220   8.219  13.105  0.0115  0.0085 -0.0059
12153DOPC   GL116170  12.873   8.236  13.325  0.4226  0.0874  0.4485
12153DOPC   GL216171  12.958   8.281  13.592  0.1307 -0.3677  0.0856
12153DOPC   C1A16172  12.482   8.365  13.399  0.4240  0.3798  0.0154
12153DOPC   D2A16173  11.956   8.436  13.550 -0.0792 -0.0570 -0.1249
12153DOPC   C3A16174  11.794   8.679  13.923  0.0804 -0.5223 -0.0531
12153DOPC   C4A16175  11.553   8.775  14.380  0.0486 -0.1935  0.1333
12153DOPC   C1B16176  12.666   8.260  13.851  0.1754  0.0786  0.2431
12153DOPC   D2B16177  12.154   8.208  13.937  0.0311  0.0677  0.0539
12153DOPC   C3B16178  12.134   7.976  13.552  0.0346 -0.3203  0.2250
12153DOPC   C4B16179  12.452   7.884  13.157 -0.0148 -0.1496  0.0923
12154DOPC   NC316180  13.620   4.139  14.410 -0.1096 -0.3766  0.2849
12154DOPC   PO416181  13.609   4.128  14.023 -0.0102  0.0298 -0.1644
12154DOPC   GL116182  13.276   3.896  14.270  0.2473  0.0719  0.1129
12154DOPC   GL216183  13.155   4.128  14.167  0.1028 -0.0240 -0.0336
12154DOPC   C1A16184  13.292   3.722  14.671 -0.0479 -0.3072 -0.1171
12154DOPC   D2A16185  13.502   3.539  15.104  0.2286 -0.2580  0.2306
12154DOPC   C3A16186  13.604   3.116  15.087 -0.2052 -0.0734  0.2071
12154DOPC   C4A16187  13.471   2.749  15.425 -0.1138 -0.3084  0.1378
12154DOPC   C1B16188  12.936   4.466  14.422  0.1400  0.0969 -0.0132
12154DOPC   D2B16189  12.846   4.872  14.253  0.1417 -0.1530  0.0097
12154DOPC   C3B16190  12.525   5.192  14.101 -0.0109  0.4559  0.1951
12154DOPC   C4B16191  12.387   5.659  14.018 -0.0761  0.0310  0.0038
12155DOPC   NC316192  12.637   5.865  12.337 -0.2507 -0.1542 -0.0391
12155DOPC   PO416193  12.606   5.759  12.696  0.1839  0.0656  0.0565
12155DOPC   GL116194  12.262   5.883  12.926 -0.0244 -0.3493  0.0461
12155DOPC   GL216195  12.208   5.557  12.989 -0.0669 -0.3157  0.1091
12155DOPC   C1A16196  12.152   6.176  13.179  0.0799  0.0589 -0.0904
12155DOPC   D2A16197  11.981   6.538  13.440  0.0249  0.2244  0.1326
12155DOPC   C3A16198  11.876   6.538  13.951  0.0211 -0.0198 -0.0621
12155DOPC   C4A16199  11.570   6.396  14.344  0.2005  0.2438 -0.2418
12155DOPC   C1B16200  11.848   5.782  13.226 -0.0623  0.2962 -0.0622
12155DOPC   D2B16201  11.469   5.718  13.560 -0.0757 -0.0922  0.0275
12155DOPC   C3B16202  11.162   5.593  13.898 -0.0286  0.0853  0.1623
12155DOPC   C4B16203  10.803   5.522  14.219 -0.1325  0.5996  0.0705
12156DOPC   NC316204   2.635   3.290  11.988 -0.3321  0.1210  0.0073
12156DOPC   PO416205   2.767   3.513  11.670 -0.3170  0.1759 -0.1864
12156DOPC   GL116206   2.780   3.868  11.968  0.0578 -0.1740  0.0639
12156DOPC   GL216207   2.614   3.786  12.167 -0.0039  0.0371 -0.1973
12156DOPC   C1A16208   2.801   4.054  12.432  0.1517  0.0494 -0.0817
12156DOPC   D2A16209   2.749   3.908  12.870 -0.3306 -0.1745  0.0144
12156DOPC   C3A16210   2.982   3.965  13.276  0.1272 -0.3267 -0.3495
12156DOPC   C4A16211   3.102   4.276  13.652  0.2546  0.0818  0.0088
12156DOPC   C1B16212   2.896   3.560  12.474 -0.2559 -0.1175  0.2368
12156DOPC   D2B16213   3.411   3.591  12.616 -0.2067  0.0015  0.1504
12156DOPC   C3B16214   3.579   3.778  13.045  0.0745  0.3519 -0.0787
12156DOPC   C4B16215   3.599   4.153  13.374  0.0663  0.0769  0.2545
12157DOPC   NC316216   4.836   0.766  10.681  0.0817  0.2986  0.1802
12157DOPC   PO416217   4.694   0.376  10.598 -0.2175  0.3518  0.0121
12157DOPC   GL116218   4.697   0.352  10.965  0.0346  0.0627  0.1073
12157DOPC   GL216219   4.663   0.103  11.095 -0.4421 -0.0384 -0.1466
12157DOPC   C1A16220   4.883   0.657  11.287 -0.2649 -0.1576  0.1811
12157DOPC   D2A16221   5.043   1.041  11.541 -0.1318 -0.1625  0.0782
12157DOPC   C3A16222   4.691   0.853  11.803 -0.0352  0.0059 -0.2472
12157DOPC   C4A16223   4.180   0.943  11.835 -0.1928 -0.0684 -0.1850
12157DOPC   C1B16224   4.777   0.083  11.506 -0.3149 -0.1540 -0.0833
12157DOPC   D2B16225   4.889   0.393  11.938  0.2264 -0.1758  0.0357
12157DOPC   C3B16226   4.771   0.726  12.279  0.0305  0.0560  0.0172
12157DOPC   C4B16227   4.630   1.047  12.628 -0.1307  0.0759 -0.1449
12158DOPC   NC316228  19.644   5.005  18.210 -0.1047 -0.1899 -0.1913
12158DOPC   PO416229  19.329   5.060  18.474 -0.1919  0.1735 -0.0542
12158DOPC   GL116230  19.324   5.249  18.881  0.1461 -0.0695  0.2801
12158DOPC   GL216231  19.665   5.338  18.824  0.1338  0.0555 -0.0302
12158DOPC   C1A16232  19.359   5.070  19.240 -0.0661  0.2009 -0.1584
12158DOPC   D2A16233  19.475   5.014  19.715 -0.0342  0.2576 -0.0991
12158DOPC   C3A16234  19.910   5.028  19.830  0.1519  0.0454 -0.2664
12158DOPC   C4A16235  20.395   5.022  19.904  0.0556 -0.0724 -0.0803
12158DOPC   C1B16236  19.886   5.137  19.130  0.0245 -0.3356 -0.0819
12158DOPC   D2B16237  20.230   5.169  19.471  0.2542 -0.1221 -0.0508
12158DOPC   C3B16238  20.645   4.938  19.296 -0.1669  0.1620 -0.0754
12158DOPC   C4B16239  21.106   4.825  19.043  0.0045  0.1457 -0.2300
12159DOPC   NC316240  22.411   2.312  16.407  0.0815 -0.0562  0.2820
12159DOPC   PO416241  22.775   2.081  16.435  0.2998 -0.1023 -0.0326
12159DOPC   GL116242  23.170   2.176  16.532  0.3792  0.0255  0.0309
12159DOPC   GL216243  23.133   1.967  16.745 -0.4116  0.3661  0.0505
12159DOPC   C1A16244  23.410   2.361  16.771  0.0670  0.2093 -0.0586
12159DOPC   D2A16245  23.706   2.722  16.793  0.1748 -0.0902  0.1104
12159DOPC   C3A16246  24.137   2.797  16.798 -0.3035  0.0639 -0.2925
12159DOPC   C4A16247  24.507   2.968  17.056 -0.0730 -0.2747 -0.1066
12159DOPC   C1B16248  23.393   2.039  17.125 -0.2594 -0.0106 -0.0139
12159DOPC   D2B16249  23.761   2.097  17.516  0.2914  0.0118 -0.1059
12159DOPC   C3B16250  23.864   1.809  17.882  0.0495 -0.1460 -0.1648
12159DOPC   C4B16251  23.855   1.447  18.225  0.0473  0.0811 -0.1065
12160DOPC   NC316252  18.624   2.199  18.583 -0.1002  0.1233  0.3973
12160DOPC   PO416253  18.293   2.281  18.386 -0.1643  0.2101 -0.1272
12160DOPC   GL116254  18.005   2.387  18.626  0.0512  0.2778  0.2465
12160DOPC   GL216255  17.929   2.688  18.639  0.1720 -0.2843  0.1652
12160DOPC   C1A16256  18.037   2.259  19.044 -0.0729 -0.0422 -0.0069
12160DOPC   D2A16257  17.898   2.332  19.524  0.2536  0.0679  0.2252
12160DOPC   C3A16258  18.172   2.229  19.803 -0.2070 -0.0412  0.0505
12160DOPC   C4A16259  18.328   2.236  20.288  0.0796 -0.1369 -0.0376
12160DOPC   C1B16260  18.080   3.055  18.814  0.1000 -0.0696 -0.0779
12160DOPC   D2B16261  18.379   2.991  19.234  0.0357  0.1375  0.6249
12160DOPC   C3B16262  18.288   3.220  19.604  0.0150 -0.1778 -0.1158
12160DOPC   C4B16263  17.976   3.363  19.975  0.1187  0.1457 -0.0505
12161DOPC   NC316264  13.131   4.421  12.842 -0.0731 -0.0873 -0.1438
12161DOPC   PO416265  12.805   4.435  12.643  0.1270 -0.1320  0.0951
12161DOPC   GL116266  12.508   4.572  12.934  0.0187  0.1631  0.1621
12161DOPC   GL216267  12.753   4.487  13.150  0.2588 -0.0348  0.0232
12161DOPC   C1A16268  12.147   4.345  13.031  0.0950 -0.0914  0.0143
12161DOPC   D2A16269  11.790   4.015  13.061  0.1652 -0.0982 -0.3381
12161DOPC   C3A16270  11.495   3.933  13.391  0.1657 -0.0508  0.0466
12161DOPC   C4A16271  11.328   3.741  13.811  0.0928  0.0667 -0.0394
12161DOPC   C1B16272  12.452   4.333  13.444 -0.3733  0.1564  0.1229
12161DOPC   D2B16273  12.309   4.142  13.895  0.0393  0.0464  0.0199
12161DOPC   C3B16274  11.994   3.840  13.966  0.0668  0.2127 -0.0259
12161DOPC   C4B16275  11.609   3.672  14.236  0.4304 -0.0250 -0.0915
12162DOPC   NC316276   7.883   0.973   9.682 -0.0402 -0.0762 -0.0064
12162DOPC   PO416277   8.113   0.709   9.872 -0.0338  0.0540  0.0081
12162DOPC   GL116278   7.867   0.541  10.212 -0.0839  0.0896 -0.0155
12162DOPC   GL216279   7.685   0.765  10.133  0.1558 -0.0582 -0.1847
12162DOPC   C1A16280   8.006   0.500  10.584  0.1463  0.1210 -0.2362
12162DOPC   D2A16281   8.199   0.473  11.060 -0.3613  0.0149 -0.2575
12162DOPC   C3A16282   8.092   0.679  11.393 -0.0719 -0.0397  0.0071
12162DOPC   C4A16283   8.036   1.103  11.611 -0.3813 -0.1171  0.0934
12162DOPC   C1B16284   7.579   0.866  10.548  0.3048 -0.1435 -0.2765
12162DOPC   D2B16285   7.312   0.899  10.994 -0.0050 -0.2238  0.2184
12162DOPC   C3B16286   6.972   0.667  11.163  0.0558 -0.0560  0.0277
12162DOPC   C4B16287   6.721   0.263  11.286 -0.1732  0.2744 -0.4449
12163DOPC   NC316288  23.536   1.460  14.908  0.1879  0.1564 -0.1742
12163DOPC   PO416289  23.799   1.774  14.830 -0.0617  0.3082  0.0151
12163DOPC   GL116290  24.163   1.834  15.010 -0.3708 -0.3622  0.1034
12163DOPC   GL216291  24.077   2.080  15.135  0.5266  0.1843 -0.2951
12163DOPC   C1A16292  24.489   1.693  15.300 -0.4040 -0.1910  0.0090
12163DOPC   D2A16293  24.853   1.829  15.590 -0.1571  0.0503 -0.2817
12163DOPC   C3A16294  25.072   2.115  15.979 -0.1522  0.4536  0.1187
12163DOPC   C4A16295  25.266   2.482  16.256 -0.0611 -0.0010  0.4032
12163DOPC   C1B16296  24.065   2.357  15.465 -0.0094 -0.0731  0.1752
12163DOPC   D2B16297  24.321   2.733  15.721  0.2045 -0.1500 -0.1696
12163DOPC   C3B16298  24.735   2.775  16.003  0.0339  0.1873  0.0353
12163DOPC   C4B16299  25.178   2.993  16.098  0.0086 -0.0636  0.2735
12164DOPC   NC316300  21.174   0.109  17.141  0.3018 -0.3298  0.0750
12164DOPC   PO416301  21.473   0.097  17.388  0.2865 -0.2266  0.1222
12164DOPC   GL116302  21.767   0.212  17.713 -0.1531  0.3991  0.2154
12164DOPC   GL216303  21.814  -0.023  17.791 -0.0985 -0.1718  0.1900
12164DOPC   C1A16304  21.887   0.599  17.902 -0.0079 -0.0208 -0.2912
12164DOPC   D2A16305  22.086   0.902  18.216  0.2617 -0.2724  0.2965
12164DOPC   C3A16306  21.871   1.081  18.606 -0.2019  0.0160 -0.0106
12164DOPC   C4A16307  21.672   1.262  19.025  0.1780 -0.0365  0.0318
12164DOPC   C1B16308  22.210   0.048  18.017 -0.2610 -0.0428  0.0734
12164DOPC   D2B16309  22.599  -0.064  18.251 -0.2614  0.0999 -0.0131
12164DOPC   C3B16310  22.590  -0.005  18.689 -0.0716  0.2752  0.1892
12164DOPC   C4B16311  22.909   0.001  19.173  0.2422  0.0715 -0.0965
12165DOPC   NC316312  19.991   3.745  18.018 -0.0154  0.2083  0.0587
12165DOPC   PO416313  20.146   4.127  17.921 -0.0586  0.3469  0.0720
12165DOPC   GL116314  20.247   4.226  18.324 -0.3081 -0.0375 -0.0629
12165DOPC   GL216315  20.187   3.927  18.385 -0.4204  0.1805  0.2596
12165DOPC   C1A16316  20.158   4.393  18.707  0.0500 -0.0534 -0.1516
12165DOPC   D2A16317  20.166   4.738  19.077  0.0058  0.2038 -0.0443
12165DOPC   C3A16318  20.310   4.682  19.576 -0.0129 -0.1014 -0.2225
12165DOPC   C4A16319  20.554   4.401  19.870  0.0763 -0.1498  0.2493
12165DOPC   C1B16320  20.466   3.781  18.626 -0.3519 -0.1116  0.0530
12165DOPC   D2B16321  20.748   3.526  18.924  0.2250  0.1612  0.0255
12165DOPC   C3B16322  20.530   3.143  19.110 -0.3561  0.0647  0.3249
12165DOPC   C4B16323  20.267   2.834  19.308 -0.0778  0.0525  0.0081
12166DOPC   NC316324  13.818   0.558  14.134 -0.1254  0.5036  0.1061
12166DOPC   PO416325  13.922   0.827  14.441  0.0593 -0.0399  0.3750
12166DOPC   GL116326  14.113   0.851  14.978  0.1608  0.1901  0.0010
12166DOPC   GL216327  13.913   1.095  14.899  0.2166  0.3171 -0.5957
12166DOPC   C1A16328  13.886   0.906  15.339  0.2330  0.0681 -0.0114
12166DOPC   D2A16329  13.629   1.032  15.742 -0.0710 -0.0778  0.0526
12166DOPC   C3A16330  13.200   1.081  15.908  0.1032 -0.0977 -0.0470
12166DOPC   C4A16331  12.757   1.024  16.086 -0.1919 -0.0721 -0.0003
12166DOPC   C1B16332  13.531   1.312  15.073  0.3105 -0.1507 -0.0507
12166DOPC   D2B16333  13.041   1.462  14.998 -0.0578  0.2181  0.0275
12166DOPC   C3B16334  12.668   1.345  15.289 -0.1886 -0.1785  0.0003
12166DOPC   C4B16335  12.495   1.035  15.585 -0.4005 -0.0502  0.3533
12167DOPC   NC316336   5.203   2.032  10.463 -0.0579 -0.2336 -0.1796
12167DOPC   PO416337   5.039   1.668  10.397  0.2875  0.3841 -0.0144
12167DOPC   GL116338   5.326   1.645  10.774  0.1514  0.1641  0.1893
12167DOPC   GL216339   5.062   1.619  10.956  0.1926  0.2447 -0.0154
12167DOPC   C1A16340   5.512   1.287  10.884 -0.1767  0.0257 -0.1063
12167DOPC   D2A16341   5.887   1.113  11.162  0.0422  0.4605  0.2652
12167DOPC   C3A16342   6.095   1.029  11.511  0.2721 -0.1284 -0.1417
12167DOPC   C4A16343   6.149   1.106  12.007 -0.3063  0.1897 -0.1331
12167DOPC   C1B16344   5.238   1.408  11.300 -0.0705  0.0547 -0.1109
12167DOPC   D2B16345   5.501   1.210  11.676  0.0040 -0.1139 -0.0260
12167DOPC   C3B16346   5.648   0.993  12.118 -0.1528  0.2330 -0.1060
12167DOPC   C4B16347   5.812   0.825  12.539 -0.0263 -0.1728  0.2508
12168DOPC   NC316348  10.415   2.655  10.895  0.0329 -0.0869 -0.0202
12168DOPC   PO416349  10.760   2.524  11.068 -0.0358 -0.0282  0.0092
12168DOPC   GL116350  10.750   2.349  11.497 -0.0362 -0.0638 -0.3225
12168DOPC   GL216351  10.472   2.416  11.432 -0.0752 -0.0161 -0.0293
12168DOPC   C1A16352  10.614   1.968  11.741  0.1452 -0.3475 -0.1077
12168DOPC   D2A16353  10.243   1.690  11.981 -0.1668 -0.3466 -0.1176
12168DOPC   C3A16354  10.171   1.931  12.388  0.3020  0.1480 -0.0102
12168DOPC   C4A16355  10.064   2.311  12.670  0.0674  0.0126  0.0813
12168DOPC   C1B16356  10.160   2.253  11.642  0.2557  0.0478  0.3654
12168DOPC   D2B16357   9.875   2.239  12.111  0.0694  0.0449  0.2766
12168DOPC   C3B16358   9.638   2.611  12.410  0.0194 -0.0095  0.0783
12168DOPC   C4B16359   9.321   2.912  12.720 -0.2696  0.1170  0.0906
12169DOPC   NC316360  21.743   5.130  16.568 -0.0039  0.1842  0.2045
12169DOPC   PO416361  21.561   4.805  16.731 -0.1110 -0.1294  0.0619
12169DOPC   GL116362  21.630   4.665  17.076  0.1080 -0.2264 -0.0339
12169DOPC   GL216363  21.969   4.598  17.039  0.2007 -0.1429  0.1060
12169DOPC   C1A16364  21.624   4.990  17.385  0.3451 -0.1560  0.2018
12169DOPC   D2A16365  21.622   5.413  17.697 -0.1113  0.0286  0.1553
12169DOPC   C3A16366  21.788   5.508  18.141  0.1941 -0.2605 -0.0119
12169DOPC   C4A16367  21.828   5.709  18.577  0.1728 -0.0270 -0.2818
12169DOPC   C1B16368  22.325   4.823  17.275  0.3232 -0.4451 -0.0019
12169DOPC   D2B16369  22.673   4.967  17.508  0.0935 -0.2075 -0.0016
12169DOPC   C3B16370  22.740   4.794  17.919 -0.1606  0.0316 -0.3615
12169DOPC   C4B16371  22.981   5.005  18.255 -0.0794 -0.1444  0.3384
12170DOPC   NC316372   6.106   1.233  10.143  0.1293 -0.0360 -0.1144
12170DOPC   PO416373   6.473   1.087  10.208 -0.0789  0.0691  0.0809
12170DOPC   GL116374   6.773   1.070  10.503  0.0809 -0.1111 -0.2937
12170DOPC   GL216375   6.584   1.045  10.666  0.1258 -0.0936 -0.4069
12170DOPC   C1A16376   7.119   1.374  10.618  0.0532 -0.0071 -0.0053
12170DOPC   D2A16377   7.557   1.337  10.848 -0.3405 -0.0234 -0.0017
12170DOPC   C3A16378   7.771   1.278  11.252 -0.2571  0.3625  0.1601
12170DOPC   C4A16379   8.206   1.168  11.167 -0.1614 -0.1879  0.1632
12170DOPC   C1B16380   6.326   1.278  10.941 -0.0332  0.1361 -0.3396
12170DOPC   D2B16381   6.081   1.518  11.370  0.0084 -0.1314  0.0140
12170DOPC   C3B16382   6.345   1.643  11.797 -0.1121  0.0286  0.0397
12170DOPC   C4B16383   6.482   2.022  12.052 -0.1862  0.0880  0.0846
12171DOPC   NC316384  21.130   2.425  17.641  0.2235  0.1421  0.1607
12171DOPC   PO416385  20.931   2.442  17.967  0.1448  0.0641  0.0756
12171DOPC   GL116386  21.233   2.393  18.183 -0.1515  0.2095  0.0577
12171DOPC   GL216387  21.428   2.367  18.067 -0.0385  0.2326  0.1843
12171DOPC   C1A16388  21.272   2.725  18.508 -0.0633  0.0105  0.1093
12171DOPC   D2A16389  21.366   2.953  18.873  0.0102  0.0672 -0.0370
12171DOPC   C3A16390  21.761   3.004  19.160  0.1894 -0.0412  0.1922
12171DOPC   C4A16391  22.094   3.060  19.528  0.3225  0.1013 -0.0107
12171DOPC   C1B16392  21.716   2.482  18.405  0.2100 -0.0481 -0.1558
12171DOPC   D2B16393  21.692   2.573  18.888 -0.0551 -0.0252  0.2042
12171DOPC   C3B16394  21.630   2.300  19.294  0.2087 -0.2817  0.0539
12171DOPC   C4B16395  21.823   2.008  19.681  0.0467 -0.3483 -0.0899
12172DOPC   NC316396  19.237   1.642  18.354  0.0338 -0.2309  0.2743
12172DOPC   PO416397  19.587   1.847  18.276 -0.2005 -0.2000 -0.2069
12172DOPC   GL116398  19.508   2.148  18.476 -0.3788  0.0325  0.0743
12172DOPC   GL216399  19.772   2.136  18.673 -0.0127  0.0032 -0.3323
12172DOPC   C1A16400  19.255   2.104  18.839 -0.0123 -0.0055  0.2674
12172DOPC   D2A16401  19.316   1.966  19.349  0.0121 -0.1049  0.2342
12172DOPC   C3A16402  19.316   1.958  19.835 -0.0313  0.0071  0.2193
12172DOPC   C4A16403  19.485   1.914  20.311 -0.0652 -0.1583 -0.1464
12172DOPC   C1B16404  19.763   2.085  19.110  0.0320 -0.1091 -0.2798
12172DOPC   D2B16405  19.876   1.865  19.562 -0.3656 -0.1373 -0.0299
12172DOPC   C3B16406  20.014   1.690  19.919  0.0191 -0.0307  0.2766
12172DOPC   C4B16407  20.468   1.741  20.231  0.1228  0.1777  0.1830
12173DOPC   NC316408  15.913   7.448  16.805  0.0562  0.0996  0.0341
12173DOPC   PO416409  15.946   7.072  16.915 -0.0475  0.1059 -0.0064
12173DOPC   GL116410  15.838   6.728  17.197 -0.1082 -0.6159  0.1754
12173DOPC   GL216411  15.920   6.889  17.392 -0.3214  0.0195 -0.0417
12173DOPC   C1A16412  15.697   6.486  17.504 -0.1143  0.1224  0.1641
12173DOPC   D2A16413  15.801   6.370  17.983  0.2604  0.1779  0.1479
12173DOPC   C3A16414  15.540   6.177  18.329  0.1459  0.3095  0.0591
12173DOPC   C4A16415  15.220   5.910  18.395 -0.2108  0.3809  0.1471
12173DOPC   C1B16416  15.741   6.849  17.828 -0.0500 -0.1326  0.1295
12173DOPC   D2B16417  15.402   6.678  18.081 -0.0181  0.3675  0.0082
12173DOPC   C3B16418  15.064   6.412  18.292  0.0157 -0.1710 -0.1390
12173DOPC   C4B16419  14.801   6.481  18.644 -0.5093 -0.1252 -0.1432
12174DOPC   NC316420   8.038   5.512  10.312  0.1066  0.1404  0.0323
12174DOPC   PO416421   7.965   5.164  10.353  0.1458  0.1641  0.0769
12174DOPC   GL116422   7.825   4.871  10.723  0.2327  0.2366  0.3488
12174DOPC   GL216423   7.601   4.847  10.621 -0.1628 -0.0624 -0.0793
12174DOPC   C1A16424   7.959   4.789  11.118  0.0309  0.1177  0.3188
12174DOPC   D2A16425   7.946   4.923  11.535  0.3245  0.1592 -0.2759
12174DOPC   C3A16426   8.086   4.907  12.038  0.1186  0.0357 -0.0366
12174DOPC   C4A16427   8.195   4.573  12.446 -0.0362  0.0829 -0.0523
12174DOPC   C1B16428   7.298   4.698  10.878  0.0383  0.0675  0.3411
12174DOPC   D2B16429   7.009   4.652  11.297 -0.4255 -0.1742  0.2094
12174DOPC   C3B16430   7.172   4.582  11.682  0.2223 -0.0683  0.0224
12174DOPC   C4B16431   7.274   4.554  12.157  0.0270  0.0109 -0.0440
12175DOPC   NC316432  24.966   2.161  12.757  0.0358 -0.1362 -0.1983
12175DOPC   PO416433  25.304   2.395  12.883  0.2046  0.2142 -0.1662
12175DOPC   GL116434  25.453   2.330  13.185  0.3200  0.1522  0.0090
12175DOPC   GL216435  25.563   2.110  13.310 -0.0931 -0.4016 -0.1681
12175DOPC   C1A16436  25.701   2.589  13.484  0.1076  0.2638  0.1017
12175DOPC   D2A16437  25.866   3.016  13.602 -0.3275 -0.0324 -0.1009
12175DOPC   C3A16438  26.300   2.988  13.889 -0.3136 -0.2210  0.2088
12175DOPC   C4A16439  26.688   3.062  14.160 -0.1321  0.2637 -0.1345
12175DOPC   C1B16440  25.942   2.138  13.511  0.2032  0.1573  0.1257
12175DOPC   D2B16441  26.409   2.063  13.483 -0.3577  0.1773 -0.1236
12175DOPC   C3B16442  26.480   1.913  13.930 -0.1465 -0.0076 -0.1079
12175DOPC   C4B16443  26.586   1.592  14.334 -0.0162  0.0966  0.1127
12176DOPC   NC316444  24.547   3.815  13.962  0.2845  0.2014  0.0139
12176DOPC   PO416445  24.798   3.605  13.855 -0.4136  0.1957  0.0720
12176DOPC   GL116446  25.252   3.526  13.992  0.0473 -0.2799  0.0626
12176DOPC   GL216447  25.024   3.594  14.240  0.1660  0.1050 -0.2777
12176DOPC   C1A16448  25.467   3.501  14.377 -0.1195 -0.2621 -0.0617
12176DOPC   D2A16449  25.515   3.133  14.718  0.1462  0.0213 -0.0875
12176DOPC   C3A16450  25.808   2.978  15.076  0.2313 -0.3159  0.2513
12176DOPC   C4A16451  26.203   3.033  15.394  0.0216  0.1996  0.0381
12176DOPC   C1B16452  25.027   3.346  14.614 -0.0086  0.0098 -0.0209
12176DOPC   D2B16453  24.961   3.136  15.071 -0.0000  0.1925  0.1790
12176DOPC   C3B16454  25.337   3.076  15.352  0.2750  0.1873  0.1417
12176DOPC   C4B16455  25.514   2.862  15.684 -0.0600 -0.2475 -0.0415
12177DOPC   NC316456   0.035   3.187  13.329  0.1056 -0.0541  0.3901
12177DOPC   PO416457  -0.198   3.122  13.636 -0.1193 -0.0041 -0.1299
12177DOPC   GL116458   0.069   3.052  13.899  0.1674  0.1327 -0.1073
12177DOPC   GL216459   0.215   2.902  13.718  0.1673 -0.1569  0.1395
12177DOPC   C1A16460   0.076   2.835  14.234 -0.1335 -0.1643  0.0741
12177DOPC   D2A16461   0.413   2.672  14.493  0.2067  0.0393  0.0435
12177DOPC   C3A16462   0.636   2.575  14.833 -0.2884 -0.0531  0.2411
12177DOPC   C4A16463   1.027   2.631  15.075 -0.1016 -0.3373  0.1663
12177DOPC   C1B16464   0.499   2.626  13.968 -0.1588 -0.1105 -0.0884
12177DOPC   D2B16465   0.820   2.410  14.230  0.1759 -0.0525 -0.1988
12177DOPC   C3B16466   1.103   2.483  14.601 -0.0572 -0.0632 -0.0711
12177DOPC   C4B16467   1.486   2.417  14.850 -0.1506 -0.0861 -0.0929
12178DOPC   NC316468   7.144   5.676   9.961  0.0375  0.1994 -0.2751
12178DOPC   PO416469   7.125   6.081   9.971 -0.3742 -0.0450 -0.0327
12178DOPC   GL116470   7.524   6.213  10.296  0.1515 -0.0609  0.3189
12178DOPC   GL216471   7.331   6.472  10.214 -0.0170 -0.2397  0.0147
12178DOPC   C1A16472   7.638   6.175  10.740 -0.5943  0.0495 -0.0248
12178DOPC   D2A16473   7.739   6.114  11.181 -0.2904  0.2192 -0.1667
12178DOPC   C3A16474   7.849   6.172  11.666  0.2522 -0.1444 -0.1652
12178DOPC   C4A16475   7.617   6.276  12.103 -0.2564 -0.1069  0.2762
12178DOPC   C1B16476   7.307   6.645  10.593  0.0680  0.2809 -0.3337
12178DOPC   D2B16477   7.062   6.783  11.008  0.2918  0.2568 -0.0220
12178DOPC   C3B16478   7.021   6.686  11.487  0.1087  0.0736  0.0977
12178DOPC   C4B16479   7.169   6.544  11.956  0.2518  0.3317 -0.0255
12179DOPC   NC316480  10.235   1.907  11.214 -0.2289  0.2306 -0.2518
12179DOPC   PO416481  10.208   2.233  10.980 -0.2836 -0.0198 -0.0237
12179DOPC   GL116482  10.103   2.586  11.193  0.1937  0.2056 -0.0592
12179DOPC   GL216483   9.856   2.503  11.204  0.3101 -0.3429  0.4245
12179DOPC   C1A16484   9.939   2.878  11.521 -0.1661  0.0166  0.1898
12179DOPC   D2A16485   9.689   2.962  11.958 -0.4535 -0.1951  0.1476
12179DOPC   C3A16486   9.618   3.255  12.286 -0.1844  0.0064 -0.0151
12179DOPC   C4A16487   9.842   3.577  12.644  0.0215  0.1522  0.1442
12179DOPC   C1B16488   9.588   2.503  11.590 -0.2382 -0.0066 -0.0674
12179DOPC   D2B16489   9.377   2.560  12.023 -0.1620 -0.2751  0.2213
12179DOPC   C3B16490   9.193   2.987  12.089  0.0553  0.1818  0.0979
12179DOPC   C4B16491   8.941   3.360  12.051  0.0136 -0.1765  0.0515
12180DOPC   NC316492  13.411   0.564  13.530  0.0590  0.0629 -0.0947
12180DOPC   PO416493  13.534   0.822  13.827 -0.1508 -0.0178  0.0585
12180DOPC   GL116494  13.151   0.722  13.869 -0.1037 -0.0060  0.2131
12180DOPC   GL216495  13.223   0.674  14.180 -0.0027 -0.0548 -0.2989
12180DOPC   C1A16496  12.779   0.851  13.686 -0.0695  0.0319 -0.1337
12180DOPC   D2A16497  12.300   0.949  13.683  0.1294  0.0935 -0.0012
12180DOPC   C3A16498  12.057   1.214  14.029 -0.2060 -0.1330  0.0606
12180DOPC   C4A16499  11.695   1.429  14.353 -0.2387 -0.0896  0.2430
12180DOPC   C1B16500  12.979   0.644  14.515  0.2968 -0.4690  0.2364
12180DOPC   D2B16501  13.132   0.451  15.000  0.1070 -0.1865 -0.1535
12180DOPC   C3B16502  12.969   0.351  15.388  0.0179  0.2204  0.2347
12180DOPC   C4B16503  12.561   0.051  15.444  0.3957 -0.1388  0.0841
12181DOPC   NC316504   4.165   6.481  10.698 -0.1390 -0.0334  0.1945
12181DOPC   PO416505   4.483   6.274  10.754 -0.0469 -0.1889  0.2519
12181DOPC   GL116506   4.757   6.158  11.049  0.1969  0.2268 -0.1263
12181DOPC   GL216507   4.863   6.408  11.064  0.0604 -0.0064  0.1961
12181DOPC   C1A16508   4.596   5.987  11.387 -0.1884  0.3270 -0.0196
12181DOPC   D2A16509   4.726   5.966  11.913 -0.0099 -0.0728  0.1477
12181DOPC   C3A16510   5.108   6.060  11.719 -0.0416  0.3372 -0.3614
12181DOPC   C4A16511   5.572   6.120  11.593  0.1013 -0.3101 -0.1074
12181DOPC   C1B16512   4.887   6.502  11.456 -0.0783  0.0135 -0.0449
12181DOPC   D2B16513   4.820   6.490  11.949 -0.1674  0.3239  0.2858
12181DOPC   C3B16514   5.067   6.200  12.258  0.0453  0.1312 -0.0423
12181DOPC   C4B16515   5.405   6.027  12.510 -0.0384  0.2305 -0.5340
12182DOPC   NC316516  23.440   2.855  15.767  0.1608  0.0502 -0.1431
12182DOPC   PO416517  23.245   2.830  16.112 -0.1950  0.0576  0.4586
12182DOPC   GL116518  23.509   2.899  16.440  0.1975  0.3741  0.0301
12182DOPC   GL216519  23.674   2.593  16.323  0.1649  0.0277  0.0221
12182DOPC   C1A16520  23.812   3.153  16.644 -0.2279 -0.1615 -0.1345
12182DOPC   D2A16521  23.943   3.626  16.686  0.2749 -0.3133 -0.0428
12182DOPC   C3A16522  24.274   3.894  16.839 -0.2707 -0.0761  0.0174
12182DOPC   C4A16523  24.758   4.117  16.856 -0.0222  0.0658 -0.1292
12182DOPC   C1B16524  23.999   2.356  16.553  0.0058 -0.1375 -0.2700
12182DOPC   D2B16525  24.425   2.167  16.687  0.0701 -0.2287 -0.2243
12182DOPC   C3B16526  24.504   1.715  16.880 -0.1691  0.2328  0.0544
12182DOPC   C4B16527  24.468   1.488  17.326  0.0397  0.1024  0.0986
12183DOPC   NC316528  23.089   0.791  15.439  0.1296 -0.1143 -0.2915
12183DOPC   PO416529  23.414   0.576  15.403 -0.0635 -0.0753  0.0541
12183DOPC   GL116530  23.846   0.592  15.605 -0.2941  0.0983 -0.1863
12183DOPC   GL216531  23.885   0.275  15.546  0.1976 -0.1428  0.0007
12183DOPC   C1A16532  24.288   0.474  15.697 -0.0068  0.0166 -0.0775
12183DOPC   D2A16533  24.712   0.532  15.984 -0.0269 -0.1617 -0.1580
12183DOPC   C3A16534  24.760   0.888  16.285  0.0164  0.0081 -0.1020
12183DOPC   C4A16535  24.621   1.284  16.566  0.0795  0.1004  0.3803
12183DOPC   C1B16536  23.947   0.245  16.045  0.2507 -0.3184  0.1950
12183DOPC   D2B16537  24.325   0.298  16.389  0.1956 -0.2740  0.0396
12183DOPC   C3B16538  24.564   0.342  16.770  0.6280 -0.1249  0.1360
12183DOPC   C4B16539  24.963   0.410  17.013 -0.0038  0.1460  0.0133
12184DOPC   NC316540   1.999   7.812  11.998  0.1851  0.0560 -0.0837
12184DOPC   PO416541   2.170   8.136  11.784 -0.1310 -0.1184  0.0031
12184DOPC   GL116542   2.327   8.165  12.144  0.0737 -0.2553 -0.0461
12184DOPC   GL216543   2.139   8.256  12.318 -0.2196 -0.2009  0.0286
12184DOPC   C1A16544   2.724   8.116  12.273  0.1845  0.1658  0.1455
12184DOPC   D2A16545   3.126   8.280  12.421  0.0304  0.3278  0.0502
12184DOPC   C3A16546   3.411   8.551  12.193  0.3275 -0.1670  0.0952
12184DOPC   C4A16547   3.840   8.722  12.304  0.0180  0.0926 -0.3883
12184DOPC   C1B16548   2.228   8.329  12.716 -0.1058 -0.0170 -0.0331
12184DOPC   D2B16549   2.346   8.304  13.181 -0.1183 -0.1915 -0.3144
12184DOPC   C3B16550   2.716   8.512  13.400  0.1887 -0.0654  0.1124
12184DOPC   C4B16551   3.142   8.534  13.537 -0.0815  0.1343 -0.0364
12185DOPC   NC316552  23.406   5.956  15.457  0.1805  0.2006 -0.1319
12185DOPC   PO416553  23.284   6.319  15.486 -0.2789 -0.2815  0.1021
12185DOPC   GL116554  23.447   6.582  15.823 -0.1232 -0.0942  0.3358
12185DOPC   GL216555  23.172   6.668  15.922 -0.1314 -0.0718 -0.1691
12185DOPC   C1A16556  23.788   6.590  16.139  0.0814 -0.0471 -0.1466
12185DOPC   D2A16557  24.009   6.111  16.392 -0.1661 -0.1850  0.2102
12185DOPC   C3A16558  24.091   6.231  16.873  0.0195  0.2662  0.0882
12185DOPC   C4A16559  24.295   6.179  17.295  0.1878 -0.2110 -0.2241
12185DOPC   C1B16560  23.401   6.878  16.242 -0.1634  0.0369  0.0073
12185DOPC   D2B16561  23.725   6.890  16.631  0.3410 -0.0270 -0.2060
12185DOPC   C3B16562  23.890   6.687  17.125 -0.1628  0.1811 -0.2442
12185DOPC   C4B16563  23.583   6.728  17.536 -0.1567  0.0118  0.2792
12186DOPC   NC316564  17.244   5.838  17.075  0.0397  0.1408 -0.0740
12186DOPC   PO416565  16.942   5.781  17.314  0.2187  0.1287  0.1661
12186DOPC   GL116566  16.745   5.765  17.692  0.0670  0.2009 -0.1024
12186DOPC   GL216567  16.822   6.057  17.741  0.0129  0.1953 -0.0841
12186DOPC   C1A16568  16.431   5.645  17.877  0.0205 -0.3053  0.1055
12186DOPC   D2A16569  16.064   5.515  18.191  0.0274  0.1467  0.0604
12186DOPC   C3A16570  15.847   5.763  18.526  0.2183 -0.0882 -0.0183
12186DOPC   C4A16571  15.474   5.752  18.814  0.0577 -0.0206 -0.0945
12186DOPC   C1B16572  16.741   5.997  18.185 -0.2791  0.2159 -0.1225
12186DOPC   D2B16573  16.571   6.176  18.651  0.0590 -0.0188 -0.0429
12186DOPC   C3B16574  16.544   6.208  19.079 -0.0310  0.3471 -0.2335
12186DOPC   C4B16575  16.447   6.386  19.511 -0.0958 -0.0997 -0.0476
12187DOPC   NC316576  14.164   6.862  14.632 -0.1628  0.1437  0.2197
12187DOPC   PO416577  14.079   6.471  14.635  0.0338 -0.1351  0.4310
12187DOPC   GL116578  13.935   6.561  15.105 -0.2391 -0.1835  0.1920
12187DOPC   GL216579  13.833   6.796  15.007 -0.2643  0.1098  0.1610
12187DOPC   C1A16580  13.745   6.324  15.420 -0.1106 -0.3521  0.1032
12187DOPC   D2A16581  13.798   6.286  15.910  0.1335  0.1306  0.1043
12187DOPC   C3A16582  13.511   6.125  16.317  0.0252  0.3065 -0.0469
12187DOPC   C4A16583  13.444   5.914  16.756 -0.1964  0.0182  0.2118
12187DOPC   C1B16584  13.430   6.819  15.074 -0.0304  0.2943 -0.0332
12187DOPC   D2B16585  13.267   7.158  15.354  0.0138  0.1799 -0.2027
12187DOPC   C3B16586  13.240   7.296  15.806 -0.0984 -0.3124  0.0081
12187DOPC   C4B16587  12.953   7.468  16.120  0.2914 -0.2727  0.2079
12188W        W16588  23.852   7.578  14.446  0.0558  0.1118 -0.2386
12189W        W16589   3.545   7.644  29.882 -0.1729  0.1243  0.2219
12190W        W16590   2.447   7.803  19.152  0.3666 -0.1444 -0.2107
12191W        W16591   8.756   2.917  24.893  0.1182 -0.0640  0.0163
12192W        W16592   9.180   6.828  27.696  0.0708 -0.1857 -0.2222
12193W        W16593  14.382   3.040  26.549 -0.1607  0.0428 -0.1437
12194W        W16594   9.938   0.315  29.767  0.1221 -0.0044  0.1412
12195W        W16595   8.586   2.209  20.572 -0.1189  0.2226 -0.0166
12196W        W16596  13.039   1.942   8.206  0.0231 -0.0737  0.1015
12197W        W16597  21.143   4.941  12.291 -0.0598  0.0174 -0.0124
12198W        W16598   4.922   7.694  21.025  0.0662 -0.3304 -0.1221
12199W        W16599  12.252   1.534  29.669  0.0130 -0.0615 -0.0773
12200W        W16600  16.974   7.262   2.644  0.0269  0.2668  0.2136
12201W        W16601   1.705   2.577  25.259 -0.0336 -0.3036 -0.2483
12202W        W16602   5.138   3.855  22.762 -0.2588 -0.0099  0.0831
12203W        W16603   3.991   6.994  27.683 -0.0888 -0.0189  0.2487
12204W        W16604   7.573   0.868   7.377  0.1636  0.0022  0.2850
12205W        W16605   3.086   2.834  25.419  0.0033 -0.1804 -0.0472
12206W        W16606  18.540   7.166  17.184 -0.1955 -0.2301 -0.0185
12207W        W16607   0.980   1.063  26.957 -0.0216 -0.0629 -0.0582
12208W        W16608   0.334   0.649   5.832  0.0045  0.0179 -0.2085
12209W        W16609   0.204   3.382   2.739 -0.0616 -0.0578  0.0578
12210W        W16610  23.529   6.190  31.758  0.1272 -0.1405 -0.4598
12211W        W16611  16.010   7.706  28.918  0.0941  0.1169  0.1905
12212W        W16612  12.690   0.152  20.695 -0.0430 -0.3144  0.2004
12213W        W16613   3.828   4.084  23.276  0.0693  0.1635  0.3340
12214W        W16614   2.004   3.100   6.483 -0.3251  0.0241  0.4231
12215W        W16615  15.652   4.855  11.383 -0.1439  0.0075  0.2214
12216W        W16616  24.587   4.477  22.960  0.2455 -0.2441  0.0314
12217W        W16617   2.903   6.828   8.462 -0.2397  0.0290 -0.0642
12218W        W16618   4.272   4.268   3.650 -0.0413 -0.0823  0.0001
12219W        W16619   3.500   0.158   1.113 -0.3090  0.2423 -0.1124
12220W        W16620   5.110   1.053  23.651 -0.0923  0.1691  0.0279
12221W        W16621  17.960   6.226   0.110  0.0294 -0.1933 -0.0237
12222W        W16622  20.809   0.452  27.966  0.3268  0.1471  0.2970
12223W        W16623  23.102   4.043  30.283  0.2996  0.0268 -0.2736
12224W        W16624  12.745   4.591   8.854 -0.0874  0.0365 -0.1407
12225W        W16625  15.860   4.387  28.829  0.1180 -0.0081  0.1548
12226W        W16626  17.895   1.591  23.111  0.2756  0.2165  0.2511
12227W        W16627   0.311   3.806  28.543 -0.0716 -0.0506  0.1000
12228W        W16628   6.272   3.732  15.548  0.1145  0.1151 -0.1041
12229W        W16629   4.794   4.316   2.301  0.1316  0.1871 -0.1493
12230W        W16630  10.498   3.815  18.132  0.1119  0.1091 -0.0492
12231W        W16631  17.339   0.827  11.723 -0.3707 -0.0124 -0.0001
12232W        W16632   2.428   1.722  19.378 -0.1455 -0.0150  0.4376
12233W        W16633  22.311   4.208  25.313  0.2627 -0.1492  0.1518
12234W        W16634   0.264   7.436   4.114 -0.2218 -0.1915 -0.2280
12235W        W16635  15.381   7.456   5.489  0.2389 -0.0462  0.1230
12236W        W16636  21.239   4.433  16.496  0.0653  0.2680 -0.0940
12237W        W16637   1.317   6.232   7.153 -0.3689 -0.0048 -0.1686
12238W        W16638   1.072   7.300  11.855 -0.0235 -0.0313  0.1914
12239W        W16639   3.711   0.589  23.571 -0.1481  0.0672  0.3226
12240W        W16640  11.056   3.112  28.759 -0.1071  0.0925  0.1075
12241W        W16641  12.290   3.222   4.754 -0.0955  0.0208  0.0371
12242W        W16642  11.365   3.603   7.969 -0.0413 -0.0371 -0.0252
12243W        W16643  14.459   7.177  32.005 -0.1680 -0.0343  0.0628
12244W        W16644  16.784   6.010   9.195 -0.2862  0.3305  0.1757
12245W        W16645  15.285   5.602  22.600  0.2289  0.1545  0.1495
12246W        W16646  15.333   4.410  28.933 -0.1343 -0.0074  0.1526
12247W        W16647  24.248   0.790  24.449 -0.1201 -0.1351 -0.0196
12248W        W16648  23.894   0.658   1.624  0.3995 -0.1226  0.0284
12249W        W16649   7.538   0.268  21.815  0.0525 -0.3701  0.0267
12250W        W16650   1.866   4.446  29.863  0.2334 -0.0410 -0.4087
12251W        W16651  12.481   4.326  28.170 -0.3880  0.0077  0.0957
12252W        W16652   3.069   5.972  25.663  0.0226  0.2167  0.2207
12253W        W16653  23.403   3.663  23.540 -0.0316 -0.1836 -0.2397
12254W        W16654  12.156   4.102   3.027  0.3043 -0.0792 -0.3425
12255W        W16655   8.784   0.196   9.415  0.2375 -0.2543  0.1732
12256W        W16656   0.399   7.054   9.290  0.2966  0.1840  0.2646
12257W        W16657  21.243   4.246   5.577  0.1473  0.1757  0.0429
12258W        W16658  16.456   4.811  11.033  0.0064 -0.0442  0.0273
12259W        W16659   9.333   5.231  16.501  0.1674  0.0532  0.2812
12260W        W16660  23.157   3.192  31.956  0.0429  0.0415 -0.1265
12261W        W16661  14.468   6.566  30.494  0.1735 -0.2422 -0.0594
12262W        W16662   0.005   0.795  19.856  0.0348  0.2247 -0.0579
12263W        W16663  20.823   6.628  17.260  0.0044 -0.0227 -0.1380
12264W        W16664   3.074   4.777  29.915  0.1576  0.0728  0.3212
12265W        W16665   5.461   0.090   8.047 -0.1723 -0.1804  0.0793
12266W        W16666   0.385   3.390  32.163 -0.0879  0.3272 -0.0004
12267W        W16667   4.917   7.189  26.033 -0.1789 -0.1765  0.0144
12268W        W16668  17.477   5.048  25.433  0.1307 -0.1073 -0.1967
12269W        W16669  21.457   0.782  25.705  0.1106  0.1282  0.1107
12270W        W16670   4.773   6.302  25.609  0.1415  0.1454  0.1107
12271W        W16671   8.985   0.355  20.795 -0.1769 -0.1056  0.0563
12272W        W16672  20.361   1.549   0.591 -0.2940  0.1217 -0.1727
12273W        W16673  15.874   2.680   2.305 -0.2464 -0.2874 -0.0547
12274W        W16674   5.988   0.254   8.775 -0.0794  0.2630 -0.1358
12275W        W16675  20.306   0.999  31.501  0.0995  0.0090 -0.0017
12276W        W16676  15.915   1.717  32.566  0.0069  0.0194  0.0760
12277W        W16677   8.408   2.420  30.493 -0.1436  0.2067 -0.0509
12278W        W16678  20.843   3.819   1.937 -0.1813 -0.0630 -0.2283
12279W        W16679  22.638   2.204  24.245 -0.0448 -0.1064 -0.0865
12280W        W16680  18.654   1.069  14.492  0.1915  0.0809 -0.0355
12281W        W16681  18.008   4.454   1.248 -0.0613  0.0270  0.0315
12282W        W16682   2.672   2.921   3.224  0.1716  0.2386  0.0315
12283W        W16683   5.267   1.864  17.877  0.1470 -0.0805  0.1887
12284W        W16684  24.615   3.171   1.933  0.1220  0.1107 -0.1333
12285W        W16685   9.506   1.335   9.221 -0.1327  0.1669  0.0716
12286W        W16686  10.424   1.218   4.412  0.0507 -0.0835 -0.0236
12287W        W16687   1.998   0.780   8.996 -0.0546 -0.1109  0.0088
12288W        W16688  15.504   2.662  17.196  0.1033 -0.0757  0.0459
12289W        W16689  21.698   1.690   0.033 -0.1735 -0.1570  0.1807
12290W        W16690   6.528   1.519   6.345  0.2526 -0.0511 -0.3050
12291W        W16691  23.892   5.464   0.353  0.1372  0.0138  0.1594
12292W        W16692  19.490   7.054  24.311 -0.4802 -0.0271  0.0010
12293W        W16693  15.815   0.479   8.727 -0.0153 -0.1045  0.1382
12294W        W16694   6.264   5.643  21.792  0.0173  0.1540 -0.0741
12295W        W16695   2.392   6.659  28.280  0.0148 -0.1549  0.2080
12296W        W16696   2.534   0.186  21.834  0.4466 -0.2517 -0.1314
12297W        W16697   3.942   4.912   3.283  0.2427 -0.0297 -0.1393
12298W        W16698   1.094   3.583  22.439  0.2328 -0.2652 -0.1192
12299W        W16699   4.091   7.702  22.266 -0.1964  0.0137 -0.0034
12300W        W16700   5.954   7.712   5.925 -0.0654 -0.1598 -0.0323
12301W        W16701  19.268   1.512   6.371  0.4611 -0.0489  0.1878
12302W        W16702  23.163   7.293   8.147 -0.1711  0.1689 -0.1614
12303W        W16703  23.593   0.370  29.922 -0.2779 -0.0379  0.1080
12304W        W16704  10.222   4.294  22.338  0.1504 -0.1631 -0.0321
12305W        W16705  22.477   4.696   9.072 -0.0552  0.1408 -0.0318
12306W        W16706   3.971   2.817  28.679 -0.0110  0.1128  0.0227
12307W        W16707  21.702   7.647   9.646 -0.0535 -0.0736  0.1344
12308W        W16708   3.868   6.081   8.017  0.1010  0.1212  0.2820
12309W        W16709  22.826   0.915  26.253 -0.1381 -0.0083 -0.1456
12310W        W16710  17.723   3.856  32.269  0.2336 -0.4094  0.1305
12311W        W16711  19.768   6.614  10.272  0.0640  0.2716  0.0929
12312W        W16712   3.840   6.848   1.819 -0.1182 -0.2991 -0.2170
12313W        W16713   2.170   6.169   5.831 -0.0473  0.3523  0.1423
12314W        W16714  17.865   3.089   6.575  0.1132 -0.0142 -0.3376
12315W        W16715  24.772   7.466  27.152  0.1929 -0.2186 -0.1067
12316W        W16716  12.050   4.350  29.204  0.0782 -0.0607  0.0148
12317W        W16717  15.750   1.132  12.269 -0.0131 -0.1645  0.0096
12318W        W16718  10.078   4.778  32.016  0.1352  0.0288 -0.1684
12319W        W16719  13.556   6.724  25.634  0.2433  0.1356 -0.0464
12320W        W16720   5.044   6.064  32.152 -0.0104  0.0230  0.0501
12321W        W16721  18.492   4.515   9.004  0.1912  0.1227 -0.2835
12322W        W16722  24.887   7.617  31.406  0.0523  0.3182 -0.1286
12323W        W16723  23.458   3.866   7.472 -0.4201 -0.1556 -0.0215
12324W        W16724  14.503   3.609   1.006  0.1400 -0.0776  0.1233
12325W        W16725   8.929   4.608  14.633  0.1261 -0.0184 -0.1147
12326W        W16726  22.761   2.531   8.086  0.1804 -0.0583  0.1160
12327W        W16727   5.146   2.247  22.209  0.0306  0.1082  0.1075
12328W        W16728   8.134   5.378  21.955 -0.0793 -0.2694  0.2573
12329W        W16729  15.551   4.282  22.022 -0.1933  0.2045  0.1764
12330W        W16730   5.745   7.593  18.923  0.1950 -0.0077  0.1973
12331W        W16731   1.919   7.816  20.319 -0.2405 -0.0585  0.0603
12332W        W16732   7.724   4.910   9.794  0.1989  0.2254 -0.3173
12333W        W16733   3.013   3.175  22.285  0.0602 -0.0856 -0.1152
12334W        W16734  18.128   4.506  25.180 -0.3090  0.1450 -0.0490
12335W        W16735   5.680   6.543   6.592 -0.0506 -0.0106 -0.0248
12336W        W16736  12.375   7.329   4.778  0.0769 -0.0759  0.2319
12337W        W16737  11.002   3.233  31.625  0.2453  0.1095 -0.1972
12338W        W16738   4.809   7.090   4.725  0.2893 -0.0544  0.1552
12339W        W16739  20.092   1.547   1.069 -0.1081 -0.2219 -0.2476
12340W        W16740  20.197   4.377  30.761  0.1997 -0.1750 -0.0719
12341W        W16741   0.976   7.848  22.090  0.3325 -0.2171  0.2397
12342W        W16742   1.894   7.110  32.420 -0.0041 -0.3100 -0.0838
12343W        W16743   3.690   3.885  22.702 -0.3299  0.1078 -0.2136
12344W        W16744  15.823   7.065  26.782 -0.1480 -0.2115  0.4415
12345W        W16745   7.983   4.742   7.914  0.0861  0.0860  0.3286
12346W        W16746   9.871   1.575  23.551  0.1975 -0.0641  0.1407
12347W        W16747  13.623   6.253  25.848  0.1266  0.1042  0.1499
12348W        W16748   6.899   2.236  28.180 -0.1776 -0.0552 -0.2637
12349W        W16749   7.688   1.730   0.969  0.0552 -0.1084  0.0197
12350W        W16750  24.377   3.530  12.614 -0.1475  0.0751  0.2522
12351W        W16751  18.893   4.788  17.625 -0.0692  0.3211  0.0321
12352W        W16752  16.518   2.144  28.774  0.0788 -0.0166  0.0073
12353W        W16753  17.644   3.966   3.209  0.1863 -0.0211 -0.1228
12354W        W16754   2.481   3.465  22.960  0.0351  0.0821  0.2419
12355W        W16755  14.269   5.285  13.232 -0.0883 -0.2526  0.2158
12356W        W16756  19.112   3.440   0.680  0.1673 -0.0016  0.2102
12357W        W16757   0.693   7.319   0.697  0.0442  0.3155 -0.3619
12358W        W16758  14.046   4.124  12.703 -0.0493 -0.1150 -0.1537
12359W        W16759   6.266   3.440   9.889  0.1232  0.0671  0.0751
12360W        W16760  21.948   0.416  22.861 -0.1477 -0.1152 -0.0739
12361W        W16761  12.972   7.355  11.429  0.1146  0.0158 -0.2817
12362W        W16762   8.493   5.891  21.435  0.0226  0.0610 -0.1632
12363W        W16763  17.790   5.777   3.240 -0.1183  0.1718 -0.2208
12364W        W16764   8.934   0.832  27.871  0.1744  0.0647  0.0849
12365W        W16765   8.106   7.052   0.937 -0.0051  0.0080  0.2695
12366W        W16766   4.392   0.833  15.236  0.0958 -0.2548  0.2753
12367W        W16767  13.141   0.664  30.614  0.3760 -0.1325  0.1706
12368W        W16768   2.452   5.945  10.759  0.0888  0.2242  0.0043
12369W        W16769  10.102   1.749  18.789  0.1436  0.2037  0.0951
12370W        W16770   9.304   4.345  14.837 -0.1739  0.0663  0.2726
12371W        W16771   2.234   1.573  25.960 -0.1301  0.1808  0.2964
12372W        W16772   6.646   5.330  19.783 -0.0374 -0.2155  0.0361
12373W        W16773   5.494   5.720  17.997  0.0745  0.0523  0.1078
12374W        W16774   3.263   2.268   3.480  0.0133  0.2925 -0.0176
12375W        W16775   5.318   4.306  23.548  0.3060 -0.1324  0.1061
12376W        W16776  24.234   0.669  22.184  0.1499  0.0121 -0.0491
12377W        W16777   2.070   4.578  10.301 -0.2141  0.2138 -0.0242
12378W        W16778  22.326   7.322   0.242 -0.1530 -0.2721 -0.1333
12379W        W16779  19.526   5.995   5.419 -0.0514 -0.1090 -0.0709
12380W        W16780  10.146   3.642   4.916  0.0308  0.0195 -0.2610
12381W        W16781  18.089   5.166  26.531  0.0427  0.0173 -0.0913
12382W        W16782  17.762   0.709   8.680 -0.1381 -0.1514 -0.0345
12383W        W16783  14.821   6.850   4.141 -0.1042  0.1514 -0.3325
12384W        W16784  18.334   6.703  12.286 -0.1364  0.0982 -0.0386
12385W        W16785  13.778   2.188  12.461  0.1331 -0.1869  0.2195
12386W        W16786  11.733   4.969   7.929 -0.1018  0.2782  0.0228
12387W        W16787  11.121   7.533   1.985 -0.2792 -0.0967  0.2986
12388W        W16788  23.863   1.960  30.642 -0.1859  0.1131 -0.0699
12389W        W16789   9.910   1.519  24.111 -0.2114  0.1565 -0.0931
12390W        W16790   9.490   0.466   2.033  0.1565 -0.2141  0.2854
12391W        W16791  19.838   1.363  22.159  0.0982  0.1809 -0.0553
12392W        W16792  14.378   3.059  32.363 -0.0082  0.0682  0.1416
12393W        W16793   0.716   4.672   7.617 -0.1601  0.1192 -0.0294
12394W        W16794  16.681   5.722  25.145 -0.3394  0.1122 -0.0112
12395W        W16795  19.383   3.298  28.398  0.0732 -0.2672 -0.2267
12396W        W16796   5.272   5.512   6.216 -0.0394  0.0838  0.0297
12397W        W16797   0.025   6.963  30.866 -0.0806  0.0577  0.4633
12398W        W16798   3.777   0.356  21.611  0.0492 -0.3098 -0.0439
12399W        W16799  15.287   3.356  13.678 -0.0480 -0.2741 -0.1874
12400W        W16800   9.739   6.720  22.163 -0.0924 -0.0973 -0.2314
12401W        W16801  25.148   3.568   8.213  0.0243 -0.1730  0.4121
12402W        W16802  13.876   4.480  30.889  0.0104  0.0419  0.0836
12403W        W16803  10.931   0.835   2.755 -0.1242 -0.5298 -0.0298
12404W        W16804  14.767   6.955   0.216  0.1003  0.3513  0.3108
12405W        W16805   5.814   6.709  31.055  0.2099  0.0244  0.2575
12406W        W16806   2.978   1.795  10.137  0.0741  0.1492  0.0877
12407W        W16807  20.344   0.274  24.536 -0.1269  0.0304  0.0879
12408W        W16808  23.365   7.304   5.566  0.3708 -0.1776 -0.1368
12409W        W16809  11.302   0.243   4.688  0.0569 -0.1964 -0.1233
12410W        W16810  11.957   6.642  10.173  0.1001  0.1352  0.1269
12411W        W16811  23.839   6.072  23.046 -0.0171 -0.0344  0.2000
12412W        W16812   3.236   6.959   9.436 -0.0838  0.2844  0.2506
12413W        W16813   9.380   2.599  27.062  0.0775 -0.1071  0.1046
12414W        W16814  21.061   6.260  26.455  0.2911  0.0407 -0.1153
12415W        W16815  21.554   6.585   6.311 -0.1678  0.1222 -0.1889
12416W        W16816   6.275   7.250  23.702 -0.1492 -0.0129  0.2117
12417W        W16817   0.037   2.207  11.815  0.0186 -0.1458  0.0358
12418W        W16818   4.171   0.642   8.158  0.0597 -0.2358  0.4010
12419W        W16819   3.295   2.346  27.775  0.0192  0.0792  0.2983
12420W        W16820  10.686   1.081  18.341  0.2350 -0.0307 -0.2136
12421W        W16821  18.795   2.576  23.915 -0.1125 -0.3245 -0.0324
12422W        W16822   9.054   3.933   5.704 -0.1256 -0.0013  0.2563
12423W        W16823   4.840   2.947  26.314  0.1981 -0.0394 -0.2821
12424W        W16824   2.607   5.195  10.221 -0.0456  0.2200 -0.2057
12425W        W16825  18.632   0.819  23.404 -0.0859 -0.0210 -0.0206
12426W        W16826   9.414   4.431   7.766  0.1135  0.0809 -0.0129
12427W        W16827   9.018   1.493  24.325  0.0535  0.0721 -0.1201
12428W        W16828  19.970   3.345  23.300 -0.1400 -0.0609  0.2383
12429W        W16829  13.799   2.527   6.584 -0.1868  0.3535 -0.0782
12430W        W16830  17.938   1.626   7.414  0.0171 -0.0055  0.3130
12431W        W16831   9.357   1.899   7.952 -0.2527  0.1731  0.0631
12432W        W16832  11.491   6.278  10.756 -0.1328  0.5403 -0.1317
12433W        W16833  20.589   2.372   8.952 -0.1374 -0.1677 -0.0601
12434W        W16834   8.014   7.078  19.632 -0.0569 -0.3566  0.0856
12435W        W16835   8.384   1.806   4.616 -0.1788  0.0235  0.0397
12436W        W16836  20.162   1.215   1.471  0.0705  0.1392  0.1002
12437W        W16837  23.950   5.070  10.773 -0.2093 -0.0789 -0.1063
12438W        W16838  22.739   4.221  25.071 -0.0209 -0.0018 -0.0676
12439W        W16839   3.564   2.370   5.835 -0.0965  0.0280 -0.0206
12440W        W16840  21.300   2.240   7.812  0.0981  0.1209  0.0942
12441W        W16841  19.734   4.183  22.888 -0.2040 -0.4036 -0.0769
12442W        W16842  15.767   2.702  13.054 -0.2031 -0.3048  0.1543
12443W        W16843  10.697   0.443  19.197 -0.0296 -0.3613  0.1787
12444W        W16844   0.948   1.054  25.910  0.1524 -0.0992  0.2405
12445W        W16845  10.789   0.923  10.164  0.6377 -0.0935  0.3260
12446W        W16846  20.799   7.826   8.184 -0.0977  0.4014 -0.0944
12447W        W16847  20.512   7.700   0.552  0.0858 -0.0290 -0.2981
12448W        W16848  23.867   3.824   6.135 -0.0204  0.2128 -0.1274
12449W        W16849  11.991   7.654  21.264  0.3571 -0.1840 -0.1721
12450W        W16850  24.955   4.869  19.521 -0.0106  0.0212 -0.2493
12451W        W16851  13.150   4.382  21.266  0.2406 -0.0913  0.0791
12452W        W16852   0.103   0.453  31.864  0.3695 -0.2936 -0.0127
12453W        W16853   0.523   2.269  22.476  0.0789 -0.1981  0.0626
12454W        W16854   3.022   0.699   4.988 -0.0158  0.0580 -0.2077
12455W        W16855   0.787   2.001  21.419 -0.0807 -0.1085 -0.2203
12456W        W16856   8.018   3.123  25.182 -0.0028 -0.0395 -0.0508
12457W        W16857   3.439   2.133   4.284  0.0649  0.0811 -0.2843
12458W        W16858  14.899   4.626   3.501  0.0897  0.3185  0.2266
12459W        W16859  17.751   6.170  29.094 -0.2225 -0.1386  0.3429
12460W        W16860  17.609   0.958   8.009 -0.4590 -0.1458 -0.2304
12461W        W16861   3.537   4.096  17.139  0.3425 -0.1611  0.2375
12462W        W16862   5.470   4.047  26.781 -0.1653  0.0247 -0.1155
12463W        W16863  18.344   5.772   4.869 -0.1933  0.0536 -0.1105
12464W        W16864  18.169   1.900  17.078  0.1551  0.0669  0.2581
12465W        W16865  13.345   7.764  22.063 -0.2862 -0.2548 -0.0428
12466W        W16866  15.631   4.841  31.932 -0.0276 -0.2181  0.0422
12467W        W16867  22.250   5.943  25.659  0.0661 -0.1483  0.1239
12468W        W16868  13.576   1.726  29.399 -0.1661  0.0475 -0.0438
12469W        W16869  22.494   0.653  11.383  0.0323 -0.2847  0.0802
12470W        W16870  15.110   1.130  27.585  0.0696 -0.1306  0.0994
12471W        W16871  22.689   6.691   1.273 -0.3508 -0.0585  0.0274
12472W        W16872   0.658   1.785   3.405 -0.0246  0.0759 -0.0248
12473W        W16873  22.324   2.351   2.911 -0.0179  0.0930  0.1006
12474W        W16874  16.421   0.012  27.927  0.1873  0.2278 -0.2096
12475W        W16875  11.223   1.270  22.981 -0.0811  0.0163  0.0446
12476W        W16876  20.765   1.714   3.931  0.0164 -0.0663 -0.2478
12477W        W16877   2.919   0.278  10.993 -0.2119 -0.0621  0.0934
12478W        W16878  12.229   6.887  24.840  0.0531  0.2049  0.2203
12479W        W16879   5.494   7.289   9.632 -0.1795 -0.2291  0.0429
12480W        W16880   1.737   6.761  29.609  0.0604 -0.1215  0.0988
12481W        W16881  17.223   7.153   3.170  0.1487 -0.1724  0.0619
12482W        W16882   8.978   7.590   9.364  0.0494 -0.0098 -0.0696
12483W        W16883  14.946   4.527   1.631 -0.0771 -0.1394  0.0669
12484W        W16884   5.707   5.045  25.918 -0.0206 -0.0397 -0.0051
12485W        W16885  13.213   0.506  21.543  0.0628  0.1820 -0.2928
12486W        W16886  19.083   4.753   5.032 -0.2828  0.0964 -0.0029
12487W        W16887  17.222   2.581   0.104  0.1342 -0.3316  0.2093
12488W        W16888  24.116   5.466  24.427  0.0396  0.0842  0.1609
12489W        W16889  13.801   2.371   3.947 -0.2186 -0.1537 -0.2191
12490W        W16890   4.330   4.890  28.701  0.1698 -0.0339  0.0206
12491W        W16891  10.843   2.968  27.389  0.2689  0.1872 -0.1786
12492W        W16892  17.739   5.970  14.720 -0.1736  0.1746  0.2090
12493W        W16893   0.980   2.682   6.528  0.2043 -0.2987 -0.0539
12494W        W16894   6.699   6.355  27.935 -0.2425  0.2102  0.2382
12495W        W16895   3.914   6.737  28.168 -0.1417  0.0353  0.0414
12496W        W16896  15.346   4.258   7.191  0.2952 -0.2471 -0.0647
12497W        W16897  20.300   3.746   6.853 -0.0598  0.0334 -0.0455
12498W        W16898   1.315   5.679  30.341  0.0064  0.2051  0.3510
12499W        W16899  13.289   0.385  22.299 -0.1652 -0.3132 -0.1510
12500W        W16900  23.114   6.453   0.539  0.0089  0.0414  0.0650
12501W        W16901  13.574   4.866   4.632  0.0621  0.1520  0.0218
12502W        W16902   1.265   3.529  32.025 -0.0125  0.0635  0.1190
12503W        W16903  17.903   3.285   6.124 -0.0454  0.0093 -0.1525
12504W        W16904   7.304   2.382  30.863  0.0419 -0.1258  0.0739
12505W        W16905   9.283   4.264  27.806  0.1171 -0.0203 -0.2901
12506W        W16906  15.214   2.201   7.026 -0.0149 -0.1721 -0.0536
12507W        W16907   3.899   3.712  30.368  0.0948 -0.1795 -0.0703
12508W        W16908  12.719   6.172   4.372 -0.2677  0.1710  0.2028
12509W        W16909  14.484   6.735  21.676 -0.0987  0.2931  0.0072
12510W        W16910   5.658   4.508   8.453  0.0820 -0.4556  0.2273
12511W        W16911  15.970   6.632  10.477 -0.0770  0.0177  0.1212
12512W        W16912  18.090   5.541   1.882  0.0405  0.1348  0.1282
12513W        W16913  13.712   3.537  26.965  0.1261  0.0504 -0.3418
12514W        W16914  20.593   3.240   7.352  0.3593  0.1251  0.0184
12515W        W16915  24.049   0.994  28.436  0.1044  0.0759  0.1607
12516W        W16916  18.760   5.052   6.961 -0.0437 -0.0700  0.0058
12517W        W16917   4.803   0.352  16.327 -0.2070  0.0085 -0.1592
12518W        W16918   8.350   7.527  18.321 -0.0142  0.1401  0.3309
12519W        W16919  24.648   0.085  23.261 -0.2279  0.0029 -0.0889
12520W        W16920  16.787   7.753   3.380  0.0030 -0.1018 -0.0859
12521W        W16921  18.065   3.515  28.945  0.1229 -0.1988  0.1792
12522W        W16922  19.742   4.657  28.052 -0.0790 -0.0612 -0.2555
12523W        W16923   2.142   2.218  23.120 -0.0394 -0.1279 -0.0701
12524W        W16924   3.792   7.736  21.769 -0.4366 -0.0535  0.0720
12525W        W16925  23.360   2.057  29.083  0.2383 -0.2103  0.0387
12526W        W16926  22.676   4.156  30.544  0.2799 -0.0225 -0.2819
12527W        W16927   0.505   6.034  22.522  0.2165  0.1404 -0.2229
12528W        W16928  10.949   3.602  19.228 -0.0600 -0.0501 -0.1885
12529W        W16929  20.452   6.484   9.803 -0.0181  0.2542  0.1708
12530W        W16930   1.906   6.768  30.921 -0.2821  0.0127 -0.2349
12531W        W16931   0.221   7.339  31.344 -0.1422 -0.1074 -0.1380
12532W        W16932  18.607   3.091   0.967  0.2784 -0.1815 -0.1964
12533W        W16933  14.830   5.478  32.197 -0.4021  0.1235 -0.1789
12534W        W16934  11.185   5.458  10.238 -0.0054  0.2416 -0.0087
12535W        W16935   5.840   1.109  20.133 -0.3789 -0.1070  0.2599
12536W        W16936   0.903   5.112  19.322 -0.1232  0.0099 -0.2496
12537W        W16937  24.813   1.843   5.435 -0.1111 -0.1243  0.5455
12538W        W16938  21.654   3.758  11.390  0.2579  0.1284  0.2724
12539W        W16939  14.639   2.067   8.612  0.3191  0.3874 -0.0003
12540W        W16940  22.405   5.549   9.914 -0.0511 -0.0834  0.2745
12541W        W16941  15.473   0.036   3.769  0.0702  0.0414  0.1078
12542W        W16942  16.804   7.239  23.983  0.0824  0.1229  0.0725
12543W        W16943  16.622   7.260  22.912  0.1992 -0.4545  0.1350
12544W        W16944  14.420   3.929  27.531  0.0181 -0.3368  0.0077
12545W        W16945  16.857   2.451  16.536  0.1155 -0.0944 -0.1669
12546W        W16946  24.202   3.396  30.721 -0.0621 -0.0123  0.1586
12547W        W16947  10.001   1.103  18.812 -0.0641 -0.1199 -0.1059
12548W        W16948  18.648   2.109  23.640 -0.0973  0.0054 -0.0726
12549W        W16949   6.377   0.284  30.411  0.1633  0.0234 -0.0264
12550W        W16950   0.315   0.355   5.412 -0.1491  0.1129 -0.2193
12551W        W16951  20.162   2.623  24.853  0.0722 -0.2846  0.2831
12552W        W16952  15.226   2.606  11.631  0.2299  0.1618 -0.0222
12553W        W16953  16.284   7.559   5.747 -0.0824  0.1823 -0.0411
12554W        W16954  21.877   3.475  11.007  0.1003 -0.0601 -0.2650
12555W        W16955  12.368   0.961  11.588  0.2982  0.1137  0.1864
12556W        W16956   2.051   7.730   4.222 -0.0548  0.0215 -0.1787
12557W        W16957  13.492   1.074   2.149  0.1949  0.1382 -0.0428
12558W        W16958  24.209   4.379  27.616 -0.0433  0.1393  0.1426
12559W        W16959  24.149   7.013  10.050  0.4152 -0.0940 -0.0058
12560W        W16960  14.665   0.550  20.927 -0.1627  0.2229 -0.0656
12561W        W16961  13.423   2.286  10.282 -0.0377  0.3231  0.0795
12562W        W16962   5.414   3.006   2.323  0.0959  0.1241  0.1478
12563W        W16963   7.399   5.197   9.270 -0.0366 -0.1258  0.2721
12564W        W16964   5.301   1.338  17.818 -0.1051  0.3146 -0.0282
12565W        W16965  15.495   4.560   1.455 -0.0729 -0.1817 -0.1891
12566W        W16966  22.508   5.542  28.842 -0.0975 -0.0001  0.1929
12567W        W16967  17.753   4.155  30.873 -0.2167  0.2931 -0.1087
12568W        W16968  17.084   6.798  16.869 -0.0726  0.0490  0.0638
12569W        W16969  19.847   3.376  14.327 -0.1015  0.2999  0.0011
12570W        W16970  21.221   1.386  15.122  0.1258 -0.0225 -0.0691
12571W        W16971   4.206   3.316  21.055 -0.1839 -0.0703 -0.0703
12572W        W16972  21.107   6.829   0.300 -0.2414  0.3357 -0.0184
12573W        W16973  23.508   5.043  14.057  0.0233 -0.1862 -0.0251
12574W        W16974  20.206   7.657  28.420 -0.1669  0.1072 -0.3311
12575W        W16975  23.688   7.505  21.692 -0.0761  0.2657 -0.2428
12576W        W16976   2.866   3.471  24.254  0.0033 -0.0308  0.3217
12577W        W16977  11.223   5.492   5.481  0.0170  0.2143  0.2832
12578W        W16978  16.996   6.368  26.822 -0.1813  0.0887  0.1732
12579W        W16979   0.523   7.827  29.403  0.2557 -0.1219 -0.1178
12580W        W16980   5.309   2.323   2.872 -0.1072  0.1315 -0.1921
12581W        W16981   0.702   4.580  32.277 -0.1165  0.1075 -0.0032
12582W        W16982  19.997   6.163   4.664 -0.0254 -0.0593 -0.1699
12583W        W16983  16.024   7.272  22.985  0.0544 -0.0640 -0.1648
12584W        W16984  20.880   2.531   7.129 -0.2089  0.1954 -0.0333
12585W        W16985  22.732   0.257  28.350  0.1120  0.0094 -0.0799
12586W        W16986   2.795   4.612  28.421 -0.0445 -0.0341 -0.0503
12587W        W16987   0.512   4.870  11.920 -0.3734  0.0480  0.0869
12588W        W16988  11.096   5.378  23.730  0.0719  0.0428  0.1637
12589W        W16989   5.045   5.471  29.831 -0.0817 -0.1785  0.2627
12590W        W16990  19.715   7.059  17.272  0.0048  0.0690 -0.0414
12591W        W16991   5.259   6.258  22.550 -0.3809 -0.3342 -0.1247
12592W        W16992  20.636   3.037  15.360 -0.3167  0.2023  0.3719
12593W        W16993   3.955   0.397  29.715 -0.0952 -0.0183  0.3007
12594W        W16994   4.809   1.423  22.906 -0.1582 -0.0388  0.0085
12595W        W16995  16.526   0.533  29.192 -0.1617  0.1179 -0.1321
12596W        W16996  14.437   4.030   3.263  0.0720  0.1680  0.0572
12597W        W16997  16.328   3.625  27.330 -0.2245 -0.2538  0.0320
12598W        W16998   2.832   0.366  19.302  0.1101 -0.2758  0.2117
12599W        W16999  16.102   6.264  16.134 -0.0201 -0.2819  0.2306
12600W        W17000  12.646   5.966  21.917 -0.0077 -0.1094 -0.0092
12601W        W17001   7.468   0.121  29.726  0.0090 -0.3937  0.0435
12602W        W17002  21.260   3.728   9.467 -0.1714 -0.0503 -0.3787
12603W        W17003  24.355   2.139  10.318 -0.1454  0.2375 -0.0767
12604W        W17004  16.365   2.496  22.768  0.0948  0.2956  0.0473
12605W        W17005   0.002   2.038   9.799 -0.3252  0.2057  0.0036
12606W        W17006  19.549   6.516  22.825 -0.2007  0.0695 -0.1204
12607W        W17007  22.365   4.147   9.626 -0.0405 -0.2980 -0.0451
12608W        W17008  13.400   5.448  11.360  0.2225 -0.0417 -0.3593
12609W        W17009  11.999   0.143  20.291 -0.3891 -0.1421  0.1896
12610W        W17010  22.995   1.556  21.047  0.0424 -0.1517  0.2140
12611W        W17011   7.070   1.402  28.135 -0.1759 -0.0422  0.4182
12612W        W17012  10.855   3.536  18.744 -0.1671  0.0951 -0.3824
12613W        W17013  16.652   0.273   2.385 -0.1785  0.2557 -0.3358
12614W        W17014  15.929   5.754  28.536 -0.0086 -0.0373 -0.2410
12615W        W17015  13.973   6.217  30.700 -0.0530 -0.0014 -0.0550
12616W        W17016  24.789   6.459   2.103 -0.0921 -0.2160 -0.1974
12617W        W17017   3.341   0.235  19.276 -0.1571 -0.2459 -0.1750
12618W        W17018  12.780   3.750  26.411 -0.1141  0.3851 -0.2551
12619W        W17019   8.294   4.354  26.844  0.2034 -0.1815 -0.1187
12620W        W17020  17.948   4.239  31.991 -0.1989 -0.1376  0.1902
12621W        W17021  13.892   6.057   3.198  0.0072 -0.1537  0.1028
12622W        W17022  18.775   5.783   9.915 -0.0660 -0.0184  0.0475
12623W        W17023   8.991   0.647  31.601  0.0751 -0.2177 -0.0335
12624W        W17024  11.647   0.990   8.481 -0.0023 -0.0043  0.4115
12625W        W17025  23.939   0.929   3.381 -0.1498 -0.1075  0.1477
12626W        W17026   2.468   4.089  30.363 -0.1563 -0.3760 -0.1670
12627W        W17027   2.874   5.999   6.803  0.2758 -0.2346  0.0638
12628W        W17028  15.803   3.638  29.581  0.1276 -0.0233 -0.2123
12629W        W17029  15.488   1.376   0.786 -0.1377 -0.0100 -0.2983
12630W        W17030   9.862   5.154   6.641  0.0007 -0.0341 -0.1291
12631W        W17031  16.874   0.696   2.217 -0.0946 -0.0567  0.1578
12632W        W17032  12.401   4.279  30.861 -0.1230 -0.0399  0.4155
12633W        W17033   1.735   7.128  27.198  0.1479 -0.1140 -0.0619
12634W        W17034  13.589   1.538  30.797  0.3156  0.0571 -0.3143
12635W        W17035  17.184   3.116   5.721 -0.0830  0.2022 -0.0573
12636W        W17036  21.183   6.137   5.076 -0.2859 -0.1455 -0.1918
12637W        W17037  20.200   4.911  32.284 -0.2670 -0.1565  0.1477
12638W        W17038  10.967   1.648  27.017 -0.3178  0.4616 -0.2070
12639W        W17039  18.796   5.087   4.146 -0.1673  0.0371  0.1464
12640W        W17040   8.851   4.501  29.845 -0.1866 -0.0534 -0.2259
12641W        W17041  22.082   4.704  11.294 -0.2038 -0.1638  0.0462
12642W        W17042  13.027   2.692  25.284 -0.1879 -0.0026 -0.0416
12643W        W17043  19.071   7.082  27.232 -0.0821 -0.0758 -0.1223
12644W        W17044   4.524   2.286   5.924  0.1467 -0.1145 -0.1055
12645W        W17045  19.255   6.781   4.220  0.0445 -0.0033  0.2236
12646W        W17046   3.467   3.102   5.461  0.1423 -0.1649 -0.1538
12647W        W17047   3.826   2.713   8.880 -0.0193  0.0013 -0.1510
12648W        W17048  12.869   2.197   7.805 -0.2068 -0.2197 -0.0145
12649W        W17049  19.231   2.916   2.006 -0.1873  0.1935 -0.2593
12650W        W17050  15.739   3.736  30.045  0.2702  0.2273  0.0853
12651W        W17051   5.093   4.999  30.071 -0.0643  0.2553 -0.0132
12652W        W17052  18.778   3.044   3.878 -0.1705  0.2796 -0.4080
12653W        W17053  15.795   6.229  28.646 -0.0972 -0.0198  0.1179
12654W        W17054   4.715   5.057  17.817 -0.0422 -0.3994 -0.4791
12655W        W17055   0.239   1.003  32.489  0.1231  0.1328  0.1915
12656W        W17056   7.113   1.848  31.181  0.1165 -0.1448 -0.1360
12657W        W17057  17.680   6.112  27.334 -0.1116  0.0534  0.4759
12658W        W17058   9.811   6.574  26.911  0.0083 -0.2512  0.0600
12659W        W17059  18.869   5.693  31.990 -0.2733  0.0199 -0.0719
12660W        W17060  24.879   3.539  29.061 -0.2355  0.0653 -0.0369
12661W        W17061   9.970   1.840   8.812 -0.1100 -0.0579 -0.2799
12662W        W17062  11.672   3.609  22.953  0.1307  0.1542 -0.2633
12663W        W17063  22.437   2.644  27.432 -0.2395 -0.1318  0.0953
12664W        W17064   3.120   6.714  28.978  0.2201 -0.1181 -0.0072
12665W        W17065   1.104   0.491  31.741  0.0231  0.0021 -0.0441
12666W        W17066  15.016   4.895  10.751  0.0200  0.3130 -0.2562
12667W        W17067  11.323   7.331  32.039 -0.0879 -0.1337  0.0277
12668W        W17068   1.524   5.740   3.538 -0.0193 -0.1194  0.1223
12669W        W17069  16.661   3.932  14.741  0.3155 -0.0259  0.2206
12670W        W17070   7.954   1.601  15.455 -0.2464 -0.1569 -0.0499
12671W        W17071  20.350   5.936  14.021 -0.0870  0.2396  0.2057
12672W        W17072  14.682   5.421   8.573 -0.1167  0.1884  0.1801
12673W        W17073  16.301   1.613  26.771  0.2542 -0.0517  0.1015
12674W        W17074   6.849   6.929   4.590  0.2478  0.2304 -0.0696
12675W        W17075   9.323   1.033  27.593 -0.1840  0.3081 -0.0010
12676W        W17076   3.236   3.522   5.745 -0.0780  0.0639  0.1059
12677W        W17077   8.555   1.999   2.114 -0.2058  0.0908 -0.1380
12678W        W17078  14.424   2.311  27.648 -0.0242 -0.0901 -0.0199
12679W        W17079  21.850   3.150   7.732 -0.0714 -0.1606 -0.3258
12680W        W17080  21.886   2.070  11.468  0.0846 -0.0370 -0.1186
12681W        W17081  10.684   2.714  20.960 -0.0421 -0.1014  0.4394
12682W        W17082  11.274   3.915  30.984  0.0135  0.0863 -0.1478
12683W        W17083   7.132   0.427  14.077 -0.2294 -0.3082  0.1530
12684W        W17084  21.952   3.283   8.257 -0.0678 -0.1113 -0.1847
12685W        W17085  13.610   2.814  14.523  0.1375 -0.1501  0.0892
12686W        W17086   1.358   0.683   1.314 -0.3700 -0.0962  0.4452
12687W        W17087   0.372   6.558  10.546  0.0680 -0.0176 -0.3418
12688W        W17088  13.012   1.146  28.452 -0.0834  0.2808  0.3818
12689W        W17089  13.228   2.061  28.533 -0.0720 -0.2158 -0.0181
12690W        W17090  17.628   7.586   0.576 -0.2245  0.1569 -0.4404
12691W        W17091  24.197   3.729  23.131 -0.0966 -0.0902  0.0100
12692W        W17092   4.659   4.281  21.026  0.0174  0.1467  0.0673
12693W        W17093   1.119   4.938  29.305  0.0706  0.3308  0.2469
12694W        W17094  19.311   7.324  10.456 -0.3067  0.1851  0.2693
12695W        W17095   9.169   2.199  29.409  0.2744  0.2030  0.1516
12696W        W17096  11.761   5.563  30.594  0.1103  0.0011  0.1537
12697W        W17097  21.541   2.616   5.704 -0.1985 -0.1403 -0.0645
12698W        W17098  10.688   3.738   4.182 -0.0229  0.3443  0.1336
12699W        W17099   7.381   0.187  27.942  0.0312 -0.0032 -0.2221
12700W        W17100  18.172   0.243  30.847  0.2275  0.1724  0.0671
12701W        W17101   7.138   3.517   3.378  0.1161 -0.0770  0.0644
12702W        W17102   8.756   5.615  21.059  0.1295 -0.3422  0.3273
12703W        W17103   3.997   4.372   5.364 -0.2345 -0.1009  0.2792
12704W        W17104   8.605   3.343  30.483 -0.0202 -0.0284  0.2415
12705W        W17105  15.939   0.671  22.916 -0.3674 -0.0132 -0.0880
12706W        W17106  21.798   5.180  14.670 -0.0968 -0.1026 -0.0711
12707W        W17107  22.375   5.939   3.156 -0.0527 -0.1746  0.0466
12708W        W17108  10.889   6.775  30.913  0.1311 -0.0734 -0.5014
12709W        W17109   6.787   7.617  20.176 -0.0417  0.3400  0.0023
12710W        W17110  12.063   0.182   8.804  0.1360 -0.2391  0.2404
12711W        W17111   2.293   4.857  28.326  0.0546 -0.0255 -0.1116
12712W        W17112   5.516   3.545  23.517  0.3824 -0.1140 -0.0558
12713W        W17113  13.948   5.407  31.251  0.1204  0.1657  0.2200
12714W        W17114   2.260   1.544  28.226  0.2808  0.5724  0.0213
12715W        W17115   9.178   7.333   9.741  0.0437  0.2642 -0.0208
12716W        W17116   0.845   6.121  21.235  0.0602 -0.0856  0.0361
12717W        W17117   6.974   2.056  17.567  0.0889  0.2074  0.0180
12718W        W17118  17.033   7.781   2.451 -0.2167 -0.1395  0.3682
12719W        W17119   5.555   6.238  19.481  0.1188 -0.1545  0.1803
12720W        W17120   9.660   2.822  20.716  0.0019  0.0366  0.1017
12721W        W17121   9.938   5.317   1.463  0.3232  0.2852 -0.1572
12722W        W17122   4.726   3.231  18.178 -0.1334  0.1574 -0.3187
12723W        W17123  18.467   0.749   6.507 -0.0623 -0.2155 -0.0616
12724W        W17124  11.662   4.153  30.142  0.0860 -0.2326 -0.0248
12725W        W17125  13.621   5.732  28.466 -0.1162  0.1203  0.1009
12726W        W17126   0.850   3.083  12.593 -0.0720 -0.2776  0.0609
12727W        W17127  23.154   7.427  13.274  0.0474 -0.1211 -0.1502
12728W        W17128  15.276   5.535  13.306  0.2132 -0.0798  0.1077
12729W        W17129   9.839   4.625  22.581  0.1785 -0.3669  0.1785
12730W        W17130   6.169   7.830  21.926  0.4320  0.3950 -0.1108
12731W        W17131   5.748   0.290  28.811  0.2758 -0.1255 -0.2089
12732W        W17132  12.058   6.109  11.632  0.0507  0.1785  0.2239
12733W        W17133  23.054   6.946   5.681 -0.3200  0.2609  0.1305
12734W        W17134  11.343   3.923   0.992 -0.0943 -0.0675  0.0351
12735W        W17135   5.965   0.547  30.657 -0.2374  0.1379  0.0130
12736W        W17136   5.901   3.714   9.688  0.1696  0.0993  0.0789
12737W        W17137  24.268   6.711  32.543 -0.0326 -0.2075  0.1191
12738W        W17138   4.277   7.177  22.210 -0.2147 -0.1784 -0.1725
12739W        W17139  12.305   1.924  29.429 -0.0407  0.0091  0.2481
12740W        W17140  11.647   5.017   7.438 -0.4170  0.0472  0.1437
12741W        W17141   2.456   7.471  20.147  0.0158 -0.1096 -0.0303
12742W        W17142   6.724   3.102  20.808  0.0397 -0.1847 -0.0322
12743W        W17143   2.735   3.273  11.203 -0.2648  0.2434 -0.3709
12744W        W17144  15.396   3.330  25.137 -0.0051 -0.0553  0.1301
12745W        W17145  25.044   4.407   9.513 -0.0094  0.0263  0.1232
12746W        W17146  20.187   5.801  32.476  0.1360  0.1572  0.0524
12747W        W17147  16.923   1.992  26.624  0.0326  0.1502  0.1410
12748W        W17148   9.915   4.528   0.770 -0.0167 -0.2613 -0.0405
12749W        W17149  17.983   1.460  17.379  0.1440  0.4185  0.0235
12750W        W17150  12.247   1.681   0.383 -0.0900  0.1095  0.0646
12751W        W17151  18.865   0.471  16.897 -0.0221  0.0135 -0.0302
12752W        W17152   1.130   1.658  12.115 -0.0545  0.0108 -0.0470
12753W        W17153  15.159   0.755  26.336  0.0233 -0.0463  0.2477
12754W        W17154  20.681   3.657   5.351 -0.2236  0.2428  0.2514
12755W        W17155   2.526   6.527   2.590  0.0835 -0.0439 -0.0185
12756W        W17156  16.512   3.840  29.228 -0.4298 -0.1682  0.1761
12757W        W17157  15.710   7.705  32.505 -0.0009  0.0773  0.0215
12758W        W17158   0.557   5.847  27.270 -0.0400  0.0440 -0.0439
12759W        W17159   6.870   1.065  27.249 -0.1696 -0.2272  0.1281
12760W        W17160  18.507   6.291   8.774  0.0170  0.2879  0.2640
12761W        W17161   2.914   3.089  28.949  0.0141 -0.0824 -0.0926
12762W        W17162  13.587   5.515   1.235 -0.1531 -0.0261 -0.2036
12763W        W17163  17.983   6.750   0.406  0.1821  0.1475  0.0205
12764W        W17164   2.131   2.289   4.671 -0.1988  0.1218  0.0814
12765W        W17165   8.924   6.244  29.795 -0.0936 -0.1693  0.3988
12766W        W17166   0.720   5.371   5.260  0.3354  0.1558 -0.2020
12767W        W17167   4.045   0.420   1.857  0.0763 -0.3078  0.2547
12768W        W17168  20.544   2.653  12.768  0.1323 -0.0395 -0.1300
12769W        W17169  13.012   7.274  26.472  0.0534  0.1170  0.2214
12770W        W17170   1.923   2.646   8.058 -0.1210  0.0402 -0.0091
12771W        W17171  24.393   2.892  23.819  0.2517 -0.0568 -0.0604
12772W        W17172  14.325   4.311  26.740 -0.0200 -0.0262  0.2218
12773W        W17173   2.414   6.301  10.086 -0.1169  0.1150 -0.0553
12774W        W17174  16.343   4.363  11.979 -0.0752  0.1677  0.1459
12775W        W17175   5.840   7.152  17.592  0.1516 -0.0885  0.0284
12776W        W17176  15.527   2.986  11.730 -0.1487  0.1229  0.2625
12777W        W17177   1.599   3.045   1.858  0.0263  0.1138 -0.2263
12778W        W17178  24.429   6.520  20.363 -0.4104  0.0094 -0.3500
12779W        W17179   1.033   3.035   5.641 -0.2967  0.3337 -0.5467
12780W        W17180  24.560   6.968  25.552  0.0132 -0.2356  0.0203
12781W        W17181  15.840   7.258  30.430 -0.0039  0.2676 -0.1532
12782W        W17182  12.382   3.794  27.797  0.1265 -0.2197 -0.1555
12783W        W17183  24.125   0.884   4.325  0.0741  0.0871 -0.0310
12784W        W17184  15.327   0.948  13.167 -0.0843  0.0469 -0.1883
12785W        W17185  24.496   4.403   3.926 -0.3518  0.0584  0.3791
12786W        W17186  22.467   4.063  26.962  0.1446 -0.2834 -0.4984
12787W        W17187  23.530   4.771  25.519 -0.0551  0.1212  0.1282
12788W        W17188  11.917   7.616  11.797 -0.1828  0.1026 -0.0349
12789W        W17189   3.550   0.179  21.138  0.3611 -0.3357 -0.1779
12790W        W17190  24.319   2.446   9.474  0.1233  0.0387 -0.0942
12791W        W17191   0.650   7.725  25.639 -0.1830  0.1260 -0.1349
12792W        W17192  18.606   1.043  29.563  0.1507 -0.0267 -0.1885
12793W        W17193   1.088   6.267   4.515 -0.1931  0.0177  0.0403
12794W        W17194   8.370   5.509   3.412  0.1160  0.0910  0.1065
12795W        W17195  13.526   1.767  24.897  0.0669 -0.0961 -0.1008
12796W        W17196  15.963   2.265  30.780 -0.0775  0.3486 -0.0773
12797W        W17197   9.134   3.291   1.886  0.4241 -0.3080 -0.3582
12798W        W17198   6.828   1.933  30.298 -0.2795  0.1954 -0.1785
12799W        W17199  12.154   1.281  27.875 -0.0267 -0.1318  0.2128
12800W        W17200   7.042   4.523  25.457  0.1631  0.1036  0.1691
12801W        W17201  12.586   4.254  11.374 -0.1382 -0.2451  0.2869
12802W        W17202  12.891   2.506   6.776 -0.1737 -0.1861  0.1256
12803W        W17203  19.789   0.370  30.239  0.2784  0.0952 -0.2265
12804W        W17204   5.128   0.639  14.176 -0.1362  0.0497  0.3192
12805W        W17205   7.869   1.876  17.247 -0.2892 -0.1826 -0.1541
12806W        W17206  13.133   5.326  26.439  0.3584 -0.3381 -0.3153
12807W        W17207  17.348   2.013   9.964  0.0236 -0.2299  0.2032
12808W        W17208  14.671   4.628   8.523  0.1600 -0.2040 -0.1842
12809W        W17209   3.196   3.699   2.237 -0.0082 -0.1255  0.2400
12810W        W17210   7.679   5.248  27.620 -0.1242  0.1104  0.0661
12811W        W17211  22.211   2.587  28.876 -0.0677 -0.1893 -0.2824
12812W        W17212  21.957   1.505  27.290 -0.2623 -0.2723 -0.0084
12813W        W17213   3.730   6.417  20.342 -0.1350 -0.1551  0.1454
12814W        W17214  23.364   0.124  28.943 -0.1940 -0.1119 -0.1429
12815W        W17215  12.125   1.505   2.915 -0.0406 -0.3351 -0.1096
12816W        W17216  20.355   1.767   8.664 -0.2272  0.1468  0.1062
12817W        W17217   3.976   6.910   5.684  0.0856 -0.1321 -0.2367
12818W        W17218   4.289   0.017   8.272 -0.2707  0.2194  0.4436
12819W        W17219  18.904   3.761  31.385 -0.3554  0.2223  0.0239
12820W        W17220  16.838   5.294  32.288  0.0057 -0.1819 -0.0888
12821W        W17221  11.481   3.681  27.619  0.3063  0.0674 -0.0089
12822W        W17222   6.663   4.687  14.433  0.3493 -0.4548  0.0463
12823W        W17223  17.326   5.936  28.945 -0.2138  0.0667  0.0957
12824W        W17224  19.049   6.214  25.245 -0.2750 -0.0651  0.2499
12825W        W17225  10.803   7.404   6.266  0.0551 -0.3784  0.0103
12826W        W17226  21.204   1.866  30.395  0.1002  0.1456 -0.0522
12827W        W17227  11.382   0.534   3.892  0.0468 -0.1238  0.0931
12828W        W17228  24.510   6.131  12.899 -0.2340  0.1064  0.0255
12829W        W17229  23.371   2.782   1.522  0.1258  0.3108  0.2063
12830W        W17230  16.528   4.504  12.403 -0.2333  0.0291 -0.0463
12831W        W17231  12.726   4.579  25.946  0.0350  0.0203 -0.0821
12832W        W17232   2.051   6.019  24.951 -0.0097  0.1554 -0.1313
12833W        W17233  10.159   7.776  22.066  0.0824 -0.1710 -0.1803
12834W        W17234  14.025   0.385  29.754 -0.1641 -0.0889  0.0192
12835W        W17235   3.828   1.840  30.953 -0.0462  0.0193  0.0288
12836W        W17236  10.108   0.046  27.989 -0.1673  0.2737  0.0164
12837W        W17237  10.304   0.115   0.526  0.1988  0.1449 -0.0958
12838W        W17238   0.794   4.649  31.731 -0.2502 -0.2106  0.1821
12839W        W17239   2.078   2.890   9.722 -0.2155 -0.1925 -0.1865
12840W        W17240   6.969   4.576  24.570  0.0958 -0.0595  0.1239
12841W        W17241   2.949   2.809  21.392  0.1280 -0.0053  0.0999
12842W        W17242  12.015   5.617   7.114 -0.0717 -0.0147 -0.0177
12843W        W17243   0.814   5.288  29.514 -0.1104  0.1161  0.0851
12844W        W17244   5.074   1.241   6.900  0.0071  0.2029  0.1843
12845W        W17245  11.087   5.645   0.176  0.2595 -0.1380 -0.0486
12846W        W17246  22.867   5.491  11.635  0.0915 -0.2460  0.1327
12847W        W17247   3.439   1.517  32.454  0.1634 -0.2489  0.0594
12848W        W17248  12.038   4.780  23.674  0.0646  0.1879  0.1437
12849W        W17249  24.498   7.306   1.272 -0.0288  0.5678  0.0703
12850W        W17250   8.181   6.489  15.505 -0.0339 -0.0866 -0.1621
12851W        W17251  24.708   4.037  28.256  0.2301  0.0242 -0.2238
12852W        W17252  12.996   3.143   2.580 -0.0933 -0.1075  0.0920
12853W        W17253  16.230   7.054  12.644  0.2092 -0.2580 -0.1868
12854W        W17254  14.484   6.134  27.005  0.2171  0.3573 -0.0558
12855W        W17255  22.891   0.509   0.875 -0.0897 -0.1116  0.0055
12856W        W17256   5.902   0.821  29.337 -0.0710 -0.0294 -0.3971
12857W        W17257  15.695   7.105   5.281 -0.1784  0.2644  0.2206
12858W        W17258   8.979   3.838  20.392 -0.0340  0.1698 -0.2378
12859W        W17259  24.016   7.677  29.135  0.0953 -0.1318 -0.4326
12860W        W17260  11.407   7.177   1.741 -0.1124 -0.2388 -0.1148
12861W        W17261  24.230   6.032   1.095 -0.0055  0.0677  0.0449
12862W        W17262   1.199   3.437  27.500 -0.1347 -0.3764  0.0413
12863W        W17263   5.340   1.356  20.913  0.0932 -0.0363 -0.0853
12864W        W17264  24.987   7.629  28.591 -0.1776 -0.4307  0.0471
12865W        W17265   1.475   3.466  23.632 -0.2247 -0.3817 -0.1904
12866W        W17266  17.026   6.425   6.517  0.1351 -0.1907  0.0465
12867W        W17267  11.000   4.684  27.223  0.2982 -0.0425 -0.0728
12868W        W17268   1.606   6.340  23.394  0.1479 -0.1430  0.1081
12869W        W17269   6.772   0.941  22.878  0.1543  0.0829 -0.3897
12870W        W17270   7.098   7.589  19.098 -0.1344 -0.1197  0.1384
12871W        W17271   9.444   2.559  18.490 -0.1400 -0.3397  0.2295
12872W        W17272  16.613   4.500  23.707  0.2315 -0.0139  0.0099
12873W        W17273  12.928   1.448  12.597  0.1125  0.1318 -0.0249
12874W        W17274  14.573   3.562  11.089  0.5004  0.2848 -0.0768
12875W        W17275   0.970   6.772   2.168 -0.2234  0.0051  0.0171
12876W        W17276   2.136   1.191  32.543  0.0559 -0.2375  0.2508
12877W        W17277  23.321   7.401   7.686  0.2242 -0.1802 -0.4334
12878W        W17278  21.305   7.264  29.361 -0.3139 -0.1031 -0.1428
12879W        W17279  22.407   6.748  27.896 -0.0189  0.4491  0.2375
12880W        W17280   1.252   2.225  28.743  0.0382 -0.0975 -0.2308
12881W        W17281  10.854   1.018   5.773  0.0891 -0.0784  0.1241
12882W        W17282  11.605   0.192   6.528  0.2936 -0.1186  0.0101
12883W        W17283  18.807   7.536  17.431  0.0625  0.0485  0.0731
12884W        W17284   5.134   0.458  20.500 -0.3532  0.0138  0.0977
12885W        W17285  19.253   4.481  25.118 -0.0535 -0.0568 -0.0946
12886W        W17286  19.538   2.779  30.896 -0.0422 -0.0621  0.1367
12887W        W17287  18.375   3.702   1.654  0.1537  0.2897  0.2590
12888W        W17288  20.666   1.114  17.295  0.0990 -0.0353 -0.1076
12889W        W17289   6.665   5.616  15.902  0.1843  0.0769 -0.1028
12890W        W17290  19.641   0.337   5.954 -0.0402 -0.0712 -0.1111
12891W        W17291  23.139   6.726  28.369  0.0404 -0.0752  0.0502
12892W        W17292  14.630   1.381  13.748 -0.0097  0.0247 -0.2955
12893W        W17293  21.816   4.464  30.476  0.2299  0.0067  0.0247
12894W        W17294   5.739   1.264  14.500 -0.1867  0.1580 -0.2555
12895W        W17295  19.668   4.392  29.947  0.0104 -0.1189  0.1530
12896W        W17296   8.162   2.593  27.770  0.2002 -0.1248 -0.1234
12897W        W17297   0.374   2.885  23.053 -0.1864  0.2786  0.1627
12898W        W17298  10.847   4.158  20.424  0.1573  0.1581 -0.0419
12899W        W17299   5.848   4.068   5.270  0.2632  0.0053 -0.1649
12900W        W17300   9.917   5.314  28.240  0.0267 -0.3224  0.2999
12901W        W17301  22.045   0.971   7.387  0.0147 -0.0537 -0.2072
12902W        W17302  18.893   7.819   1.380  0.0699  0.2100  0.1244
12903W        W17303  10.655   5.069   5.366  0.3590 -0.0300  0.0384
12904W        W17304   6.974   1.221  18.344  0.0533  0.0013 -0.0398
12905W        W17305  16.101   2.251  24.352 -0.1330 -0.2745  0.1598
12906W        W17306  16.611   3.607   5.098  0.1966  0.0207  0.0207
12907W        W17307  13.461   5.592  10.392 -0.0089  0.0187 -0.0089
12908W        W17308   4.329   3.019  26.106  0.1104 -0.0090  0.0301
12909W        W17309  22.261   7.575  25.295 -0.2429 -0.1209 -0.1796
12910W        W17310  13.186   1.108  25.453  0.1418 -0.0808 -0.0958
12911W        W17311   4.819   4.136   1.697 -0.0162  0.2495  0.0221
12912W        W17312   5.127   7.015   5.141 -0.0075  0.1541 -0.0437
12913W        W17313   6.571   7.043   6.675  0.1071 -0.2259  0.0454
12914W        W17314   9.858   4.491   1.617  0.1909  0.0131 -0.0406
12915W        W17315  24.042   5.851  12.117 -0.2479  0.0457 -0.1385
12916W        W17316  18.370   6.113  11.359 -0.0205 -0.2868 -0.6462
12917W        W17317   4.046   4.088  25.989  0.2127 -0.4866 -0.3325
12918W        W17318   0.910   7.593  26.398 -0.1481 -0.1189  0.0619
12919W        W17319  22.477   2.315  32.421 -0.1197 -0.1984 -0.1748
12920W        W17320  13.680   5.960  28.040 -0.0704  0.0187  0.4958
12921W        W17321  23.851   1.073  21.611  0.0109 -0.3701 -0.0404
12922W        W17322   6.956   0.060  31.520  0.0380 -0.0428 -0.0183
12923W        W17323   4.220   0.850  22.692 -0.0542 -0.2161  0.3816
12924W        W17324  18.098   7.107  30.338  0.1960 -0.0395  0.0940
12925W        W17325  12.841   5.162  23.264 -0.1376 -0.0381  0.0349
12926W        W17326  22.703   1.580  25.145 -0.2008 -0.0057  0.0343
12927W        W17327   9.389   7.559  22.623  0.1973 -0.2079  0.2559
12928W        W17328   7.865   1.160  25.904  0.1966 -0.0837  0.3727
12929W        W17329  15.660   1.794   3.513 -0.4071  0.1053  0.2219
12930W        W17330  24.182   6.423  23.254 -0.3008  0.0183 -0.0292
12931W        W17331  10.599   6.395  24.479 -0.0062  0.1000 -0.1771
12932W        W17332  11.120   0.445   0.950  0.0421 -0.0784  0.0145
12933W        W17333  19.368   6.104  26.028 -0.0063 -0.1076  0.0786
12934W        W17334   7.083   4.983   8.399  0.1501 -0.1358  0.1923
12935W        W17335  16.507   0.132  16.482  0.0432 -0.3295 -0.0862
12936W        W17336   2.372   0.210   5.874  0.0139 -0.2034  0.0769
12937W        W17337  20.896   5.925  12.280 -0.2335  0.3470 -0.0381
12938W        W17338  10.438   5.345  17.934  0.1974  0.0341  0.0391
12939W        W17339  12.547   5.920   3.050 -0.1592 -0.2189 -0.2258
12940W        W17340   8.464   4.431  21.622 -0.1495 -0.3779  0.0941
12941W        W17341   4.648   5.077   0.094  0.0423 -0.0673 -0.2894
12942W        W17342   0.184   1.680  21.324 -0.0594  0.1677  0.1800
12943W        W17343  18.476   6.356  16.746 -0.1257  0.1092  0.0389
12944W        W17344   4.630   2.668   2.140  0.0036  0.1016 -0.0866
12945W        W17345   8.318   6.098  32.343 -0.3101  0.1339  0.0962
12946W        W17346  13.348   6.463  10.664  0.1730  0.1012 -0.1135
12947W        W17347  20.052   0.322  12.550 -0.0449  0.4298 -0.0744
12948W        W17348  12.045   5.497  31.673  0.0751  0.4006  0.2024
12949W        W17349  20.375   6.971  25.870  0.0077 -0.1803 -0.3009
12950W        W17350   0.489   1.553   3.852 -0.1842 -0.2248  0.0792
12951W        W17351  24.360   3.327  26.793  0.1452 -0.1554  0.2596
12952W        W17352  19.235   6.196  16.411 -0.0830  0.2114  0.0787
12953W        W17353  17.381   3.038   4.241  0.0779  0.2037 -0.0811
12954W        W17354   6.944   4.667  24.029  0.0662 -0.1122 -0.0912
12955W        W17355   2.861   4.217  24.759  0.0922 -0.1385 -0.0380
12956W        W17356   4.637   6.432   0.403  0.0927 -0.2062 -0.1701
12957W        W17357  25.134   5.667  26.081 -0.0363  0.0109  0.2755
12958W        W17358  10.172   7.726  24.623 -0.2717  0.1167 -0.1601
12959W        W17359  24.647   5.373   8.326  0.1742 -0.0625 -0.0240
12960W        W17360  21.332   0.141  11.892  0.0156 -0.0529  0.2342
12961W        W17361  16.975   5.379  15.108 -0.3403 -0.0268 -0.2629
12962W        W17362   8.411   3.001  18.768 -0.0023  0.2915  0.3308
12963W        W17363  13.325   4.368  28.042 -0.3540  0.0469  0.0027
12964W        W17364  21.294   5.700  12.032  0.1303 -0.0681 -0.1927
12965W        W17365   3.537   6.590   4.619  0.0309  0.0621 -0.0961
12966W        W17366   4.136   4.644  28.343 -0.1853  0.2701  0.3353
12967W        W17367   4.155   6.509  24.836  0.0980  0.2411  0.0737
12968W        W17368  15.480   7.550  22.308  0.0368  0.1053 -0.2368
12969W        W17369   9.340   3.953  22.606  0.5817  0.1101  0.2111
12970W        W17370   7.565   2.976   2.928 -0.1925 -0.0514 -0.1076
12971W        W17371   7.458   4.931  32.460  0.1661 -0.0908 -0.3100
12972W        W17372  13.922   5.452  32.212  0.0427  0.1182 -0.1874
12973W        W17373   5.759   1.779   3.739  0.1773  0.0915 -0.0724
12974W        W17374  19.165   0.119  17.442  0.4071 -0.0956  0.0109
12975W        W17375  13.078   0.052  22.916 -0.1494  0.1439 -0.1148
12976W        W17376  10.193   6.210   6.338  0.0470  0.0354  0.1946
12977W        W17377  20.286   6.679  12.262 -0.2962  0.2112 -0.2159
12978W        W17378  15.686   5.174  23.160  0.1979  0.0857  0.2708
12979W        W17379   6.609   3.314  17.294  0.0699 -0.0352 -0.0036
12980W        W17380  13.188   2.904  24.360  0.0784 -0.2822 -0.1930
12981W        W17381  22.394   3.166   7.709  0.1346 -0.0135  0.0203
12982W        W17382  12.126   7.691  24.403  0.2413  0.3048  0.1277
12983W        W17383  21.999   1.098   3.086 -0.2382  0.2014  0.4081
12984W        W17384  11.026   7.033  10.832 -0.0771 -0.0536  0.0637
12985W        W17385   8.586   1.589  23.926 -0.0289 -0.0219  0.1524
12986W        W17386   9.208   6.053  26.133  0.1667 -0.0979 -0.3087
12987W        W17387   3.017   5.641  23.418  0.0126  0.0449  0.1630
12988W        W17388  15.396   1.084   9.702 -0.1229  0.4160  0.4084
12989W        W17389   3.785   3.326  21.295 -0.0178  0.1111 -0.0599
12990W        W17390   8.524   3.723  32.334 -0.2057  0.0079 -0.2503
12991W        W17391   6.340   2.287  27.403  0.1761  0.0885  0.1712
12992W        W17392   5.673   3.765   6.123  0.0139  0.0897  0.0172
12993W        W17393  23.488   0.013   9.533  0.0014 -0.0496 -0.0682
12994W        W17394  10.956   1.557  28.223 -0.1669 -0.0632 -0.5770
12995W        W17395  18.220   7.308   6.151 -0.2122  0.1701 -0.2082
12996W        W17396   6.451   1.359   3.684  0.1207  0.1620 -0.2127
12997W        W17397   9.733   2.032   6.650 -0.0777  0.2913  0.0914
12998W        W17398   7.247   0.118   6.461  0.0933 -0.3498 -0.0385
12999W        W17399   1.408   7.080   7.976 -0.1030 -0.0043 -0.1988
13000W        W17400  11.445   3.542   2.204  0.1714 -0.3431 -0.0417
13001W        W17401   5.138   4.372  22.277  0.0309 -0.2461  0.2570
13002W        W17402   4.226   7.585  18.199 -0.0245  0.0044  0.0122
13003W        W17403  14.165   7.310  21.150 -0.2948 -0.0781  0.0735
13004W        W17404  15.490   1.766   5.200  0.1287 -0.2949 -0.1314
13005W        W17405   5.778   3.837  29.042 -0.0539 -0.0615 -0.0367
13006W        W17406  20.803   4.071  25.694  0.1868 -0.1664 -0.0613
13007W        W17407  14.118   1.452  21.603 -0.1021 -0.4076  0.2373
13008W        W17408   4.044   2.474  16.621  0.1691 -0.2002 -0.2900
13009W        W17409   4.056   4.634  23.904 -0.0520 -0.1760  0.0084
13010W        W17410  11.518   5.049  18.866 -0.1010 -0.0175 -0.3692
13011W        W17411  19.552   0.699  31.781  0.0498  0.0288  0.0179
13012W        W17412  18.541   2.782  15.978  0.1353  0.1054 -0.1563
13013W        W17413   3.278   0.276  26.064 -0.0252 -0.1992  0.2700
13014W        W17414   6.185   6.613  14.549 -0.2116 -0.0452  0.0966
13015W        W17415  18.534   3.394  15.004 -0.2771 -0.2303  0.0870
13016W        W17416  14.402   6.381   6.533  0.1189 -0.0306 -0.2290
13017W        W17417  22.124   5.021  27.282 -0.1196 -0.2611 -0.1627
13018W        W17418   9.299   6.213  30.104  0.0784  0.0274 -0.2955
13019W        W17419  12.370   2.995  25.236 -0.0790 -0.0543  0.1549
13020W        W17420   2.467   5.791   7.569 -0.0570  0.1954 -0.0991
13021W        W17421  23.179   4.283  14.657 -0.0478 -0.1537  0.3433
13022W        W17422   6.671   4.395   3.310 -0.1330 -0.1589  0.1748
13023W        W17423  17.956   0.145  27.171 -0.1249  0.1388 -0.0056
13024W        W17424   8.643   4.637  27.044  0.2646 -0.0465 -0.1209
13025W        W17425  19.378   7.814   0.242  0.0840 -0.1925 -0.0393
13026W        W17426  15.852   6.216  26.268  0.3796 -0.0447  0.0245
13027W        W17427   1.517   7.626  11.867  0.0293  0.1402  0.2445
13028W        W17428  24.646   2.455  21.498  0.2367  0.0644  0.3247
13029W        W17429   7.390   6.745   9.375 -0.0718 -0.0555  0.2256
13030W        W17430   6.229   4.988   1.225  0.2064  0.2434 -0.2904
13031W        W17431   0.112   5.498   9.555 -0.2058  0.1150  0.2776
13032W        W17432  14.321   6.236  22.274 -0.0283 -0.0321  0.0226
13033W        W17433  20.265   0.033  10.389  0.1996 -0.1943  0.3696
13034W        W17434   1.423   3.231   6.513  0.0719  0.0432  0.1525
13035W        W17435   5.943   6.764   8.389  0.0779 -0.0164  0.1421
13036W        W17436   8.784   5.781  17.797  0.0608 -0.0329  0.0293
13037W        W17437  17.526   0.274   3.896 -0.1192 -0.1116 -0.3486
13038W        W17438  19.922   1.985   1.273  0.1700 -0.0486  0.3795
13039W        W17439  20.292   1.213  11.910  0.0476  0.0025 -0.0129
13040W        W17440  10.238   2.605   6.490  0.0636  0.0070 -0.0806
13041W        W17441  15.291   5.100  25.308 -0.1070  0.1360  0.0710
13042W        W17442   2.660   2.197  27.244 -0.3650 -0.2636  0.0817
13043W        W17443   5.380   3.753   1.143  0.2650  0.1960  0.1539
13044W        W17444  18.270   2.967  24.505 -0.0646 -0.0210 -0.2536
13045W        W17445   5.916   1.853  25.636 -0.3029  0.2618  0.1471
13046W        W17446   6.906   4.451  26.586  0.0055 -0.0599 -0.3062
13047W        W17447  15.469   7.200  14.476  0.1873  0.0782  0.2175
13048W        W17448  14.815   7.380  31.683 -0.4419 -0.1934 -0.0644
13049W        W17449  24.116   0.864   7.368  0.0087 -0.1630  0.1875
13050W        W17450   1.064   7.744  30.007  0.3543 -0.0737  0.3069
13051W        W17451   1.124   7.292   4.622 -0.0355 -0.1797  0.3925
13052W        W17452  14.598   1.975   3.581 -0.0848 -0.2068  0.2134
13053W        W17453  13.217   3.553   0.594 -0.0595  0.1342  0.3036
13054W        W17454   2.540   2.187  28.088 -0.1489  0.0421 -0.2414
13055W        W17455  21.403   4.528   0.626 -0.0751 -0.0272  0.4311
13056W        W17456   4.426   7.632  10.514 -0.1871 -0.3502  0.1092
13057W        W17457  11.879   7.621  23.521  0.3523 -0.0148 -0.0522
13058W        W17458   9.166   2.923   1.080  0.1431 -0.0993 -0.0392
13059W        W17459   8.293   7.647  22.288 -0.0219 -0.0887  0.1154
13060W        W17460  19.086   2.741  28.787 -0.4046 -0.0640  0.0991
13061W        W17461  14.535   5.725   7.705  0.0315  0.0105  0.0840
13062W        W17462  23.905   5.164  27.595 -0.2604 -0.0778  0.2723
13063W        W17463   4.530   2.118  28.688 -0.1856 -0.2104  0.4194
13064W        W17464  10.747   1.193  17.726  0.1043  0.3018  0.1750
13065W        W17465  16.635   2.815  24.740 -0.0751 -0.2231  0.2731
13066W        W17466  10.010   2.543  22.607  0.2377 -0.2297 -0.2269
13067W        W17467  12.157   4.105   6.232 -0.1571  0.1056  0.2935
13068W        W17468  23.629   5.776   6.356 -0.0612 -0.1436  0.3650
13069W        W17469   0.628   1.003  27.385  0.4301 -0.3437 -0.0391
13070W        W17470  14.922   2.349  12.889 -0.1256  0.0266  0.1227
13071W        W17471  16.826   1.812   7.538 -0.2759  0.3095  0.0608
13072W        W17472   5.734   3.213  27.922  0.3326  0.2994  0.1361
13073W        W17473  12.657   6.619  30.825  0.1315 -0.1471  0.2430
13074W        W17474   0.932   6.713   4.975  0.1401  0.2675  0.1181
13075W        W17475   1.207   0.080   7.178  0.1049 -0.0087 -0.2108
13076W        W17476   7.116   4.413  23.243 -0.0274  0.0008  0.1387
13077W        W17477  21.857   3.193  16.862  0.1737  0.0430 -0.1060
13078W        W17478  24.300   5.467  10.954 -0.2479  0.0363  0.1421
13079W        W17479  16.460   2.469  29.418  0.0488  0.3707  0.0711
13080W        W17480   7.067   4.938   5.337 -0.0825  0.3605 -0.3314
13081W        W17481   8.751   1.005   0.145  0.1191  0.0164  0.5257
13082W        W17482  11.379   6.816  19.515  0.0335  0.1221  0.0646
13083W        W17483  20.403   1.805   1.338 -0.0750  0.3290 -0.1795
13084W        W17484  12.144   5.203   4.369  0.2535 -0.2909 -0.1190
13085W        W17485  16.592   5.871  11.658 -0.1466  0.2517 -0.3527
13086W        W17486  15.198   0.395  12.663 -0.0401 -0.3077 -0.1304
13087W        W17487   7.670   3.533  29.355 -0.4879 -0.0705  0.1595
13088W        W17488   5.585   5.952  10.194 -0.1024  0.2583  0.2378
13089W        W17489  25.090   4.561  13.397  0.0336 -0.1945  0.1586
13090W        W17490   6.518   0.894  31.466 -0.2098 -0.0674  0.0910
13091W        W17491   0.319   5.240   9.972  0.0064  0.0953 -0.0291
13092W        W17492  15.201   5.052  14.499  0.0850 -0.0931 -0.4634
13093W        W17493   7.144   5.843   9.054 -0.2028  0.0700 -0.1955
13094W        W17494   9.017   5.992  19.340 -0.1189 -0.1190  0.0491
13095W        W17495  19.197   2.720  15.289 -0.0659 -0.0500  0.0805
13096W        W17496   4.669   6.957  28.477 -0.0421  0.0410  0.0401
13097W        W17497   3.026   0.961  18.414  0.3123  0.4207 -0.2955
13098W        W17498  24.993   2.322  24.006  0.2408  0.0842  0.3132
13099W        W17499  10.192   1.327  17.631  0.1118  0.0673  0.0456
13100W        W17500   0.733   1.482   2.945  0.2093 -0.0842  0.2551
13101W        W17501   9.065   6.855  24.828 -0.0232  0.0240  0.0599
13102W        W17502  23.682   4.879   1.395 -0.0642 -0.0168  0.0799
13103W        W17503   2.595   0.713   8.618  0.0802  0.2793 -0.1001
13104W        W17504  18.895   0.722   3.562 -0.1081  0.1668  0.0804
13105W        W17505  15.693   4.451  15.766  0.0309  0.0623 -0.0890
13106W        W17506  13.122   0.339  31.443 -0.4816 -0.1547 -0.0917
13107W        W17507  14.383   5.786  32.162  0.1379  0.0751  0.1197
13108W        W17508   4.962   5.134   2.043  0.5038  0.1708  0.0776
13109W        W17509  10.397   7.799   5.174 -0.2935  0.0906 -0.0846
13110W        W17510  10.391   6.389   7.146  0.4928 -0.2262  0.0101
13111W        W17511  24.655   4.840   8.347  0.2887 -0.0353 -0.1003
13112W        W17512   9.717   0.226   2.424 -0.3303 -0.0483 -0.1480
13113W        W17513  14.580   3.331  25.800  0.1826 -0.0283 -0.0823
13114W        W17514   9.560   7.503  23.659  0.2262  0.0685  0.1416
13115W        W17515   9.325   7.583  24.942 -0.3369 -0.4963  0.4105
13116W        W17516  11.076   7.003   6.374 -0.0478 -0.0009  0.1545
13117W        W17517   4.495   3.660  17.840 -0.0336  0.2947  0.1641
13118W        W17518  10.396   5.347   2.224 -0.1281 -0.1948  0.2723
13119W        W17519   8.233   5.986  15.844  0.0743  0.1670  0.1170
13120W        W17520   2.990   1.536   9.455 -0.0026  0.0113 -0.0162
13121W        W17521  24.405   4.494  10.117  0.1062  0.1682  0.1299
13122W        W17522  18.740   0.579  15.748 -0.1112  0.0983  0.1697
13123W        W17523  15.182   4.192  31.436  0.2180 -0.1056  0.1188
13124W        W17524  14.607   1.804  27.092  0.0441 -0.0454 -0.0645
13125W        W17525  20.266   4.176  24.857  0.1196  0.4066  0.0809
13126W        W17526   2.287   5.312  11.085 -0.0178 -0.2199 -0.0554
13127W        W17527   0.238   4.445   7.021  0.4582  0.1403  0.1466
13128W        W17528   3.236   4.650  22.019 -0.2734 -0.0032 -0.1534
13129W        W17529   3.190   6.446   8.798 -0.0677  0.1343 -0.0822
13130W        W17530   7.566   4.299  18.137  0.1913  0.0816 -0.0713
13131W        W17531   3.690   7.782  32.255 -0.1281  0.0321  0.0533
13132W        W17532  18.551   1.926  26.786  0.0538 -0.0877 -0.2994
13133W        W17533   4.093   5.000   8.815  0.2608 -0.1404 -0.2085
13134W        W17534  11.692   2.629  20.358  0.2176 -0.0970  0.0750
13135W        W17535   4.140   3.210  32.263  0.2436 -0.0390  0.0472
13136W        W17536  10.973   3.563   8.346  0.0269 -0.1827  0.3418
13137W        W17537  12.614   3.856  31.130  0.0364  0.1285 -0.1585
13138W        W17538  20.535   0.810   1.478  0.0403 -0.1902  0.2359
13139W        W17539  16.797   0.648   4.999 -0.0094 -0.0541  0.1256
13140W        W17540  21.630   7.799  32.054  0.0059  0.0815  0.0278
13141W        W17541  12.571   0.245  25.774  0.0281  0.3535 -0.3107
13142W        W17542  18.312   2.423  28.605 -0.0465  0.0787  0.2100
13143W        W17543   8.799   5.096   7.738  0.0544  0.2688 -0.0843
13144W        W17544  21.120   4.940   7.189  0.1075  0.0257 -0.0301
13145W        W17545  22.225   3.180   1.889  0.1594 -0.1493  0.0439
13146W        W17546  22.868   3.561   1.230 -0.1382  0.0187  0.0502
13147W        W17547   2.061   5.507  22.576  0.0586  0.1484 -0.0010
13148W        W17548  18.844   5.738   5.659 -0.0044 -0.1001  0.0523
13149W        W17549  15.728   2.918  22.184  0.0093  0.0137  0.1556
13150W        W17550   0.639   0.175  32.488  0.0131 -0.0895 -0.1148
13151W        W17551   2.297   2.865   2.827  0.0299 -0.1718 -0.1284
13152W        W17552   7.377   5.724  17.298  0.2023 -0.1601  0.1394
13153W        W17553   7.658   2.924   4.608  0.0364 -0.0071 -0.0751
13154W        W17554  19.720   2.938   1.018 -0.1280  0.5076  0.0874
13155W        W17555  19.681   6.430  30.657 -0.2425 -0.0221 -0.2311
13156W        W17556  16.260   3.957   4.277  0.0506 -0.1995  0.1386
13157W        W17557  11.846   1.052  22.377 -0.0867  0.0266  0.0874
13158W        W17558   3.250   5.379   6.161 -0.0122 -0.0962 -0.0169
13159W        W17559   8.090   0.178   9.976 -0.2618  0.1804 -0.2547
13160W        W17560  24.507   0.015  27.089  0.4027  0.0230  0.0584
13161W        W17561  18.208   0.311  32.470 -0.1831 -0.1577 -0.1297
13162W        W17562   8.946   6.702  18.643  0.1461 -0.0516  0.4860
13163W        W17563   2.383   5.953  31.178 -0.0380 -0.1071 -0.0586
13164W        W17564  16.958   4.115  15.855  0.0918  0.0296 -0.0945
13165W        W17565  15.929   1.858   9.721  0.2113  0.0868  0.0307
13166W        W17566  15.222   1.560  12.560  0.0311 -0.2555  0.0201
13167W        W17567   0.160   1.426  12.899 -0.0138 -0.1757  0.2119
13168W        W17568  20.140   7.260   8.404 -0.0431 -0.1029 -0.1203
13169W        W17569   4.061   4.643   1.906  0.2618  0.0357 -0.2521
13170W        W17570   5.272   7.797  30.476  0.3284  0.3161  0.2222
13171W        W17571   1.060   0.936  20.833  0.0550 -0.1386 -0.0322
13172W        W17572  22.627   0.768  15.175  0.1938 -0.0035  0.0042
13173W        W17573   2.865   4.430  25.255  0.1474 -0.0648  0.1378
13174W        W17574   6.476   6.706  22.322 -0.0434 -0.2595  0.1229
13175W        W17575  24.067   1.155  29.404 -0.0329  0.1636 -0.0953
13176W        W17576   6.851   3.200  23.108 -0.0181 -0.0490 -0.1273
13177W        W17577  22.922   1.348   7.632  0.0163  0.1723 -0.1368
13178W        W17578   8.989   6.618  20.820  0.2355 -0.2578 -0.3476
13179W        W17579  15.902   5.809  15.224  0.0863 -0.3017 -0.3575
13180W        W17580   3.787   1.571  24.825 -0.0758 -0.3089  0.0447
13181W        W17581  17.460   3.069   8.982 -0.0621 -0.0928 -0.0946
13182W        W17582   5.914   3.526  30.158  0.0150 -0.0071  0.0650
13183W        W17583  17.948   5.604  30.638 -0.1687  0.1067 -0.1145
13184W        W17584   3.413   3.923  28.300 -0.2416  0.0012  0.2889
13185W        W17585  18.030   0.966   5.808  0.0034  0.0620 -0.0792
13186W        W17586   4.290   3.839   4.366  0.0973  0.1549 -0.0094
13187W        W17587  19.194   7.137  23.906 -0.1297 -0.0403 -0.3587
13188W        W17588  15.718   6.480   7.175  0.2608  0.0300  0.0487
13189W        W17589  11.524   4.877   0.911  0.0177  0.1036 -0.3017
13190W        W17590  24.853   7.104   0.649 -0.1230  0.0126  0.3447
13191W        W17591  23.577   4.540   4.377 -0.0808 -0.2532 -0.0302
13192W        W17592   5.230   2.039  19.951 -0.3379 -0.1882 -0.0920
13193W        W17593  19.681   7.053  25.419  0.3663  0.0497 -0.0951
13194W        W17594  13.389   4.052   7.530 -0.1821  0.0359 -0.2710
13195W        W17595  19.107   0.131   6.100 -0.2831 -0.1646 -0.1791
13196W        W17596   9.337   5.660  17.115 -0.1479  0.2169 -0.0745
13197W        W17597  17.313   4.041   7.305 -0.0045 -0.1679  0.1542
13198W        W17598  17.336   2.008   3.648  0.3258 -0.2341  0.0471
13199W        W17599  17.322   3.736  27.447  0.1109 -0.0118 -0.0647
13200W        W17600   8.515   2.433  24.973  0.0636 -0.1216  0.2197
13201W        W17601   0.162   3.248   7.146 -0.1113  0.2814 -0.0427
13202W        W17602  23.000   6.845   8.296 -0.0766 -0.2514 -0.1105
13203W        W17603  16.731   7.512  29.271 -0.0638  0.0909 -0.1550
13204W        W17604  11.502   2.251  20.664 -0.0289  0.0393  0.0225
13205W        W17605  17.364   5.604   9.133  0.0390 -0.1614 -0.1234
13206W        W17606  13.976   0.761   2.070 -0.0444 -0.0221 -0.1672
13207W        W17607  14.090   2.228   6.931 -0.0594  0.0804  0.1267
13208W        W17608  18.915   6.036  25.709  0.1669 -0.1263  0.0521
13209W        W17609  15.143   5.072  13.086 -0.0915  0.1713 -0.0954
13210W        W17610   2.711   2.773   2.606 -0.1466  0.2281 -0.0676
13211W        W17611  21.099   4.617   2.526 -0.3559  0.0407  0.0473
13212W        W17612  15.319   2.206   0.533  0.0711 -0.1796  0.0966
13213W        W17613  24.989   4.294  31.295  0.2335  0.0006 -0.0714
13214W        W17614   4.615   5.107   9.847  0.0677  0.0863 -0.0666
13215W        W17615  22.838   4.676  23.664 -0.2865  0.2079 -0.3396
13216W        W17616  18.989   4.371  11.955 -0.1518  0.2398 -0.2630
13217W        W17617  24.939   4.604   6.054  0.3211 -0.2286 -0.0305
13218W        W17618  11.478   1.937   7.546 -0.1150 -0.0865  0.1069
13219W        W17619   0.673   3.518   2.916  0.2988 -0.0676  0.0613
13220W        W17620   5.164   4.262  23.049  0.0163  0.1626 -0.0628
13221W        W17621  20.763   6.189   7.391  0.2212 -0.0516 -0.0368
13222W        W17622   3.548   0.166  22.139  0.2625 -0.0052  0.1077
13223W        W17623  19.905   0.066   8.669  0.2034 -0.2111 -0.0314
13224W        W17624   4.875   1.591  31.681 -0.0016 -0.0733  0.2901
13225W        W17625  24.550   0.937   3.056  0.2142 -0.0904 -0.1509
13226W        W17626   3.816   1.634  21.047  0.2824  0.0087 -0.1536
13227W        W17627  13.862   7.689  12.653 -0.2514  0.1711 -0.0515
13228W        W17628   3.098   3.113  17.264 -0.2342 -0.0849  0.1197
13229W        W17629  20.036   7.006   6.616 -0.0867  0.0277 -0.0082
13230W        W17630   9.467   4.737  16.634  0.1237 -0.1596 -0.0741
13231W        W17631   2.931   3.394   4.473 -0.1437  0.0458 -0.1894
13232W        W17632  22.791   2.061  15.056 -0.4864 -0.0704 -0.3015
13233W        W17633   5.594   1.320  20.506 -0.0992  0.0460  0.3896
13234W        W17634   2.317   2.431   9.831  0.0506 -0.0347  0.0790
13235W        W17635  18.370   1.905  13.212 -0.1451 -0.0508  0.0090
13236W        W17636  11.420   7.046  24.808  0.2682  0.1925  0.0772
13237W        W17637  21.468   0.390   3.011  0.0794  0.0192  0.0674
13238W        W17638  11.112   1.658  17.084  0.1771 -0.2680  0.1061
13239W        W17639  16.696   4.587   7.186  0.2532 -0.2078 -0.1940
13240W        W17640   4.994   3.339   2.350  0.1893  0.1690 -0.0644
13241W        W17641  15.817   6.873   9.581 -0.4157  0.1482  0.0658
13242W        W17642   1.728   5.639   5.126 -0.0146  0.2638  0.1827
13243W        W17643   7.390   1.857   9.487  0.0112  0.1178  0.1044
13244W        W17644  10.326   3.529   7.384  0.1801  0.1360 -0.3430
13245W        W17645  18.674   6.716   0.863  0.3050  0.2094 -0.0324
13246W        W17646   6.659   6.718   3.547 -0.3442 -0.1022  0.0914
13247W        W17647  12.257   6.548  25.226  0.0204 -0.1722 -0.0576
13248W        W17648  13.373   6.599   5.785  0.1748  0.0895 -0.1468
13249W        W17649  15.993   4.782   7.865  0.1441  0.0158  0.4405
13250W        W17650  17.019   6.091  28.107 -0.0402  0.1017 -0.2549
13251W        W17651  20.808   0.011  21.824 -0.2389  0.0206 -0.1443
13252W        W17652  13.163   4.270   3.585  0.2089 -0.0628 -0.0497
13253W        W17653  18.930   0.146   9.002  0.1067  0.1130 -0.2615
13254W        W17654   1.767   2.322   4.270  0.1338  0.2881  0.1617
13255W        W17655  24.088   0.654  11.189  0.1483  0.3208  0.0856
13256W        W17656  23.732   6.261  15.227 -0.0629 -0.2138 -0.0893
13257W        W17657  19.122   5.212   6.065  0.0625  0.1677 -0.0045
13258W        W17658  23.467   6.881   4.758  0.1270 -0.2214 -0.1207
13259W        W17659  12.967   3.276   1.177 -0.1877  0.0855 -0.0308
13260W        W17660   5.403   3.916  23.867  0.1607  0.0538 -0.0392
13261W        W17661  23.151   7.222  16.056 -0.1173  0.1422  0.0013
13262W        W17662  11.794   1.577  11.242 -0.5242 -0.3167 -0.1210
13263W        W17663  18.779   1.344  31.630  0.0382 -0.0790  0.2044
13264W        W17664  14.783   5.053  31.612  0.0375 -0.1229 -0.0409
13265W        W17665  21.683   6.242   5.315  0.1473  0.1178 -0.0555
13266W        W17666  15.413   2.192  11.162 -0.1984 -0.0796 -0.1243
13267W        W17667   5.438   1.370  16.417 -0.1748 -0.1840  0.0625
13268W        W17668  24.802   2.710   7.707 -0.1086 -0.0021  0.0026
13269W        W17669  13.402   1.786  10.389  0.1789  0.1689  0.0369
13270W        W17670  24.560   3.688  21.844  0.0558  0.0486 -0.0321
13271W        W17671   7.204   0.380   3.279 -0.1481  0.0234  0.0891
13272W        W17672  13.660   0.019   4.423  0.0211 -0.2146 -0.1197
13273W        W17673  13.860   1.473   4.928 -0.0345  0.2816  0.1536
13274W        W17674  15.788   7.174   6.161  0.2797  0.1857 -0.2647
13275W        W17675   2.901   2.962  18.996  0.0928  0.0558 -0.0041
13276W        W17676   1.973   6.736  21.262 -0.4326  0.1020 -0.0757
13277W        W17677  10.216   6.542   3.071 -0.0996  0.2643  0.0574
13278W        W17678  10.855   5.772  19.499  0.0893  0.1245 -0.1198
13279W        W17679  21.290   0.843   4.388  0.1971  0.2026  0.0798
13280W        W17680  15.591   5.944   7.791 -0.2020  0.1364 -0.2025
13281W        W17681   3.234   5.669  25.310 -0.1187 -0.0376  0.0411
13282W        W17682  22.734   0.890  23.968 -0.1516 -0.1383 -0.3919
13283W        W17683   8.638   3.463   4.339 -0.0077  0.0288 -0.1728
13284W        W17684   2.396   3.574   1.405  0.3230  0.2640  0.1840
13285W        W17685  13.749   7.622  27.734  0.0712  0.0002 -0.1360
13286W        W17686   4.494   6.284  19.909  0.1722  0.1983 -0.1172
13287W        W17687  23.749   1.606  12.259  0.3914 -0.2678  0.2046
13288W        W17688   8.017   3.983  20.511 -0.1184  0.0004 -0.0348
13289W        W17689  20.338   2.067  24.663 -0.0465 -0.3600  0.3558
13290W        W17690   2.040   2.975  28.629  0.0663 -0.1255  0.1166
13291W        W17691  22.049   5.919  10.052 -0.1593 -0.0651 -0.1615
13292W        W17692  22.812   1.820  12.439 -0.1555  0.0743 -0.0838
13293W        W17693  19.901   3.809   7.692  0.1867  0.0358 -0.1462
13294W        W17694  11.674   5.186  23.656 -0.2553  0.0646 -0.1507
13295W        W17695  24.494   3.441  23.975  0.0310  0.1220 -0.1554
13296W        W17696   7.873   6.511  23.383  0.0102 -0.2271 -0.1271
13297W        W17697   8.579   6.935  29.178 -0.1502  0.2149  0.0161
13298W        W17698   0.958   0.044   3.937  0.0445 -0.1352 -0.0092
13299W        W17699  12.346   4.247  27.690  0.3202  0.0227  0.0566
13300W        W17700  22.466   4.934  31.567 -0.2100 -0.0351 -0.2237
13301W        W17701  10.073   3.618  10.449  0.0477 -0.1964  0.3189
13302W        W17702   9.603   3.900   8.752  0.1599  0.1016  0.4437
13303W        W17703   1.317   5.981  23.159  0.6586  0.1456 -0.1980
13304W        W17704   7.958   2.725  19.176  0.1513  0.1702  0.0854
13305W        W17705   2.433   3.514  19.929 -0.0306 -0.0887  0.1237
13306W        W17706   7.668   1.964  28.731 -0.0159 -0.2880 -0.2713
13307W        W17707  21.871   0.629   3.179 -0.2326  0.3806 -0.1401
13308W        W17708  11.824   4.492   7.563  0.0381 -0.0259  0.0010
13309W        W17709   8.747   4.765  24.653  0.1555  0.1784  0.0858
13310W        W17710  15.004   7.048  25.063 -0.2110 -0.1453  0.2134
13311W        W17711  11.507   6.230  26.984  0.0319 -0.1149  0.1134
13312W        W17712  18.719   6.500   2.447 -0.0927  0.3471  0.0230
13313W        W17713   8.227   0.073   9.088 -0.1676  0.0049 -0.1908
13314W        W17714  16.252   4.269  16.915  0.0010 -0.1056  0.4088
13315W        W17715  24.602   7.800  24.761  0.1652 -0.0065 -0.2191
13316W        W17716  17.452   1.378   3.860  0.2593  0.3431  0.0308
13317W        W17717   2.733   4.349   7.355 -0.0823 -0.1375  0.1854
13318W        W17718  18.430   3.236  28.593  0.0822  0.1620  0.2141
13319W        W17719   1.760   6.716   3.240 -0.1288  0.0195 -0.1194
13320W        W17720  17.289   0.000   1.574  0.1290  0.0619  0.0489
13321W        W17721  22.596   4.134  24.192  0.1782 -0.0126 -0.2562
13322W        W17722  23.656   0.234  23.874 -0.0763  0.0384 -0.0268
13323W        W17723  14.823   3.708  24.712  0.1901  0.0884  0.1634
13324W        W17724  16.419   6.015  27.792  0.0217  0.3716  0.2367
13325W        W17725   6.906   3.095   1.676  0.0660  0.0267 -0.0330
13326W        W17726   8.249   7.253   5.839 -0.0258 -0.2077 -0.1068
13327W        W17727  24.857   1.441  27.012 -0.2482  0.3541  0.2442
13328W        W17728  20.062   7.401   3.266 -0.0625 -0.0519 -0.0211
13329W        W17729  14.249   2.299   8.335 -0.1335 -0.2093  0.2436
13330W        W17730   8.063   1.039  17.211  0.0991  0.0488  0.2077
13331W        W17731  10.006   7.630   0.837  0.3228 -0.1354  0.1576
13332W        W17732  10.074   3.815  20.805  0.1744  0.0109 -0.0431
13333W        W17733  21.337   7.277  30.661 -0.0252  0.3055 -0.0953
13334W        W17734  16.950   2.061  24.927  0.0334 -0.2037  0.2450
13335W        W17735  24.433   0.698   0.355  0.3526 -0.0572 -0.2020
13336W        W17736   6.004   7.478  26.257 -0.1731 -0.1182 -0.1157
13337W        W17737  20.961   1.962   9.240  0.0483  0.2855 -0.4581
13338W        W17738   3.582   5.052  15.349 -0.0483 -0.2242 -0.0814
13339W        W17739  24.224   1.951   5.545 -0.2682 -0.0041 -0.0274
13340W        W17740  16.650   4.113  23.317  0.1501  0.0162  0.3832
13341W        W17741   0.738   6.884   2.687  0.0818 -0.3002 -0.0570
13342W        W17742   0.983   5.483  10.560  0.0032 -0.1085  0.0026
13343W        W17743  15.232   1.797  10.850 -0.0255 -0.2144  0.0335
13344W        W17744  16.597   3.142  11.217  0.0096 -0.0233  0.2021
13345W        W17745  16.122   0.014  11.275 -0.2109 -0.0534 -0.1653
13346W        W17746   7.969   5.751  28.245 -0.0175 -0.0961  0.1259
13347W        W17747  24.044   4.423  32.250  0.3122 -0.0984 -0.1991
13348W        W17748   3.544   3.988   3.014  0.1455  0.0354  0.1426
13349W        W17749   7.714   1.490  26.246  0.1134 -0.0175 -0.0433
13350W        W17750   5.116   7.349  20.008 -0.1954 -0.1539 -0.0980
13351W        W17751  21.258   5.898   8.008  0.2485 -0.2463  0.0656
13352W        W17752  19.431   4.119  30.952  0.2173 -0.2151 -0.2810
13353W        W17753  23.783   3.813  14.235 -0.2401  0.1054 -0.2536
13354W        W17754  12.853   5.987  27.913 -0.1408 -0.0714 -0.0853
13355W        W17755   5.760   6.924  29.190 -0.0585 -0.0062 -0.1096
13356W        W17756  16.449   3.402  16.291 -0.0498  0.0014  0.3061
13357W        W17757  24.477   1.297   7.163  0.1802  0.1153 -0.2706
13358W        W17758   8.190   6.705  10.536 -0.0651 -0.2461  0.2274
13359W        W17759  18.232   0.201  16.792 -0.1261 -0.2378 -0.0694
13360W        W17760   5.246   0.468   9.769 -0.2316 -0.2008 -0.1643
13361W        W17761  12.808   5.534  20.745  0.0997  0.0570 -0.1154
13362W        W17762  16.522   6.458  10.137  0.0271  0.2527 -0.1442
13363W        W17763   4.378   2.607  29.837 -0.1184 -0.0401  0.0795
13364W        W17764   7.761   5.575   2.704 -0.3246 -0.0653 -0.5470
13365W        W17765   2.305   4.346  11.288 -0.0098 -0.1424 -0.0255
13366W        W17766  15.752   6.356   0.204 -0.0402  0.3276 -0.1948
13367W        W17767  23.433   2.428  13.955  0.0744  0.1543 -0.0504
13368W        W17768  24.936   2.553  30.889 -0.3044 -0.0204  0.0574
13369W        W17769   4.085   5.725  11.344  0.2171 -0.1420 -0.3493
13370W        W17770   2.348   5.359   3.624  0.1041 -0.1781  0.0713
13371W        W17771  10.271   5.041   4.391 -0.0005 -0.0148 -0.2134
13372W        W17772   7.642   7.422   4.747 -0.2253  0.0637  0.0914
13373W        W17773   5.550   0.237  31.849 -0.1499 -0.0818  0.0791
13374W        W17774   1.609   6.056  30.215  0.1060 -0.3850 -0.1107
13375W        W17775   2.187   5.845   3.217 -0.1263  0.2359  0.1983
13376W        W17776  19.175   3.008  13.986 -0.3256  0.1891  0.1299
13377W        W17777   4.506   2.857  25.186 -0.3907 -0.1516 -0.0973
13378W        W17778   1.871   5.476   3.159 -0.0544  0.1070 -0.1118
13379W        W17779  10.216   3.295  19.605  0.0037 -0.0581 -0.0146
13380W        W17780  11.114   0.474  10.457  0.0177  0.0929  0.3127
13381W        W17781   6.805   3.097   8.617 -0.4622 -0.1048 -0.2965
13382W        W17782  19.476   7.367  15.595  0.2634 -0.0546  0.1583
13383W        W17783  10.969   6.184   0.197  0.3819 -0.2477  0.0164
13384W        W17784  20.094   5.850   7.185 -0.1342  0.1031  0.0371
13385W        W17785   8.993   5.904  22.736  0.2322 -0.3204  0.1214
13386W        W17786  16.409   6.114  12.090 -0.2269  0.0930  0.1392
13387W        W17787  15.726   2.737   0.821 -0.0951  0.1124  0.0861
13388W        W17788  23.372   7.013  29.450  0.6096  0.1366 -0.0115
13389W        W17789  17.846   4.956  11.416 -0.0718 -0.1190 -0.2123
13390W        W17790  15.450   2.523   7.406  0.2100 -0.2176 -0.0410
13391W        W17791  25.140   5.950  29.288  0.0559  0.0342 -0.0807
13392W        W17792  21.249   0.851  29.213 -0.1481 -0.0825 -0.4104
13393W        W17793   5.894   7.313  16.731 -0.0070 -0.1596 -0.0647
13394W        W17794   6.764   4.154   9.629  0.1250  0.0940 -0.0623
13395W        W17795  11.137   4.038   8.098 -0.0379 -0.0364 -0.2006
13396W        W17796   8.244   1.998   1.729 -0.0687  0.2602 -0.1796
13397W        W17797  21.763   2.925  26.721 -0.1206  0.1491 -0.0947
13398W        W17798   9.060   6.661  26.925 -0.1484 -0.1901  0.3545
13399W        W17799  13.164   7.067   2.268 -0.3217 -0.0225  0.1129
13400W        W17800  17.483   1.373  12.960 -0.2094  0.0595 -0.0881
13401W        W17801   8.510   2.396  28.167  0.0415 -0.0693  0.1251
13402W        W17802   9.064   0.629  20.335  0.1784  0.0651 -0.0689
13403W        W17803  22.281   6.910  14.095  0.3045  0.1440  0.2399
13404W        W17804  20.515   7.504  14.193  0.0909 -0.0479 -0.3021
13405W        W17805  16.839   1.848  27.638  0.2502  0.0907 -0.0272
13406W        W17806  10.026   0.050  18.624  0.0294 -0.1844 -0.1672
13407W        W17807  17.741   4.624  22.861 -0.0695 -0.0606  0.3491
13408W        W17808  12.003   6.250  27.467 -0.1542  0.0482 -0.0093
13409W        W17809   9.439   1.801  21.776  0.0840 -0.1883 -0.0795
13410W        W17810  11.204   0.985   5.000  0.1921  0.1595  0.3229
13411W        W17811  16.811   2.977  10.081 -0.2028  0.0802 -0.0019
13412W        W17812   8.870   3.380  25.133 -0.0619  0.1388 -0.0540
13413W        W17813   3.077   1.639   4.762 -0.0570  0.1328 -0.1199
13414W        W17814  20.529   4.343  12.914  0.2208 -0.1315 -0.0982
13415W        W17815  15.877   3.898  14.253  0.1993 -0.0003 -0.0586
13416W        W17816   4.226   3.359  18.112 -0.1833 -0.1167  0.2079
13417W        W17817  21.922   1.264  32.394  0.2625  0.0191  0.0669
13418W        W17818  16.050   5.496   8.920  0.1245  0.2118  0.0600
13419W        W17819  24.483   0.023   9.157 -0.2787 -0.0819  0.0263
13420W        W17820   7.284   2.723  25.349 -0.0567 -0.0054  0.2048
13421W        W17821  15.530   0.332  12.266 -0.1952 -0.2325  0.3584
13422W        W17822   8.328   6.687  28.826  0.0585 -0.2496  0.0193
13423W        W17823  12.091   6.068  26.966  0.1025  0.0167  0.0698
13424W        W17824   2.934   0.060  32.377 -0.0962 -0.0102  0.0481
13425W        W17825  12.551   0.595  21.182 -0.0217 -0.1885  0.2910
13426W        W17826   7.548   6.145  21.808 -0.2339 -0.0991 -0.0425
13427W        W17827   7.032   0.007   4.251 -0.0019 -0.2806 -0.1020
13428W        W17828   8.238   2.265  24.570 -0.0071 -0.1986 -0.0041
13429W        W17829  13.813   0.393  10.802 -0.0221 -0.1591  0.0234
13430W        W17830  20.833   5.151   4.236 -0.4108  0.2029 -0.2274
13431W        W17831  20.794   1.910   3.082  0.1856  0.1418  0.1707
13432W        W17832   5.552   3.723  27.739  0.3722  0.1457 -0.2247
13433W        W17833  10.086   0.883  17.083  0.1464 -0.0858  0.2970
13434W        W17834  10.735   2.332  32.293 -0.3455  0.1122 -0.0878
13435W        W17835  22.969   4.745   7.471  0.3405  0.0844 -0.1004
13436W        W17836   1.387   3.678   9.697  0.1304  0.0149  0.0711
13437W        W17837   0.190   5.462  20.904 -0.1763 -0.1824 -0.0527
13438W        W17838   4.484   3.028  10.232  0.1521  0.3112 -0.2733
13439W        W17839  19.973   1.243   6.126  0.0306  0.1403  0.0272
13440W        W17840  15.391   5.135   0.805  0.2929 -0.2085  0.2257
13441W        W17841   4.527   7.123   3.849  0.0603  0.3591 -0.0607
13442W        W17842  16.458   0.897   1.943  0.0735  0.2198 -0.0595
13443W        W17843  17.004   6.320  28.879  0.0515  0.0136  0.0450
13444W        W17844  16.541   3.423   3.568  0.0120 -0.1067  0.1814
13445W        W17845  22.537   7.458   3.982  0.0798  0.0995  0.0322
13446W        W17846  24.473   3.921  11.198  0.1720  0.2231  0.0487
13447W        W17847  24.584   5.313  29.171 -0.1227  0.2364  0.3435
13448W        W17848  10.653   0.294   6.935 -0.0202  0.1076  0.1361
13449W        W17849   7.707   0.962   9.174 -0.0383  0.2157  0.2309
13450W        W17850  15.299   7.470  27.780  0.0248 -0.0194  0.2047
13451W        W17851  11.762   3.067   2.227  0.0260 -0.1926 -0.0341
13452W        W17852  20.196   7.009  16.465  0.0745  0.0647 -0.0172
13453W        W17853   6.552   7.513  26.023 -0.3190 -0.2445  0.1593
13454W        W17854  11.639   4.345   2.065 -0.2776  0.2145  0.1281
13455W        W17855  11.641   5.355   5.111 -0.0884  0.2173  0.0365
13456W        W17856  21.851   5.505   5.782 -0.3094 -0.3635  0.1367
13457W        W17857  24.576   3.262  22.092 -0.2281 -0.0084 -0.0017
13458W        W17858  15.350   0.483   5.811  0.2243 -0.0280  0.0914
13459W        W17859   5.670   3.897  16.315 -0.2195 -0.3057 -0.1303
13460W        W17860  17.618   0.524  15.909 -0.5374  0.0489 -0.0455
13461W        W17861   1.689   2.020  11.387 -0.0367  0.1672 -0.0297
13462W        W17862   1.046   3.643   7.325 -0.0694  0.0169 -0.3167
13463W        W17863   3.632   5.463  18.551  0.1277 -0.3294  0.0429
13464W        W17864   8.080   5.530  31.136  0.0964  0.1161  0.0012
13465W        W17865  19.529   4.437  23.322 -0.1099 -0.1875  0.2545
13466W        W17866  17.255   2.446  29.089 -0.2102 -0.0554 -0.1170
13467W        W17867  17.123   7.323   0.024  0.0416 -0.1047 -0.1488
13468W        W17868   0.678   7.553   0.256  0.0149  0.0675 -0.2529
13469W        W17869   9.947   0.595   1.724  0.0808 -0.0126  0.1016
13470W        W17870   5.490   3.573  31.089 -0.1231  0.2528  0.3401
13471W        W17871   3.956   6.462  22.587 -0.0897 -0.1506 -0.1385
13472W        W17872  13.559   7.461  32.173 -0.3967 -0.1397  0.2206
13473W        W17873  13.567   2.286  21.499 -0.0529  0.0002 -0.1804
13474W        W17874   5.800   1.271  21.479 -0.4743  0.3277 -0.0096
13475W        W17875  11.256   0.969  18.507 -0.0840  0.2153  0.1327
13476W        W17876   4.262   6.466   7.950 -0.2471  0.0879  0.1199
13477W        W17877   1.360   7.084   5.576  0.3292 -0.1579  0.0729
13478W        W17878   5.863   6.297  24.671 -0.0464 -0.0337 -0.2453
13479W        W17879   8.491   5.056  22.464 -0.2306 -0.0878 -0.3365
13480W        W17880  19.133   0.419   9.390 -0.0980 -0.2503 -0.4017
13481W        W17881  23.337   1.219   7.224  0.1337  0.0651  0.2113
13482W        W17882  24.380   1.580   6.726  0.2123 -0.1104 -0.0279
13483W        W17883   3.382   2.132  26.110 -0.2204  0.1599 -0.1469
13484W        W17884  14.296   6.939   4.369 -0.0204  0.1275  0.1322
13485W        W17885   0.159   6.315  31.650 -0.0535 -0.0463 -0.0035
13486W        W17886  17.100   0.507  10.079  0.0965 -0.3130 -0.1267
13487W        W17887  20.222   0.395  30.590  0.0551 -0.1380  0.0038
13488W        W17888  19.813   3.364  24.400  0.3507 -0.0782  0.2743
13489W        W17889   1.402   7.616  22.241  0.3141  0.0964  0.0035
13490W        W17890  21.961   0.772  24.714 -0.0757  0.2691 -0.1287
13491W        W17891   0.500   2.752  24.194  0.1267  0.1380  0.1240
13492W        W17892  15.189   2.619  27.323  0.0162 -0.1123 -0.0280
13493W        W17893  14.769   4.614  23.105 -0.1081  0.3010  0.1184
13494W        W17894  16.984   0.680  14.240 -0.1277  0.0753 -0.3421
13495W        W17895   0.219   1.569  27.250  0.2437  0.1006  0.0476
13496W        W17896  12.894   6.595  30.411 -0.0887  0.0744  0.2605
13497W        W17897   6.377   4.453   5.071  0.0584  0.1765 -0.0467
13498W        W17898  18.813   1.300  28.728 -0.1892 -0.0062 -0.0355
13499W        W17899   8.980   6.903  10.005  0.1689  0.1196  0.3454
13500W        W17900  16.971   5.773  23.502 -0.1954 -0.3057  0.1438
13501W        W17901   6.104   7.346  24.735 -0.1703  0.0287 -0.0063
13502W        W17902  19.410   3.782  28.212 -0.1449  0.3530 -0.1362
13503W        W17903  10.033   3.212   0.862  0.1396  0.1111  0.1466
13504W        W17904  14.466   0.507  15.058  0.2706 -0.0860 -0.0595
13505W        W17905  12.836   2.929  30.230  0.0396  0.0285  0.0169
13506W        W17906  14.461   2.042   0.794 -0.1915 -0.1148 -0.3036
13507W        W17907   7.493   4.154   6.822 -0.2145 -0.0263 -0.3184
13508W        W17908  11.584   4.106  21.866  0.1001  0.1227 -0.2029
13509W        W17909   9.795   0.938   5.749 -0.2253  0.2156  0.0230
13510W        W17910   9.750   1.897  30.402  0.0896 -0.2533  0.4776
13511W        W17911   3.141   3.144   6.540  0.0112  0.2547  0.2421
13512W        W17912  18.559   1.294  30.070  0.0682 -0.0283 -0.3182
13513W        W17913  24.223   7.537  10.154  0.1420 -0.1703  0.0213
13514W        W17914   6.396   5.425  25.476 -0.1585  0.1542 -0.2630
13515W        W17915   8.717   5.242  20.218  0.2604 -0.0446 -0.0497
13516W        W17916  18.600   7.601   3.073 -0.2193  0.2996 -0.1252
13517W        W17917  16.047   3.872   5.407 -0.0529  0.3960  0.2358
13518W        W17918  20.018   6.821   7.100 -0.0123 -0.1066  0.0018
13519W        W17919  19.109   0.207  13.259 -0.0436  0.0223 -0.0191
13520W        W17920  20.307   4.313  10.492 -0.3668 -0.2337  0.0381
13521W        W17921  23.063   2.843  21.439  0.0992 -0.1282 -0.1740
13522W        W17922  15.953   1.633   0.871  0.0566 -0.1678  0.0129
13523W        W17923  21.464   1.235   0.385  0.3917 -0.0641  0.0189
13524W        W17924   2.985   4.595  23.329 -0.1187  0.1890  0.2137
13525W        W17925  20.463   4.771   9.694  0.2744  0.2469  0.0643
13526W        W17926   1.804   4.598   2.169 -0.2387 -0.2001 -0.1231
13527W        W17927  11.304   6.701  31.666 -0.1663 -0.0500  0.0705
13528W        W17928   6.405   1.528  28.025  0.2614  0.2764 -0.0566
13529W        W17929  17.072   3.950   5.623 -0.1674 -0.0832 -0.0842
13530W        W17930  23.509   3.818  32.142 -0.1069  0.3688  0.0693
13531W        W17931  24.354   0.117   8.560  0.2096  0.1830  0.1121
13532W        W17932  24.752   7.829  29.890 -0.0045 -0.0657 -0.0036
13533W        W17933  22.428   4.198  25.816 -0.2120 -0.2717  0.1894
13534W        W17934   3.619   6.100  27.632  0.2732 -0.2089 -0.2353
13535W        W17935  10.566   3.271  31.291  0.0282 -0.0961 -0.2146
13536W        W17936   5.315   1.064   3.280 -0.0300 -0.1907  0.1955
13537W        W17937  23.177   0.577   4.638 -0.0041 -0.0369  0.1381
13538W        W17938  15.089   2.111   5.994  0.0174  0.0913 -0.0604
13539W        W17939  19.133   1.242   9.696  0.0302  0.0762  0.2191
13540W        W17940   9.410   4.978   6.596 -0.0772 -0.1542  0.1675
13541W        W17941   5.771   3.419  16.466  0.1067  0.0749 -0.0750
13542W        W17942   5.191   6.924   8.604  0.1182 -0.1413  0.0174
13543W        W17943  13.276   2.243  25.336 -0.1278  0.3336  0.1509
13544W        W17944   6.532   2.075   6.672 -0.1939  0.0331  0.1554
13545W        W17945  13.160   0.401   7.971  0.0722 -0.1116  0.1775
13546W        W17946  23.167   2.793  10.595 -0.0551  0.0989  0.2171
13547W        W17947  18.112   0.930  23.577 -0.2306 -0.0375  0.0615
13548W        W17948  21.483   5.364  26.620 -0.0042 -0.3177 -0.1269
13549W        W17949  15.826   4.525   1.082  0.0163 -0.0930 -0.0260
13550W        W17950  23.944   4.172  25.674 -0.0169 -0.0951  0.0415
13551W        W17951  21.645   6.222  25.130 -0.2377 -0.1818 -0.3298
13552W        W17952   2.025   2.905  20.377  0.0350  0.1326 -0.2729
13553W        W17953  19.246   5.609  12.720 -0.0166 -0.1605 -0.4242
13554W        W17954  19.779   2.921  21.941 -0.0205  0.1779  0.2079
13555W        W17955   6.467   7.314   0.409  0.0837 -0.0106  0.0792
13556W        W17956   9.546   2.653  26.573 -0.5934  0.1315  0.2053
13557W        W17957   2.611   3.804  28.369 -0.1736 -0.1575  0.0990
13558W        W17958  24.882   3.634  31.773  0.2022 -0.0349 -0.0715
13559W        W17959  15.519   1.221  28.670 -0.3308 -0.0301 -0.2018
13560W        W17960  22.155   1.892   8.344  0.0118  0.1513 -0.0175
13561W        W17961  14.318   1.567  22.103  0.2630  0.2208 -0.0122
13562W        W17962  21.426   5.376   3.688  0.0265  0.3478 -0.1594
13563W        W17963  23.111   3.196   6.305 -0.0542 -0.1084 -0.0648
13564W        W17964  18.272   4.208   6.382 -0.2187  0.1141 -0.0293
13565W        W17965  11.526   0.130  25.724 -0.3459  0.0377 -0.4182
13566W        W17966  15.400   7.564  24.144 -0.1782 -0.0716  0.0363
13567W        W17967  19.630   3.588  23.552  0.1908  0.0351 -0.0960
13568W        W17968  11.237   0.880  31.162  0.0577 -0.0468 -0.2236
13569W        W17969  20.408   4.799   3.662  0.3538  0.1212  0.0111
13570W        W17970  24.143   0.689   9.895  0.0287 -0.0426  0.2311
13571W        W17971  23.271   7.395  32.385  0.0476 -0.2064  0.2063
13572W        W17972   1.600   1.459  29.614  0.1438  0.0638  0.1389
13573W        W17973  17.637   0.435   2.273  0.0132 -0.1290  0.4155
13574W        W17974   9.925   5.213   4.745  0.2003 -0.0271 -0.1123
13575W        W17975  14.810   0.807   4.764  0.1916  0.1048 -0.0002
13576W        W17976   0.939   4.510  22.370 -0.0025 -0.0546  0.1224
13577W        W17977  23.056   0.172  14.066  0.0577  0.2256 -0.1819
13578W        W17978  15.439   3.410  22.233  0.0650 -0.1918 -0.0381
13579W        W17979  20.054   6.427  31.482  0.1989  0.1008  0.0955
13580W        W17980  13.706   3.724  30.551  0.2118  0.2705 -0.1337
13581W        W17981  15.692   5.457  13.581  0.2007 -0.0573 -0.2158
13582W        W17982  21.392   5.145  23.265  0.1980 -0.1050  0.2679
13583W        W17983   9.621   2.517   4.870 -0.2215 -0.4328 -0.0964
13584W        W17984  11.241   4.895   9.438 -0.0781 -0.4699  0.0047
13585W        W17985   0.886   1.000  32.423 -0.1860  0.1913 -0.0557
13586W        W17986  22.757   6.268  24.660  0.0021  0.0162  0.1809
13587W        W17987  17.524   4.595   8.165  0.0842  0.0262 -0.2845
13588W        W17988  24.538   2.180  21.097  0.2063 -0.0551 -0.1059
13589W        W17989  18.591   0.743  11.825 -0.2271 -0.1007 -0.3321
13590W        W17990   6.914   0.765  24.687 -0.0881 -0.1258  0.1604
13591W        W17991   3.717   5.997  31.363 -0.3313 -0.3117 -0.0011
13592W        W17992  17.646   0.575   2.778 -0.1453  0.0663  0.2304
13593W        W17993   4.586   6.663  27.758  0.3234 -0.1797  0.2788
13594W        W17994   3.370   6.195   9.755  0.0999 -0.2265  0.0304
13595W        W17995   4.937   2.564   2.590  0.0960 -0.1100  0.1408
13596W        W17996   0.263   1.209  27.710 -0.3665  0.4097  0.0709
13597W        W17997  14.980   7.554   7.262 -0.2413  0.0838  0.0870
13598W        W17998  15.784   3.248  13.239  0.0554  0.2875 -0.1502
13599W        W17999  11.258   1.412  31.338  0.2518  0.1323  0.2564
13600W        W18000  15.414   1.844  13.374  0.1368 -0.0219 -0.0928
13601W        W18001  16.444   4.423   4.143  0.0764  0.1592  0.0373
13602W        W18002   4.594   1.576   9.250  0.1296 -0.0809  0.1003
13603W        W18003  22.855   0.664  23.560  0.1039  0.4171 -0.1571
13604W        W18004   1.664   6.295  11.354 -0.0246  0.0580  0.3844
13605W        W18005   7.572   6.676  14.780  0.0355  0.1116  0.0432
13606W        W18006   4.052   7.504   6.573 -0.2620 -0.2043 -0.1341
13607W        W18007   2.038   7.372   6.383  0.3471 -0.2539  0.0541
13608W        W18008   9.436   2.323  23.771 -0.0198 -0.2864 -0.0496
13609W        W18009   6.129   3.699   8.037  0.0692  0.1597 -0.1832
13610W        W18010   7.365   6.418  24.321  0.1604  0.0579 -0.1543
13611W        W18011  19.390   4.312  30.483  0.1676  0.1248 -0.1197
13612W        W18012  23.351   6.588  31.314 -0.0157  0.3695  0.1128
13613W        W18013  24.155   6.281   2.054  0.0335 -0.2746  0.4978
13614W        W18014  15.580   2.669   6.004 -0.0859  0.0538 -0.1686
13615W        W18015   6.455   7.751   4.433 -0.0508  0.3077 -0.4462
13616W        W18016  16.619   6.579  10.604 -0.0760  0.2171  0.0877
13617W        W18017   7.784   1.809  20.734 -0.0989 -0.3467 -0.1761
13618W        W18018   7.075   1.899  15.576  0.5474  0.0052 -0.2973
13619W        W18019   5.835   4.185  27.184  0.0517 -0.2902 -0.0367
13620W        W18020  11.225   0.938   8.808  0.0558  0.1773  0.0691
13621W        W18021  17.705   5.967  15.679 -0.1491 -0.1609 -0.0146
13622W        W18022   7.245   2.265   9.037  0.0104  0.2255  0.0110
13623W        W18023  10.387   1.774   4.306  0.0840  0.4286 -0.2454
13624W        W18024  20.717   2.215  26.187 -0.0876  0.1369  0.2233
13625W        W18025  20.659   4.426   2.753  0.0247  0.0979  0.0191
13626W        W18026  11.882   7.660   7.308  0.2912  0.0798  0.0936
13627W        W18027   9.320   6.117  31.629  0.0591 -0.0418  0.2045
13628W        W18028  19.013   1.797  26.540  0.3551  0.3100  0.0494
13629W        W18029  12.411   6.591  32.077 -0.0732  0.0040  0.0318
13630W        W18030  13.551   7.643  24.368 -0.2850  0.0561 -0.2567
13631W        W18031  14.906   3.654   6.245  0.3622 -0.0593 -0.0771
13632W        W18032  17.553   6.219  11.936  0.1069 -0.1718  0.2156
13633W        W18033   5.653   1.290  10.382  0.0729 -0.1773 -0.3862
13634W        W18034   2.775   4.037  21.587  0.1309  0.0550 -0.0441
13635W        W18035  22.223   6.166   4.196  0.1836  0.1400 -0.0237
13636W        W18036  11.313   5.346   0.526 -0.1514  0.0823  0.0407
13637W        W18037  10.162   4.952  10.084 -0.0006 -0.0148 -0.0650
13638W        W18038   8.867   1.868   9.500  0.2314  0.2351  0.0554
13639W        W18039  24.227   1.249   8.958  0.1714  0.1013 -0.3748
13640W        W18040  12.468   3.436   6.848 -0.0339  0.2184 -0.1504
13641W        W18041  12.093   5.879  32.048  0.0820  0.0061  0.0816
13642W        W18042   4.522   0.851   5.734  0.0586 -0.0967  0.1925
13643W        W18043  16.462   0.086   0.434  0.1697 -0.3650  0.0846
13644W        W18044  15.149   3.193   0.119  0.1312 -0.2483 -0.0587
13645W        W18045   6.062   2.275  31.860  0.0185 -0.2624 -0.2083
13646W        W18046  18.158   6.911   4.420  0.0160  0.2750 -0.3954
13647W        W18047  21.646   2.066  15.259  0.1650  0.1050  0.3261
13648W        W18048  10.266   5.609   9.342 -0.0374 -0.2356  0.1794
13649W        W18049  18.401   5.204  13.412  0.2779 -0.1354  0.2171
13650W        W18050  11.851   4.113  26.374  0.3863  0.0447 -0.2289
13651W        W18051  19.957   5.397  32.288 -0.1582 -0.0417  0.2332
13652W        W18052   8.043   2.938  26.926  0.0348 -0.1352  0.3192
13653W        W18053   6.759   3.154   0.863  0.0417 -0.3215 -0.1159
13654W        W18054  14.406   5.924  22.651 -0.0782 -0.0245 -0.0628
13655W        W18055  12.356   6.482  19.756 -0.1521 -0.0627 -0.0061
13656W        W18056   3.665   2.387   7.042 -0.0043 -0.2043 -0.1060
13657W        W18057   6.011   3.288  19.281 -0.1762  0.1795  0.4964
13658W        W18058  17.204   2.726  13.165  0.0092  0.0648 -0.0385
13659W        W18059  21.118   7.828  29.837 -0.1008  0.2641  0.0890
13660W        W18060   6.339   2.012   5.678 -0.3640 -0.0164 -0.1568
13661W        W18061  19.135   6.387  27.651 -0.0638 -0.2089 -0.2028
13662W        W18062   9.259   4.430  15.345 -0.1544 -0.0589  0.0144
13663W        W18063   9.947   4.794   7.169 -0.1744  0.0994 -0.0880
13664W        W18064  23.830   2.181  24.405  0.1265 -0.0058  0.1288
13665W        W18065  10.122   1.141  20.870 -0.0230 -0.3357 -0.3744
13666W        W18066   7.799   6.094   8.379 -0.0049  0.2255  0.0707
13667W        W18067  23.773   3.278  31.044 -0.3100  0.0279 -0.0692
13668W        W18068   4.846   0.859  30.901 -0.1946  0.2808 -0.3248
13669W        W18069  19.292   6.865  10.186 -0.2961 -0.3905 -0.3845
13670W        W18070   2.482   1.351  27.735  0.3675  0.1322  0.1169
13671W        W18071  10.740   3.459  17.108  0.0884  0.1559 -0.0406
13672W        W18072   6.705   7.013  20.979 -0.0953 -0.3067  0.1386
13673W        W18073  21.685   3.967  28.146 -0.0152  0.1709  0.0645
13674W        W18074   1.981   5.690   7.869 -0.0210 -0.0311  0.0041
13675W        W18075   0.922   0.800   2.093  0.1708  0.2789  0.0250
13676W        W18076  17.119   2.563   0.606 -0.1614 -0.1620  0.1075
13677W        W18077  11.953   5.312   8.234 -0.1601  0.0969  0.4602
13678W        W18078  15.449   5.050  11.847  0.0136  0.3455 -0.1484
13679W        W18079  11.224   7.859  30.445  0.1544  0.0315  0.0318
13680W        W18080   9.467   0.112  31.027  0.0908 -0.2000 -0.1760
13681W        W18081  15.355   2.978  28.260 -0.0481  0.1124  0.2081
13682W        W18082   8.811   7.788  15.275 -0.1311  0.0469 -0.1326
13683W        W18083  22.791   5.410  30.856 -0.0477  0.0046 -0.0394
13684W        W18084  22.504   3.299  14.052 -0.1326  0.0109  0.4526
13685W        W18085  16.705   4.980  13.128 -0.0245 -0.1753 -0.0947
13686W        W18086  16.881   1.208  31.365  0.0805 -0.0010  0.0431
13687W        W18087  22.593   6.646  24.989  0.1268  0.4535  0.0157
13688W        W18088  19.246   7.403  25.203  0.2273 -0.0199  0.1124
13689W        W18089  21.853   1.509   9.056  0.1846  0.4735  0.0644
13690W        W18090  16.989   3.979  22.959 -0.0337 -0.0525  0.2826
13691W        W18091   5.713   4.395  15.899 -0.2385  0.1470  0.2264
13692W        W18092  18.270   2.302  13.488 -0.2826  0.2189  0.3442
13693W        W18093   4.296   3.697  28.605  0.0104 -0.2314 -0.1191
13694W        W18094  17.401   7.469  12.438 -0.1176 -0.0274  0.1664
13695W        W18095   8.918   4.444  18.638  0.1363 -0.1420  0.0129
13696W        W18096  14.023   2.986  10.491  0.0675 -0.2965 -0.0618
13697W        W18097   8.423   3.333   7.357 -0.1508 -0.3506  0.0488
13698W        W18098   6.753   2.655  32.123  0.3375  0.2086 -0.0899
13699W        W18099  18.583   4.767   4.404  0.2646  0.5248 -0.0084
13700W        W18100   2.619   4.419  21.331  0.0476 -0.2448 -0.1128
13701W        W18101  21.958   0.769  23.304 -0.2179  0.1675  0.2496
13702W        W18102  23.876   2.443  26.360 -0.1685  0.0201  0.0388
13703W        W18103  10.658   1.560  23.666  0.3468 -0.0383 -0.1301
13704W        W18104  15.088   2.484  28.307 -0.0444 -0.1399 -0.0216
13705W        W18105   4.454   2.421   1.608 -0.0676  0.0436  0.2060
13706W        W18106   9.947   7.319  22.117  0.1871 -0.2017 -0.0385
13707W        W18107   0.677   7.389   7.701  0.0747  0.0222 -0.4260
13708W        W18108   3.629   5.173  22.737 -0.0171 -0.0096  0.0630
13709W        W18109   1.870   2.754  29.593  0.0777  0.0056 -0.0541
13710W        W18110  12.709   5.370   1.759 -0.1189 -0.2710 -0.0752
13711W        W18111  23.182   1.752   7.652 -0.0783 -0.1363 -0.0213
13712W        W18112  21.743   7.771  22.861 -0.2450  0.2343  0.2344
13713W        W18113  13.454   6.645  13.014  0.2997 -0.1133  0.2034
13714W        W18114  22.508   1.025   6.731 -0.2149  0.2447 -0.0090
13715W        W18115  12.752   5.907  29.129  0.2801  0.1594 -0.1681
13716W        W18116  17.756   3.022   4.764  0.2415 -0.0800  0.2115
13717W        W18117   3.628   1.190  21.135  0.0324 -0.3568  0.1538
13718W        W18118   9.434   3.176  23.165  0.2788  0.1877 -0.1976
13719W        W18119   4.163   1.764   8.500 -0.0636 -0.0991  0.1183
13720W        W18120  23.406   6.399  24.255 -0.1208  0.0851 -0.1610
13721W        W18121  20.978   4.972   2.170  0.2103  0.1065  0.4780
13722W        W18122  14.296   4.127   2.733  0.1846 -0.0515 -0.0018
13723W        W18123  18.190   0.956  14.059  0.0306 -0.0731 -0.0550
13724W        W18124   1.402   5.954  19.188  0.1222  0.2679  0.0043
13725W        W18125  20.865   0.459  30.645  0.0030  0.0195 -0.1647
13726W        W18126  15.356   1.467   3.232 -0.4275  0.1602  0.1211
13727W        W18127   3.605   3.724  23.693 -0.2708 -0.1261  0.0850
13728W        W18128  24.081   3.295  28.150  0.0261 -0.0061 -0.0692
13729W        W18129  22.990   2.960  11.049  0.0087  0.2300  0.0832
13730W        W18130   4.052   1.792  17.131 -0.0081  0.0332  0.1490
13731W        W18131  23.679   4.211  32.551 -0.1429  0.1025  0.0743
13732W        W18132   2.289   5.012   5.235 -0.0355  0.0711  0.0937
13733W        W18133  12.525   1.992   1.767  0.2960  0.0102 -0.1442
13734W        W18134   0.751   2.488  32.513  0.0378 -0.1601  0.1559
13735W        W18135  10.733   6.429   3.754  0.0029  0.2965  0.0261
13736W        W18136  24.698   0.609  31.236 -0.0499  0.0384  0.0979
13737W        W18137  14.078   5.617  30.407  0.0053  0.3576  0.2531
13738W        W18138  14.936   5.878   0.971  0.0347 -0.0862 -0.0290
13739W        W18139  13.183   2.175   9.103 -0.0372  0.1236  0.1991
13740W        W18140  22.881   1.902  14.615 -0.0092  0.1391  0.0320
13741W        W18141   5.396   7.752   6.144  0.0455  0.1827 -0.0471
13742W        W18142  17.066   5.377  14.513 -0.0766 -0.1509 -0.3074
13743W        W18143  24.660   7.421   2.272  0.1369  0.3377  0.0896
13744W        W18144  18.071   7.746  23.003 -0.1890 -0.3428 -0.1628
13745W        W18145   1.924   2.039   3.831 -0.0843 -0.2324 -0.0737
13746W        W18146  24.360   4.022   5.130 -0.1959  0.0245 -0.2372
13747W        W18147   0.784   6.817  32.319  0.1524 -0.1239 -0.2535
13748W        W18148   0.771   4.114  25.116  0.0498  0.0324  0.1178
13749W        W18149  15.739   6.190  12.297  0.4009 -0.0416  0.1147
13750W        W18150  13.193   3.584  28.527 -0.0049  0.1964 -0.1268
13751W        W18151   7.962   0.888   4.149  0.1197  0.1254  0.3223
13752W        W18152   6.771   4.683   5.698  0.2416  0.0458  0.1215
13753W        W18153  23.108   0.387   7.817  0.0078  0.3202 -0.0752
13754W        W18154   8.131   0.613  29.739 -0.0240 -0.0010 -0.0832
13755W        W18155  14.705   1.382  12.445 -0.1081 -0.1225  0.1412
13756W        W18156   1.856   4.830  19.243  0.0883 -0.0591  0.0205
13757W        W18157   5.241   1.068  31.806  0.0578  0.0375 -0.3626
13758W        W18158  15.658   3.093  17.383 -0.0699 -0.0375 -0.0019
13759W        W18159  16.540   4.690   6.460  0.0672 -0.3341 -0.1204
13760W        W18160  10.647   0.713  26.211 -0.1681 -0.0873  0.3505
13761W        W18161  23.834   0.201  22.781 -0.1551 -0.1734  0.1449
13762W        W18162  19.046   0.700   8.320 -0.0234 -0.0081  0.0892
13763W        W18163   5.559   4.842  18.139  0.0262  0.0942 -0.4670
13764W        W18164   9.679   2.940  29.878  0.1013  0.4020  0.2488
13765W        W18165  21.331   2.773   9.358  0.2344 -0.0266 -0.3184
13766W        W18166   3.018   4.153   0.139 -0.2619  0.0240  0.1002
13767W        W18167  23.236   5.130  30.499  0.0015 -0.1686 -0.0941
13768W        W18168  17.884   5.446  28.502 -0.1665  0.4521  0.2357
13769W        W18169  14.730   4.585  22.198 -0.3732 -0.2015 -0.0647
13770W        W18170   5.821   3.147  23.706  0.3747  0.0685  0.0250
13771W        W18171  12.315   7.088   1.928 -0.2918 -0.0020 -0.0045
13772W        W18172  17.224   5.142  26.533 -0.0663 -0.1490 -0.3589
13773W        W18173  18.212   3.361   6.904  0.1713 -0.1932  0.0185
13774W        W18174   9.857   2.693   5.289  0.0446 -0.0477 -0.3074
13775W        W18175  13.123   1.120   8.898  0.2111  0.1685 -0.4774
13776W        W18176  16.592   1.577   6.075  0.1017  0.2447 -0.2252
13777W        W18177  10.484   4.278  25.101  0.0513  0.1171 -0.3139
13778W        W18178   5.061   1.874  25.655 -0.0228  0.0988 -0.0985
13779W        W18179   3.227   4.613   0.139  0.0378  0.1562 -0.1062
13780W        W18180   0.159   6.130   4.597  0.4884  0.1747 -0.0033
13781W        W18181  20.976   6.245  16.973  0.2909 -0.1116 -0.0352
13782W        W18182  16.657   0.088  12.934 -0.0940 -0.1742 -0.0983
13783W        W18183   2.545   6.113  25.134 -0.0700 -0.0025  0.1929
13784W        W18184   6.242   5.127  30.483 -0.1567  0.0006  0.0365
13785W        W18185   6.550   3.689   3.377  0.2914  0.0283  0.1102
13786W        W18186  21.002   3.882   6.228 -0.2382  0.0660  0.0776
13787W        W18187  15.062   2.685  12.544  0.0088 -0.3109  0.4260
13788W        W18188  14.540   4.252  28.493 -0.0227  0.1920  0.0795
13789W        W18189  18.122   0.166  25.607 -0.1045  0.1330 -0.0887
13790W        W18190  24.796   7.555  23.571 -0.0745 -0.0768  0.3865
13791W        W18191  23.879   3.128   0.718 -0.1106 -0.2132  0.1876
13792W        W18192  18.814   6.336   6.081  0.1727  0.1874  0.0704
13793W        W18193  19.893   3.762  24.056  0.3602 -0.0812 -0.2820
13794W        W18194  11.481   2.781   6.076 -0.1353 -0.1831 -0.0892
13795W        W18195  10.701   4.438   5.506  0.0079 -0.0685 -0.0386
13796W        W18196  21.675   5.816   7.136 -0.2678  0.1336  0.0729
13797W        W18197   5.700   2.740   5.638 -0.0412  0.1868 -0.1243
13798W        W18198  24.720   0.354  24.959 -0.1217  0.1153 -0.3260
13799W        W18199  17.858   2.740  26.658 -0.1049  0.1073  0.0722
13800W        W18200  21.653   6.126  29.876 -0.2370 -0.1012  0.2447
13801W        W18201  19.317   4.433   5.633 -0.0522 -0.3456 -0.0838
13802W        W18202   6.730   3.201  24.887 -0.0208  0.0396  0.0617
13803W        W18203   3.394   7.441   8.795 -0.3413 -0.0037  0.1459
13804W        W18204  20.082   7.692   5.165 -0.0430  0.0201 -0.0954
13805W        W18205   2.573   4.844  19.780 -0.1864 -0.0890 -0.0721
13806W        W18206  16.637   5.375   3.647  0.0388  0.2441 -0.2259
13807W        W18207  10.302   2.518  16.357 -0.1236  0.1850 -0.0366
13808W        W18208   1.404   3.450   7.668  0.1885 -0.1389  0.3317
13809W        W18209   6.394   1.323  17.400 -0.2003  0.0114  0.1881
13810W        W18210   0.474   7.664  26.149  0.3111 -0.1022  0.2121
13811W        W18211   5.088   4.608   2.643  0.3063  0.2618 -0.1007
13812W        W18212   7.046   0.262  20.699 -0.1483 -0.2188 -0.1132
13813W        W18213  22.302   2.541  25.309 -0.1375 -0.0599 -0.1094
13814W        W18214   5.528   6.922  29.637  0.3497  0.1310  0.3479
13815W        W18215   6.076   0.169   4.593  0.0546  0.2423 -0.0948
13816W        W18216  11.425   0.862  23.240  0.1571  0.2860 -0.2987
13817W        W18217  18.569   5.580  11.521 -0.3654 -0.1690  0.3045
13818W        W18218  20.537   3.151  17.644  0.0747  0.0094 -0.0680
13819W        W18219   3.045   3.004  24.009 -0.2332 -0.1963  0.1515
13820W        W18220   1.824   4.670   9.587  0.1749  0.0508 -0.2063
13821W        W18221   3.939   3.986   0.255 -0.2917  0.0262 -0.0142
13822W        W18222   0.471   0.515  28.445  0.0661  0.2061  0.0558
13823W        W18223   6.749   7.359   0.872 -0.0626 -0.2764  0.1357
13824W        W18224   2.763   5.209  11.198 -0.0915  0.3581 -0.0381
13825W        W18225  23.817   5.406   3.418 -0.1716  0.0496 -0.3732
13826W        W18226   6.621   6.555  14.917  0.0127 -0.0690  0.3551
13827W        W18227   8.450   6.717  16.424  0.0072 -0.0121  0.3267
13828W        W18228  16.860   7.648  30.600  0.1144  0.0601  0.1235
13829W        W18229   3.388   5.643   5.353 -0.0124 -0.1430  0.0572
13830W        W18230   4.572   4.095  17.577  0.1421 -0.1927 -0.1955
13831W        W18231   5.252   5.580  19.881  0.2928  0.2400  0.1453
13832W        W18232   3.425   5.155  24.020 -0.1988  0.0308 -0.0105
13833W        W18233  18.944   7.805  25.133 -0.3129  0.0541  0.0134
13834W        W18234   1.668   1.606   1.702  0.3034  0.1211  0.1446
13835W        W18235  19.504   6.159  14.295 -0.1356  0.1455  0.4510
13836W        W18236  10.091   4.538  21.027  0.0056 -0.2811  0.3963
13837W        W18237  11.649   5.322  31.420  0.2316 -0.1021 -0.0543
13838W        W18238  21.879   5.756   3.570  0.2686 -0.1319 -0.1044
13839W        W18239  19.777   3.790  22.499 -0.3673 -0.0875  0.4044
13840W        W18240  18.503   2.259   4.955 -0.2111 -0.1295 -0.0922
13841W        W18241   9.793   2.219  18.407 -0.0716 -0.0843  0.1414
13842W        W18242   3.794   7.760   1.484  0.2756 -0.0498  0.1233
13843W        W18243   0.345   4.993  20.819  0.0786 -0.1282 -0.1254
13844W        W18244   1.602   7.477   8.283  0.1543  0.0371  0.3037
13845W        W18245  13.476   3.263  12.351  0.0361  0.1107 -0.0181
13846W        W18246  12.427   3.918   7.318  0.1497 -0.1452 -0.0664
13847W        W18247  20.960   3.362  25.971 -0.0386  0.0482 -0.1339
13848W        W18248  22.030   2.829   5.538 -0.2959  0.0038 -0.1496
13849W        W18249  23.011   7.326  31.938  0.0102  0.0584  0.0634
13850W        W18250   7.813   6.752  27.793  0.1371 -0.0524 -0.1401
13851W        W18251   8.049   3.587   1.447  0.0929 -0.0368  0.4803
13852W        W18252   8.141   4.808  17.685 -0.1132 -0.0835 -0.3216
13853W        W18253  16.340   5.518  27.675  0.3695  0.0698 -0.0156
13854W        W18254  19.419   0.521  17.680 -0.2575 -0.1183 -0.0208
13855W        W18255   9.537   6.641  20.301  0.1248  0.2276  0.1310
13856W        W18256  24.832   4.995  13.559 -0.1527 -0.0671 -0.0910
13857W        W18257   7.860   7.749  31.848  0.0301  0.1208 -0.0188
13858W        W18258  16.813   5.278  10.160 -0.0205 -0.0507 -0.0421
13859W        W18259  22.509   1.222  11.644  0.1479  0.6309 -0.4193
13860W        W18260   5.620   3.525  25.564 -0.3450  0.3099  0.1655
13861W        W18261  13.277   0.285  24.172 -0.3208  0.0587 -0.1806
13862W        W18262  20.653   1.063   3.047 -0.1833 -0.1813  0.1372
13863W        W18263   1.028   3.867  29.653  0.3025  0.1665  0.0524
13864W        W18264  13.113   3.069  10.745  0.1599 -0.0378  0.0210
13865W        W18265  21.525   5.292  29.021  0.3104  0.1918 -0.0331
13866W        W18266  17.900   5.613  23.561 -0.0032 -0.0837  0.0382
13867W        W18267  24.699   2.448   7.113 -0.0476  0.0114 -0.2000
13868W        W18268  23.731   1.082  25.797 -0.0528  0.1796  0.1016
13869W        W18269   3.240   1.841   8.093  0.1083 -0.0604 -0.3068
13870W        W18270  11.552   4.265  18.044  0.0347 -0.1096 -0.1194
13871W        W18271  17.256   3.000   0.336  0.1002 -0.1386  0.3823
13872W        W18272   3.497   7.520  28.301 -0.0476 -0.0028  0.0881
13873W        W18273  16.523   4.111  27.170  0.2386  0.0935 -0.1291
13874W        W18274  13.827   1.269  27.067 -0.0654 -0.0450 -0.1616
13875W        W18275  22.257   7.278  14.455  0.0282 -0.2924  0.0708
13876W        W18276  18.242   4.669  32.440 -0.2059 -0.0713 -0.0748
13877W        W18277  20.960   3.532  23.084 -0.1015 -0.1734 -0.1851
13878W        W18278  20.582   7.601   8.936 -0.0920 -0.3233 -0.0128
13879W        W18279  11.640   0.526   7.495  0.0316  0.1803 -0.2076
13880W        W18280  14.975   5.234   9.012 -0.2494  0.1757 -0.0830
13881W        W18281  20.669   3.971  11.623  0.0110  0.2918  0.0431
13882W        W18282   5.521   7.694  23.677 -0.0607 -0.1150 -0.2304
13883W        W18283  18.283   4.047  16.286  0.0050 -0.0863  0.0617
13884W        W18284   2.263   5.735  17.104  0.1044  0.0547  0.0135
13885W        W18285  20.138   2.827   2.208  0.1047 -0.0119 -0.0213
13886W        W18286   7.191   2.814  15.215  0.0869  0.0927 -0.2593
13887W        W18287   6.231   5.955  25.329  0.1910 -0.1792  0.0212
13888W        W18288  11.234   5.328   9.709  0.1067  0.3061  0.0048
13889W        W18289  16.747   1.747  29.945  0.0974 -0.4061 -0.0463
13890W        W18290  15.421   3.265  32.092  0.1301 -0.0649 -0.0556
13891W        W18291  15.749   3.039  23.743 -0.1018  0.1903 -0.1883
13892W        W18292   7.049   4.346   4.357 -0.1214 -0.0904  0.2238
13893W        W18293  12.687   6.705   3.111 -0.0794  0.0847  0.0527
13894W        W18294   3.625   3.853  16.680  0.3026 -0.0806 -0.0724
13895W        W18295  21.560   6.413  16.152  0.0047 -0.0054 -0.1914
13896W        W18296  20.277   4.150   3.088 -0.0274 -0.0195  0.1829
13897W        W18297   0.053   2.864   3.092  0.0875 -0.0303 -0.1672
13898W        W18298  24.948   3.678  31.304 -0.0993  0.2559  0.0938
13899W        W18299  19.333   5.956  15.767  0.1453  0.0268 -0.4456
13900W        W18300   8.629   2.870  27.982  0.1048  0.0673 -0.2059
13901W        W18301  13.971   1.253  13.344  0.2201 -0.0481 -0.1687
13902W        W18302   7.303   6.863  28.561 -0.3234  0.0759 -0.1791
13903W        W18303  12.736   5.108   6.765 -0.1804  0.0025 -0.0474
13904W        W18304   4.100   6.397  15.865  0.0175  0.3820  0.1470
13905W        W18305   7.480   7.314  20.225  0.0133  0.1391  0.2122
13906W        W18306   5.488   6.761  26.203 -0.0227  0.1672 -0.1789
13907W        W18307  16.715   1.840   0.457  0.3568  0.0452 -0.2155
13908W        W18308   3.658   0.358  17.687  0.1382  0.1528 -0.0893
13909W        W18309   5.903   7.372  20.603 -0.0152  0.1036  0.0100
13910W        W18310  22.112   1.697   4.069 -0.1947  0.1583  0.0060
13911W        W18311  23.649   5.548  24.284  0.0356  0.3153  0.0453
13912W        W18312   6.471   6.675  21.424  0.1646  0.0952 -0.3271
13913W        W18313   6.554   2.744   1.574  0.0212 -0.0182  0.0224
13914W        W18314  13.681   0.504  23.925 -0.3480 -0.0008 -0.1911
13915W        W18315  23.532   7.814  28.390 -0.3756 -0.0314  0.0714
13916W        W18316   9.926   4.818  28.655 -0.1916  0.3258 -0.3827
13917W        W18317   7.073   4.983  20.865  0.1530  0.2049 -0.1381
13918W        W18318  18.576   0.206  13.754 -0.0437 -0.0341 -0.0396
13919W        W18319   1.964   6.115   4.124 -0.1346 -0.1540  0.0291
13920W        W18320  18.289   7.292   5.199  0.3016 -0.0146  0.0759
13921W        W18321  20.243   1.653  14.042 -0.1158  0.3788 -0.0754
13922W        W18322  10.377   3.262   5.551 -0.0790 -0.2912 -0.2241
13923W        W18323  16.648   1.186   4.672 -0.0473  0.3603 -0.1035
13924W        W18324  15.908   3.395  14.315  0.4658  0.2867  0.2098
13925W        W18325  17.310   0.218   5.758 -0.1520  0.3099  0.0716
13926W        W18326   0.521   0.789  22.411  0.1298  0.1309  0.1509
13927W        W18327  23.438   1.436  32.109  0.0903 -0.0072  0.0762
13928W        W18328  10.893   2.258  24.968  0.2399 -0.1458 -0.5684
13929W        W18329   1.255   7.592   5.731  0.5676  0.1306 -0.0597
13930W        W18330  23.112   5.761   6.267  0.3931 -0.1368  0.0659
13931W        W18331   4.284   5.694  26.115 -0.2503 -0.0804  0.0343
13932W        W18332  14.077   3.494   3.897 -0.0210  0.3413  0.0442
13933W        W18333   2.373   4.648  29.341  0.0255 -0.2199 -0.0140
13934W        W18334  23.471   1.636  26.107  0.1984  0.2353 -0.0833
13935W        W18335  13.666   5.918  28.965 -0.2316  0.3241 -0.2551
13936W        W18336   5.501   7.736   6.759  0.0442  0.0614 -0.0182
13937W        W18337   5.024   1.531  30.310  0.2893  0.2462 -0.1951
13938W        W18338   3.056   4.010   8.952 -0.0618 -0.0117  0.1924
13939W        W18339   7.806   5.377  28.932 -0.0555  0.2840  0.3935
13940W        W18340  24.375   5.883  27.945  0.1120 -0.2936  0.2695
13941W        W18341  10.341   3.669  29.993  0.3614 -0.1279 -0.1069
13942W        W18342   2.536   3.874  16.544  0.0655  0.2018  0.0980
13943W        W18343  13.224   4.057   4.228  0.2159  0.1574 -0.0692
13944W        W18344   7.960   4.824  18.327  0.3275 -0.1442 -0.0426
13945W        W18345   7.980   7.681  24.555  0.1871 -0.0486  0.0799
13946W        W18346  14.028   4.323  26.308 -0.0473 -0.2467 -0.0424
13947W        W18347  10.686   4.602  19.183  0.0512  0.0629  0.1359
13948W        W18348   6.261   6.671  26.000  0.0283 -0.0781  0.0545
13949W        W18349  10.281   2.399  22.045  0.1492 -0.1675  0.0918
13950W        W18350   8.319   5.276   9.798 -0.0185 -0.0956  0.3410
13951W        W18351  11.244   2.205  29.084 -0.0388 -0.0929  0.1122
13952W        W18352  14.944   5.939   3.195 -0.2414  0.3632 -0.0661
13953W        W18353   3.134   6.884  24.664 -0.2805  0.0052  0.1005
13954W        W18354   4.185   4.953   4.060 -0.2456 -0.2751  0.0101
13955W        W18355  25.089   6.722  12.210  0.2858  0.3468 -0.2522
13956W        W18356   4.923   7.508  21.609  0.2097  0.0923 -0.0105
13957W        W18357  11.618   1.558   7.877  0.0203  0.3669  0.0213
13958W        W18358   8.170   7.333  24.813 -0.1664  0.2080  0.0979
13959W        W18359  16.916   7.112  28.732 -0.2502 -0.0551  0.0311
13960W        W18360  10.456   6.039  17.924  0.0046 -0.3073 -0.0877
13961W        W18361  15.701   2.255   5.254  0.0705  0.1966  0.0221
13962W        W18362  24.143   5.224  23.183 -0.0335  0.0846 -0.1375
13963W        W18363  13.088   4.209   5.865 -0.2963  0.0990 -0.1234
13964W        W18364  22.901   4.779  16.523  0.0304 -0.1889 -0.2546
13965W        W18365  19.574   3.564  26.312  0.1152  0.2339 -0.0141
13966W        W18366   3.932   0.526   6.563 -0.1206  0.0260  0.0002
13967W        W18367  13.484   4.899  28.423 -0.0054  0.1125  0.0561
13968W        W18368  24.344   6.362  31.228  0.0442 -0.0181 -0.0309
13969W        W18369   0.851   5.394  26.888  0.0628  0.0381 -0.0205
13970W        W18370   9.045   4.919  26.889 -0.2442 -0.1550  0.1578
13971W        W18371   7.102   3.998  32.519 -0.1671 -0.0594 -0.1087
13972W        W18372  18.455   7.598   2.290 -0.0857 -0.0376 -0.0792
13973W        W18373  14.168   2.790  23.126  0.0706 -0.0044 -0.0848
13974W        W18374  12.083   4.933  10.126 -0.1210 -0.2450 -0.1594
13975W        W18375  19.390   2.094   4.620  0.3038  0.1134  0.1019
13976W        W18376   8.277   6.311  23.647 -0.0735 -0.3449 -0.1901
13977W        W18377   8.239   4.800  24.545 -0.2506 -0.0300 -0.0284
13978W        W18378  19.664   3.398   2.428 -0.2074  0.1465  0.0873
13979W        W18379  12.090   3.918  23.135  0.3024  0.0480  0.2932
13980W        W18380  10.917   5.265  30.294 -0.1271  0.2822  0.1931
13981W        W18381   1.261   3.331  32.476 -0.0449  0.0522  0.3323
13982W        W18382  21.920   7.565  16.424 -0.0155  0.2051  0.3157
13983W        W18383  21.005   5.748  16.751 -0.2463  0.0644  0.1189
13984W        W18384  19.055   0.432  28.330 -0.1195 -0.1868  0.2417
13985W        W18385  18.768   2.219  11.248  0.1854 -0.2252 -0.2304
13986W        W18386   6.032   0.867  27.055 -0.1457 -0.1248 -0.0681
13987W        W18387  15.276   0.126   1.750 -0.2511 -0.2257  0.0313
13988W        W18388   9.010   4.339  23.289  0.2539 -0.4309 -0.0001
13989W        W18389  21.833   1.895  29.887  0.1883 -0.0413  0.0938
13990W        W18390  20.807   1.027   7.690  0.1360 -0.1772  0.1563
13991W        W18391   5.935   3.288   8.299  0.1443 -0.2573  0.0212
13992W        W18392  20.311   3.317   9.403  0.1665 -0.2003 -0.1186
13993W        W18393   3.111   1.548   5.577 -0.1200  0.0170  0.4522
13994W        W18394  19.535   2.194  27.755  0.0751 -0.1966  0.0015
13995W        W18395  13.345   2.754  13.767 -0.0313  0.0617  0.2499
13996W        W18396  22.187   2.078   0.721 -0.0441 -0.0237 -0.0770
13997W        W18397  14.720   7.724  28.716 -0.0856  0.2134 -0.1275
13998W        W18398  22.111   4.518  13.537 -0.2052 -0.2740 -0.3150
13999W        W18399  24.212   4.231   5.530  0.1018  0.1493 -0.0320
14000W        W18400  23.101   4.859   6.710 -0.3437 -0.0334  0.0741
14001W        W18401  14.191   7.120  12.637 -0.0321  0.2063  0.1398
14002W        W18402  20.975   4.610   6.465 -0.1958  0.0646  0.0929
14003W        W18403   6.820   4.810  22.532  0.0542 -0.1736  0.1318
14004W        W18404   9.265   6.619   1.594  0.1116 -0.2366  0.0077
14005W        W18405  11.554   6.631  21.791 -0.2977 -0.1094  0.0619
14006W        W18406  21.790   5.899  24.776 -0.1879  0.1066  0.0513
14007W        W18407  19.629   6.413   0.750 -0.1920  0.0485  0.3282
14008W        W18408   2.624   4.573  31.110  0.1225  0.1001  0.1270
14009W        W18409  12.804   3.483  11.527  0.0355 -0.0820 -0.0122
14010W        W18410  11.089   2.430  29.550  0.4044 -0.3324  0.0114
14011W        W18411   9.816   7.513  20.718  0.3428  0.0384 -0.0032
14012W        W18412   5.259   5.881  18.572 -0.0455  0.3531 -0.1897
14013W        W18413  21.503   0.840  13.021 -0.0156  0.0049  0.1140
14014W        W18414  21.040   5.963   8.819 -0.2288 -0.0632 -0.0457
14015W        W18415   5.833   5.617   9.300  0.0749 -0.1268 -0.3078
14016W        W18416   7.292   2.379  25.885 -0.0531 -0.0155  0.0225
14017W        W18417  24.573   4.542  21.658 -0.0761 -0.0726 -0.3180
14018W        W18418  22.856   1.765  22.838  0.3472  0.1702  0.0082
14019W        W18419  13.859   1.589  12.600 -0.2054  0.1198  0.0128
14020W        W18420  12.311   7.679  22.304 -0.0047 -0.3846 -0.1664
14021W        W18421   1.893   0.770  21.573 -0.4094  0.1361 -0.1640
14022W        W18422  11.688   4.299  11.403  0.0900  0.1100 -0.2397
14023W        W18423   0.878   7.064  11.390  0.0162 -0.1240 -0.0132
14024W        W18424  10.677   3.510   0.347 -0.1928 -0.0260 -0.2836
14025W        W18425  17.061   6.773  11.240 -0.0778  0.1803  0.3461
14026W        W18426  12.983   4.407   3.053  0.3834 -0.0483 -0.2890
14027W        W18427   8.507   7.470   9.274  0.1427  0.1714  0.2140
14028W        W18428  20.810   6.701  31.675  0.0779  0.0778  0.1982
14029W        W18429  22.514   4.972  16.155  0.2117  0.0172 -0.0798
14030W        W18430   3.793   3.600  28.546 -0.1040 -0.1507 -0.0266
14031W        W18431  21.088   6.241  25.913  0.0216 -0.1289 -0.3452
14032W        W18432  10.624   4.367   2.239 -0.0957 -0.0366  0.0970
14033W        W18433  17.021   4.217  16.834  0.2179  0.0335  0.4238
14034W        W18434   2.059   4.446   1.781  0.3648 -0.2057 -0.0506
14035W        W18435  16.633   1.963  16.550  0.0287 -0.1004 -0.2525
14036W        W18436  15.192   5.734  31.372 -0.1637 -0.0188  0.1340
14037W        W18437  16.629   4.449   5.670  0.1032  0.0155 -0.0349
14038W        W18438   9.891   3.237  17.486  0.2176  0.2241  0.0972
14039W        W18439   9.165   4.859   2.602 -0.2608  0.3793  0.2513
14040W        W18440  13.157   1.833  11.809 -0.1247 -0.1694  0.2475
14041W        W18441   0.644   0.371  18.681 -0.0520 -0.0134  0.0471
14042W        W18442  21.445   2.540  12.658  0.2442  0.0585 -0.2044
14043W        W18443  16.330   3.205   0.599 -0.1130 -0.3879  0.2590
14044W        W18444  23.444   7.853   1.921  0.3788  0.2533 -0.2398
14045W        W18445   6.876   1.992   7.048 -0.0055 -0.2170 -0.1810
14046W        W18446  19.217   3.703  28.764  0.1456  0.2394  0.1969
14047W        W18447   8.933   3.286  19.661  0.2891  0.3671 -0.1395
14048W        W18448  14.020   5.356   0.989 -0.1085  0.0100  0.1128
14049W        W18449  23.327   6.510   7.542 -0.0600  0.0823  0.1523
14050W        W18450  22.446   3.184   1.048 -0.0674  0.3211 -0.0545
14051W        W18451  22.564   3.190  11.440  0.1879 -0.1740  0.0318
14052W        W18452   8.923   0.290   0.801 -0.4345 -0.4509 -0.0001
14053W        W18453  10.079   1.632  19.713  0.0968 -0.0797  0.1463
14054W        W18454   5.366   3.840   5.039 -0.0458  0.1997 -0.0439
14055W        W18455   3.688   7.093  29.911  0.0684 -0.1920 -0.0961
14056W        W18456  10.087   1.690   3.483  0.2012 -0.0610 -0.4730
14057W        W18457  14.088   3.325  14.996 -0.0836 -0.1961 -0.1411
14058W        W18458  16.466   4.890   1.262 -0.0917 -0.1108 -0.0615
14059W        W18459  16.881   6.370  12.147  0.1393  0.1512  0.2852
14060W        W18460  21.254   3.512   1.895  0.0771 -0.2157 -0.1211
14061W        W18461  19.542   5.340  24.810 -0.0088  0.1008 -0.0964
14062W        W18462   5.477   3.887  23.147  0.0408  0.1971  0.0768
14063W        W18463   1.342   0.852  30.245  0.3783 -0.0057  0.0555
14064W        W18464  11.388   7.056   9.377  0.0698 -0.0140  0.1813
14065W        W18465   7.574   5.759   2.285 -0.3003  0.2932 -0.0215
14066W        W18466   7.985   7.338   7.304  0.1007  0.2062  0.1244
14067W        W18467   6.910   2.552  26.595  0.1426 -0.0056 -0.0727
14068W        W18468  16.860   5.737   8.369  0.1921 -0.0344 -0.0664
14069W        W18469   5.110   4.014  20.042 -0.2263 -0.1679 -0.1442
14070W        W18470   8.364   1.341  26.371  0.1077  0.0505  0.1159
14071W        W18471  22.560   4.132   3.260  0.2667 -0.2274  0.1408
14072W        W18472  16.895   2.319   5.244 -0.0848  0.1807  0.0335
14073W        W18473   3.859   3.814   7.453 -0.0816 -0.1993 -0.1366
14074W        W18474  20.288   2.736   5.634  0.1265  0.2811 -0.1736
14075W        W18475   6.978   5.643  24.665  0.2152 -0.1915 -0.0873
14076W        W18476   1.380   7.133  19.724  0.0675 -0.2118  0.0969
14077W        W18477   9.962   5.424   9.747 -0.2726  0.0288 -0.2837
14078W        W18478  21.316   1.342  31.502  0.0574  0.0253 -0.0849
14079W        W18479  10.710   3.009   3.428 -0.2023 -0.1997 -0.1166
14080W        W18480  15.117   1.836   9.324  0.1150  0.3413  0.2951
14081W        W18481   6.108   7.586  29.791  0.2024  0.1507  0.0820
14082W        W18482  12.661   7.107  28.162 -0.0278 -0.1446 -0.0898
14083W        W18483   5.523   1.409  24.171  0.1828  0.1897 -0.1665
14084W        W18484   7.564   6.898  21.438 -0.1180  0.0262 -0.0148
14085W        W18485  18.943   4.248  30.970  0.1498  0.0443 -0.2969
14086W        W18486   8.965   2.421  31.699 -0.1508 -0.2354 -0.0447
14087W        W18487  22.808   7.440  15.744  0.0544  0.2902 -0.1271
14088W        W18488  14.046   6.576  25.795 -0.0272  0.1170  0.0526
14089W        W18489  23.561   5.077  12.354  0.2056  0.0224 -0.2841
14090W        W18490  12.220   0.237  21.217  0.0145 -0.1449 -0.3877
14091W        W18491  15.159   4.220   0.780  0.2126  0.0356  0.1221
14092W        W18492  14.273   0.196  32.485 -0.0655  0.0261  0.0840
14093W        W18493   3.570   1.960  32.327 -0.0796 -0.0541 -0.1412
14094W        W18494   9.390   6.551  18.389 -0.0064 -0.2219  0.0102
14095W        W18495   9.016   4.053  30.016  0.1445 -0.0440  0.2985
14096W        W18496   7.128   6.112   2.241  0.0764  0.0013  0.0866
14097W        W18497   3.333   7.547  32.557 -0.0793  0.0247  0.1690
14098W        W18498   0.075   7.601  25.723  0.0535 -0.2461  0.1524
14099W        W18499  15.375   1.014  30.364 -0.1130  0.1173  0.0694
14100W        W18500   1.547   7.491  19.056 -0.0958  0.1143  0.1670
14101W        W18501  21.952   3.991  11.701 -0.0432 -0.1526  0.0993
14102W        W18502  10.511   7.207  30.148 -0.1243  0.1731 -0.3999
14103W        W18503  12.432   7.676   3.409  0.1033 -0.0251  0.1253
14104W        W18504  19.970   7.536  25.788  0.1142  0.3719  0.0741
14105W        W18505   0.924   6.390   8.343  0.0121  0.1867  0.0763
14106W        W18506   9.799   7.454  17.079  0.0127  0.0111  0.0485
14107W        W18507   6.822   6.517  28.807 -0.2432  0.1276 -0.0921
14108W        W18508   0.877   4.026  10.482  0.1585 -0.1241 -0.1046
14109W        W18509  19.513   6.521   3.919 -0.1055  0.2298 -0.1560
14110W        W18510  17.897   3.277  28.411  0.0572  0.0946 -0.1414
14111W        W18511   4.482   0.990  14.720  0.0855 -0.1329 -0.0141
14112W        W18512   8.324   6.904   6.336 -0.0962 -0.0618 -0.0571
14113W        W18513  24.596   1.193   3.893 -0.1750  0.1309  0.2857
14114W        W18514   8.572   6.020   7.866  0.3343 -0.0201  0.0717
14115W        W18515  24.936   6.630  13.110  0.0594 -0.2948 -0.2000
14116W        W18516   7.785   3.851   7.138  0.0354  0.1823 -0.0521
14117W        W18517   1.838   4.545  22.670 -0.1219  0.1377  0.0090
14118W        W18518  19.148   1.306   5.263 -0.1373 -0.2443  0.0393
14119W        W18519  15.255   4.046  10.312 -0.0427  0.0545  0.3235
14120W        W18520   0.439   2.556   1.813 -0.0082 -0.0541  0.1252
14121W        W18521  20.151   0.761   0.756  0.0991 -0.0340  0.3952
14122W        W18522  18.445   5.867   6.280 -0.2283  0.0340  0.3254
14123W        W18523  13.820   2.648   3.361 -0.2877 -0.4050  0.1147
14124W        W18524   8.590   2.474  32.173  0.0515 -0.5361 -0.0202
14125W        W18525  20.325   5.423  17.771 -0.2972 -0.3346 -0.0621
14126W        W18526  15.207   1.091   4.127 -0.0535  0.1233 -0.2717
14127W        W18527  21.295   2.417  10.823  0.0352 -0.0892  0.0435
14128W        W18528   6.361   2.626  21.737  0.0019  0.1647  0.1408
14129W        W18529  12.667   1.613  22.450  0.2977  0.0895 -0.1436
14130W        W18530  14.054   4.870   2.242  0.0737  0.1683 -0.0396
14131W        W18531   8.984   4.793  18.248 -0.0868 -0.2105 -0.1082
14132W        W18532  17.865   3.126  13.651 -0.1268  0.1703  0.0286
14133W        W18533   2.245   7.015  26.733 -0.1384  0.0791 -0.0862
14134W        W18534  22.323   0.658  29.565 -0.2798  0.1574  0.1397
14135W        W18535   5.205   1.836  15.820  0.0223  0.3490 -0.2057
14136W        W18536   7.996   4.426  28.581  0.0009  0.0370  0.2127
14137W        W18537  18.908   2.652   0.870 -0.1286  0.1489 -0.0677
14138W        W18538   2.309   1.972  30.927  0.0422  0.0733  0.0575
14139W        W18539  11.560   5.109  11.803  0.2944 -0.0950  0.0761
14140W        W18540   6.645   5.302  30.715 -0.4413  0.0005  0.1095
14141W        W18541  10.302   0.017   4.237 -0.2879  0.1600  0.0030
14142W        W18542  12.117   2.056   8.310  0.1445  0.1420  0.1561
14143W        W18543   1.994   7.850   7.662 -0.0963 -0.2292 -0.0546
14144W        W18544  17.402   5.854  27.837  0.1048  0.1056  0.1540
14145W        W18545   9.272   4.723   1.043  0.0116  0.2346 -0.1227
14146W        W18546   5.063   7.645  16.905 -0.0984 -0.2184 -0.2282
14147W        W18547  18.487   0.476  26.062 -0.0032 -0.2246  0.1641
14148W        W18548  16.506   0.817  25.189 -0.0672  0.2608  0.0417
14149W        W18549  23.004   1.164  31.884 -0.0357  0.4334  0.1803
14150W        W18550  19.381   3.898  25.229 -0.1442  0.0650  0.0937
14151W        W18551   6.812   7.839   8.899  0.1923  0.0412  0.1895
14152W        W18552  18.601   7.633  27.765 -0.3297  0.2151  0.1230
14153W        W18553   4.367   1.669  26.673 -0.2719 -0.1314  0.0263
14154W        W18554   1.535   6.648   6.402  0.1422  0.1137 -0.0590
14155W        W18555  17.820   3.512  29.438  0.2502 -0.3069  0.1645
14156W        W18556   8.998   1.956   6.366 -0.1195 -0.2985  0.0044
14157W        W18557   9.404   2.281  16.101  0.0236  0.0383  0.2639
14158W        W18558  18.989   2.735  31.594  0.1154 -0.1970 -0.0676
14159W        W18559   1.984   7.669   9.974 -0.0588  0.1899 -0.3245
14160W        W18560  13.962   6.887   2.122  0.1228  0.0879  0.1499
14161W        W18561   4.628   0.056  32.033  0.0971 -0.0179  0.0915
14162W        W18562   6.713   0.105  25.766  0.0425  0.0087 -0.0889
14163W        W18563  17.282   5.929  31.409  0.2489 -0.1466  0.1657
14164W        W18564  12.459   0.780  19.709  0.4216 -0.3965 -0.2004
14165W        W18565   8.370   1.955   6.832 -0.3075 -0.1590 -0.0401
14166W        W18566  23.041   1.561  21.853 -0.2394 -0.0028  0.1483
14167W        W18567  12.306   5.175  27.514  0.2161  0.1352  0.0588
14168W        W18568   2.264   1.806  27.771 -0.0873 -0.3270 -0.1125
14169W        W18569  22.225   5.039  13.667  0.1441 -0.0820 -0.3371
14170W        W18570  16.358   1.331  26.094 -0.0094  0.1261  0.0773
14171W        W18571  10.824   0.527  22.185  0.0321  0.0124 -0.0498
14172W        W18572  18.682   2.672   3.575 -0.0313 -0.0150  0.0318
14173W        W18573   0.557   7.288  20.548  0.1784  0.1017  0.2979
14174W        W18574  21.020   1.679  14.306 -0.1624 -0.1309  0.1336
14175W        W18575  19.461   4.496  29.211 -0.0451 -0.0281  0.1198
14176W        W18576   8.261   3.673   7.070  0.1785 -0.0510  0.0005
14177W        W18577  11.730   0.350  19.619  0.1128  0.1423  0.0688
14178W        W18578  13.179   0.221   4.736 -0.1253  0.1581 -0.2041
14179W        W18579   7.880   2.370  28.627 -0.0159  0.1402  0.1249
14180W        W18580   2.798   0.551  10.534  0.0903  0.1304  0.0449
14181W        W18581  24.385   0.866  12.860  0.4092  0.0916  0.1739
14182W        W18582   9.823   0.833  28.333  0.1302 -0.2323  0.0834
14183W        W18583   1.663   6.669  10.973  0.1565 -0.1423  0.1879
14184W        W18584  16.346   7.349  24.046 -0.2463  0.1412 -0.2101
14185W        W18585  20.564   6.815   8.427 -0.0087 -0.0649  0.1842
14186W        W18586  23.030   0.922   6.433  0.1919  0.0182  0.0585
14187W        W18587  24.881   5.252   2.095 -0.1502  0.2041 -0.2253
14188W        W18588  12.396   6.632  10.828 -0.0575  0.1923 -0.1570
14189W        W18589  18.820   4.439  27.309 -0.1319  0.0627  0.1770
14190W        W18590  21.237   7.112   2.318 -0.1776  0.1731  0.4162
14191W        W18591  20.831   4.499   0.520  0.1163 -0.2232 -0.4536
14192W        W18592  11.130   7.667  28.562 -0.3210 -0.0216  0.3315
14193W        W18593   7.530   1.876  16.833 -0.3820 -0.0088  0.0835
14194W        W18594  20.529   2.476  14.848  0.0633 -0.0527  0.0040
14195W        W18595  13.499   7.089   7.995  0.0251 -0.1683 -0.1446
14196W        W18596   2.810   0.647  20.260  0.0278 -0.0288  0.0675
14197W        W18597   6.272   4.203  21.198 -0.0327  0.0170 -0.3867
14198W        W18598   7.266   4.488  32.576  0.2635  0.0209  0.0919
14199W        W18599   1.478   3.668  17.834  0.0581 -0.0740  0.1277
14200W        W18600   7.330   1.292   8.634  0.1191 -0.4093  0.3638
14201W        W18601  24.364   6.212  32.293 -0.1869 -0.0380  0.0382
14202W        W18602   2.269   1.725   8.043  0.0580 -0.1938 -0.1232
14203W        W18603  23.957   2.887  30.854 -0.3499 -0.0083  0.2993
14204W        W18604  24.446   3.901   0.668 -0.0151 -0.0628 -0.0895
14205W        W18605   1.703   7.318  28.894 -0.2498 -0.2246  0.0852
14206W        W18606  22.085   1.156  13.776 -0.0549  0.0267 -0.0839
14207W        W18607   7.111   7.344  19.906  0.0460  0.0084 -0.0965
14208W        W18608   6.515   4.895  21.619  0.0510 -0.0610 -0.0270
14209W        W18609  10.823   5.200  30.756 -0.0585 -0.4329  0.0317
14210W        W18610  17.749   4.601   6.030 -0.1504 -0.0753  0.5487
14211W        W18611   0.045   4.570   0.839  0.3277  0.0122  0.2767
14212W        W18612  16.219   6.255   2.949 -0.2547  0.0611 -0.0052
14213W        W18613  13.961   5.154  30.213  0.1129 -0.1119  0.4464
14214W        W18614   1.200   5.919   5.902 -0.0453  0.1067 -0.0688
14215W        W18615  13.444   4.027  30.812  0.1985 -0.0817  0.1175
14216W        W18616   7.126   5.081  16.604  0.0318  0.4540  0.0446
14217W        W18617   4.023   0.880   0.630 -0.0908 -0.2252  0.2614
14218W        W18618  22.540   1.432   4.147 -0.0141 -0.2951 -0.0726
14219W        W18619  24.184   5.581  27.464  0.1214  0.2821 -0.2445
14220W        W18620  21.216   7.128  14.633 -0.2266  0.0325  0.1471
14221W        W18621   3.366   2.645  20.723 -0.3319  0.1267  0.0608
14222W        W18622  24.451   0.740   4.758  0.0243  0.0202  0.2178
14223W        W18623   9.064   1.860   4.337 -0.0707 -0.1693  0.0964
14224W        W18624  23.778   0.574  13.505 -0.1583 -0.2408  0.0868
14225W        W18625  22.397   5.624  15.440  0.0130 -0.0899  0.1056
14226W        W18626  21.306   2.798   6.910 -0.1740  0.2854 -0.0639
14227W        W18627  23.037   3.785  32.109 -0.0862 -0.1092  0.0452
14228W        W18628   6.889   4.563  19.219  0.1120 -0.0253 -0.1238
14229W        W18629   6.419   6.169  27.530 -0.2163 -0.0428 -0.0935
14230W        W18630  11.575   3.923  24.622  0.3380 -0.3599 -0.2915
14231W        W18631  14.641   7.362  11.983 -0.2096  0.2439  0.0563
14232W        W18632   4.035   3.863  17.241  0.0513  0.0469  0.0586
14233W        W18633   9.353   5.642  22.968 -0.1145  0.0589  0.1041
14234W        W18634  21.543   3.409   5.085  0.2752  0.0939 -0.0282
14235W        W18635  24.960   1.645  29.179 -0.3040  0.0475  0.3119
14236W        W18636  17.637   3.093  16.556  0.2267  0.2654 -0.0455
14237W        W18637   6.671   4.359   1.792  0.0181  0.3098  0.0231
14238W        W18638  21.351   5.872   6.316 -0.2571  0.2466  0.2030
14239W        W18639   2.642   5.377  30.616 -0.3267  0.0496  0.0127
14240W        W18640  16.307   4.307  13.324 -0.0022 -0.1029  0.1622
14241W        W18641   2.245   5.167  28.790 -0.0933  0.1797 -0.1176
14242W        W18642   8.342   3.247   1.661 -0.3137  0.1397  0.0095
14243W        W18643   5.016   0.489  25.414  0.0168  0.0347 -0.0365
14244W        W18644   8.040   3.257  24.330  0.1201  0.1592  0.0581
14245W        W18645   5.966   1.313   0.002 -0.4554  0.0398  0.0165
14246W        W18646  17.973   2.368  23.459  0.0740 -0.0810 -0.0246
14247W        W18647  12.426   3.712   7.809  0.2963 -0.1402  0.4088
14248W        W18648   5.634   1.563  14.927 -0.2339  0.2121  0.0733
14249W        W18649  10.041   7.015  24.732  0.3928  0.0622 -0.1163
14250W        W18650  21.956   0.271  16.526 -0.0004  0.3596 -0.0018
14251W        W18651  16.473   7.127  31.084  0.1210 -0.0378  0.1543
14252W        W18652  20.933   0.971  28.043  0.2495  0.3802 -0.2355
14253W        W18653  21.720   2.991   3.135  0.2802 -0.1184 -0.0917
14254W        W18654  17.901   1.561  10.429 -0.0268 -0.1086 -0.1184
14255W        W18655  14.169   6.583  31.496  0.1105 -0.0042  0.0046
14256W        W18656   2.904   4.146   2.228  0.2129 -0.1726  0.3343
14257W        W18657  19.451   3.688  31.239 -0.1493  0.0618 -0.2487
14258W        W18658  22.879   0.922   2.519  0.0913  0.3611  0.0391
14259W        W18659  17.688   6.721  27.930  0.3646  0.0010  0.0516
14260W        W18660  14.396   5.745  13.565  0.1553  0.1414 -0.0557
14261W        W18661  24.716   6.821   9.865 -0.3919 -0.4651 -0.3134
14262W        W18662  12.220   7.019  31.592  0.1833 -0.4654 -0.0215
14263W        W18663  16.857   3.068   3.063  0.3501  0.0700  0.0163
14264W        W18664  21.459   5.824  32.568 -0.1058 -0.2733 -0.1727
14265W        W18665   1.530   4.538   2.561 -0.1411 -0.2092  0.3082
14266W        W18666  18.823   1.121  27.176  0.1142 -0.0835  0.5791
14267W        W18667   5.927   5.363   8.046  0.2806  0.1469  0.0693
14268W        W18668  19.926   4.905   4.425 -0.2677  0.1118 -0.0863
14269W        W18669  18.823   6.540  18.052  0.2839  0.3501  0.1555
14270W        W18670  20.052   3.418  22.775  0.1633 -0.0337  0.1164
14271W        W18671   0.487   7.449   3.199 -0.0228  0.0544 -0.1260
14272W        W18672  20.958   7.678  25.852 -0.0285  0.0430  0.0437
14273W        W18673  21.174   5.884  25.463  0.0614  0.0863  0.1064
14274W        W18674   2.576   1.196  18.810  0.1454  0.0497  0.0398
14275W        W18675  20.970   0.527  12.586  0.1193 -0.0720 -0.2537
14276W        W18676   3.071   0.988  15.856  0.0787  0.0101 -0.1976
14277W        W18677  20.008   2.947  10.845  0.1239  0.1726  0.1055
14278W        W18678  11.378   5.471  21.571  0.0837 -0.1217 -0.0712
14279W        W18679  16.470   3.083   5.253  0.0324 -0.0669 -0.1895
14280W        W18680  21.766   7.327  30.265 -0.0251 -0.0404 -0.0008
14281W        W18681  21.281   0.332   8.781 -0.1061 -0.0544 -0.0657
14282W        W18682   3.047   3.994  16.576  0.1079 -0.1464 -0.2852
14283W        W18683  14.435   1.562   2.276 -0.1505 -0.0498  0.1686
14284W        W18684  22.912   7.362  29.450 -0.0723  0.1347  0.1744
14285W        W18685   3.760   4.818  22.031  0.3555 -0.1775 -0.2259
14286W        W18686   4.947   5.971  24.332 -0.0694  0.0934 -0.0426
14287W        W18687   3.047   1.828   0.624  0.1833  0.1805 -0.0642
14288W        W18688  16.460   5.916   3.882 -0.0248 -0.0488  0.0549
14289W        W18689   1.890   6.795   8.833 -0.0558 -0.1793 -0.0568
14290W        W18690   3.564   2.632  28.501  0.0513 -0.2011  0.0347
14291W        W18691   5.238   6.829   7.599  0.0320 -0.2035  0.3317
14292W        W18692  17.828   3.865  12.978 -0.2314 -0.0701  0.1614
14293W        W18693  21.094   1.704  27.297  0.5554 -0.0273 -0.2157
14294W        W18694   9.615   5.978   9.622  0.2236  0.2781  0.1714
14295W        W18695  20.291   3.219  14.862  0.1728  0.1762 -0.1850
14296W        W18696  16.007   3.824  31.031 -0.0094  0.1546  0.1903
14297W        W18697  13.905   3.316   5.952 -0.3563 -0.1718 -0.0941
14298W        W18698   3.604   4.675  22.519  0.1555 -0.1457 -0.2999
14299W        W18699   6.808   6.143  24.869  0.1714  0.2224 -0.1541
14300W        W18700   3.652   4.456   1.260  0.3430 -0.1149 -0.1289
14301W        W18701   3.694   0.378   3.742  0.1002 -0.1054  0.0469
14302W        W18702  12.695   3.132  10.182 -0.2565 -0.0773 -0.0553
14303W        W18703  19.617   3.048  30.460  0.1158  0.1890 -0.1473
14304W        W18704   7.071   3.969  25.709 -0.0647  0.0346  0.0864
14305W        W18705  13.493   0.556   5.042  0.0531 -0.0592  0.2547
14306W        W18706   6.555   5.318   7.190 -0.1348 -0.2070  0.0685
14307W        W18707  10.272   1.662  20.334  0.0854  0.1415  0.1682
14308W        W18708  23.342   6.036   9.517  0.1108  0.0428 -0.2823
14309W        W18709   2.176   1.672  32.367  0.1461  0.1237 -0.0025
14310W        W18710  11.509   7.579   0.331  0.0943 -0.0173 -0.1624
14311W        W18711  13.306   1.799  26.274 -0.2588  0.1804 -0.1324
14312W        W18712  20.415   6.503  29.956  0.2076 -0.1301  0.1220
14313W        W18713  17.895   3.337   4.405 -0.0623 -0.3394 -0.2783
14314W        W18714  19.876   6.302   3.619 -0.0860  0.0104  0.1908
14315W        W18715   4.024   4.652   3.715 -0.2548  0.1879 -0.0313
14316W        W18716   7.766   6.812  28.282  0.1542  0.2380  0.0955
14317W        W18717  13.101   1.049  31.363  0.0030  0.0157  0.0278
14318W        W18718  20.187   2.740  13.946  0.3710  0.1231 -0.3569
14319W        W18719   2.892   3.517  30.602 -0.0615 -0.0525  0.2121
14320W        W18720   4.737   4.693  22.060 -0.2777  0.2072  0.1668
14321W        W18721   0.259   5.787  13.125  0.2709 -0.2540 -0.0532
14322W        W18722   0.249   5.528  11.112  0.2806  0.0214  0.1425
14323W        W18723   7.144   1.426  16.701  0.2986 -0.0189 -0.2973
14324W        W18724  13.828   2.979  28.754 -0.1673 -0.0240 -0.0410
14325W        W18725   5.592   5.368  29.402 -0.0092  0.0906  0.0014
14326W        W18726  12.836   6.337  19.568  0.0185 -0.0525 -0.0461
14327W        W18727  17.650   7.555  13.716  0.0686 -0.3354  0.3462
14328W        W18728  13.730   7.839  26.826 -0.0531 -0.1620 -0.1920
14329W        W18729   6.507   4.028  26.636 -0.2245  0.0530  0.0675
14330W        W18730   8.898   7.664  20.780 -0.3256 -0.2877 -0.0174
14331W        W18731   2.704   7.488  28.797  0.0167 -0.1416 -0.1417
14332W        W18732  13.234   5.225   5.482  0.0187 -0.0358  0.1603
14333W        W18733   9.676   7.275   6.353  0.0189  0.1721  0.0550
14334W        W18734   0.530   4.772  10.804  0.1415  0.3452 -0.0753
14335W        W18735  24.046   7.571  14.976 -0.0530 -0.1379 -0.1665
14336W        W18736   2.284   1.261  23.349 -0.2732  0.0771  0.0737
14337W        W18737   3.826   7.295  26.043  0.1303 -0.1433 -0.0980
14338W        W18738   9.543   4.770  25.154 -0.0585  0.0965 -0.2479
14339W        W18739  22.781   7.131  12.885 -0.0680  0.1528  0.0306
14340W        W18740  19.000   1.034  11.857 -0.0418 -0.1020 -0.0818
14341W        W18741   7.508   6.394  20.819  0.0692 -0.3306  0.3000
14342W        W18742  11.211   5.293  31.113 -0.2475 -0.0823  0.2282
14343W        W18743   7.468   7.845  20.629 -0.1968  0.1636  0.1747
14344W        W18744  19.458   7.290   3.434 -0.1795  0.0181 -0.1820
14345W        W18745   4.919   5.822  30.496  0.0127  0.0388  0.1321
14346W        W18746  23.038   1.815  25.413 -0.0150 -0.0613 -0.0785
14347W        W18747  17.979   5.178  25.653  0.2004  0.1989 -0.0379
14348W        W18748   9.425   7.227   1.290  0.3238 -0.2094 -0.2659
14349W        W18749   6.121   2.922   9.187  0.1672 -0.0684 -0.0996
14350W        W18750  17.636   1.623   2.276 -0.1935  0.0431  0.2880
14351W        W18751  16.265   3.795  10.916 -0.1507  0.2379  0.2223
14352W        W18752  18.010   5.175  28.073  0.3801 -0.0666  0.0930
14353W        W18753  14.593   4.177  22.036 -0.0916 -0.1319 -0.1086
14354W        W18754  25.106   3.491   9.393 -0.2137  0.2386  0.0401
14355W        W18755  15.429   7.136  26.479 -0.4230  0.1327  0.1381
14356W        W18756   8.095   7.047  17.300  0.2958 -0.2137  0.0535
14357W        W18757  19.576   1.573  11.705  0.1220 -0.6531  0.0975
14358W        W18758  17.928   0.764   4.686 -0.0758 -0.1947 -0.0834
14359W        W18759  14.645   4.523  24.836 -0.0250  0.0571  0.1368
14360W        W18760   6.729   6.451  25.247  0.1662  0.0662 -0.0532
14361W        W18761   6.023   4.980   2.705 -0.0324  0.1056  0.2303
14362W        W18762   1.881   3.524  29.583 -0.1902 -0.0271  0.0893
14363W        W18763   9.435   0.203  24.876 -0.0165 -0.0284 -0.2831
14364W        W18764  16.106   7.692  29.696  0.0832  0.1250  0.3178
14365W        W18765  22.452   2.573   0.858  0.1496  0.0321  0.2313
14366W        W18766   3.523   0.734  27.173  0.0017 -0.0088 -0.1365
14367W        W18767  21.752   2.272  31.789  0.0271  0.0283 -0.0117
14368W        W18768  13.146   4.791   9.946 -0.2403  0.2715 -0.0500
14369W        W18769  24.614   4.930   7.502  0.1275 -0.2619 -0.1255
14370W        W18770  21.469   5.571  16.570  0.2333  0.3156 -0.0208
14371W        W18771   5.517   3.957   6.574  0.0219  0.1597 -0.1669
14372W        W18772  21.306   2.087   9.920 -0.3438  0.1523  0.1001
14373W        W18773  19.481   2.016  16.797  0.1190  0.1177 -0.1405
14374W        W18774   7.489   0.224   6.882 -0.0607 -0.0539 -0.0596
14375W        W18775   8.275   0.928   9.257  0.2675 -0.0589  0.0413
14376W        W18776   1.649   0.400  27.484  0.0550  0.0909 -0.1711
14377W        W18777  16.746   6.282  27.275  0.0282 -0.1110 -0.0307
14378W        W18778   3.519   2.131  31.357 -0.0302  0.1546  0.0569
14379W        W18779   0.958   4.258  23.284 -0.2764  0.0069  0.0903
14380W        W18780  16.774   5.758  14.736 -0.0744 -0.0158  0.3256
14381W        W18781  20.587   2.754   8.158  0.1108 -0.0887 -0.0424
14382W        W18782   3.733   4.408  29.169  0.5168 -0.2445  0.2893
14383W        W18783  20.387   6.218   3.728  0.2940 -0.0966 -0.0939
14384W        W18784  22.992   0.904  27.469 -0.3079  0.0703  0.3505
14385W        W18785   7.530   3.780   3.515  0.1607 -0.2027 -0.0119
14386W        W18786  20.450   0.380   5.250  0.2128  0.1871  0.3025
14387W        W18787   1.452   6.569  20.097 -0.2659 -0.3259  0.1286
14388W        W18788   2.925   1.734  23.568  0.1580  0.1343  0.4027
14389W        W18789   0.716   3.550   5.027 -0.0206  0.3143 -0.1517
14390W        W18790  22.409   0.774   8.323  0.0001 -0.0070 -0.0978
14391W        W18791  20.333   4.735  10.168 -0.0916  0.1005 -0.3260
14392W        W18792   7.928   4.446  18.865  0.0946 -0.0454  0.1510
14393W        W18793   4.551   4.161   7.756  0.1511  0.1036  0.1512
14394W        W18794  21.066   4.423   1.020  0.1384  0.0540 -0.0818
14395W        W18795   5.254   0.917   7.906 -0.2277  0.1707  0.1761
14396W        W18796   4.339   6.044  23.901 -0.1284  0.0233  0.0971
14397W        W18797  10.518   0.370  20.284  0.0766  0.0731  0.0205
14398W        W18798  24.304   2.049   2.464  0.0265 -0.0896 -0.1003
14399W        W18799  23.660   4.254  31.981  0.0458  0.2405  0.2608
14400W        W18800  19.177   0.189  17.919 -0.0137  0.1074 -0.1055
14401W        W18801  17.039   1.867  17.758  0.0511 -0.0341 -0.0378
14402W        W18802  21.221   2.970  25.843  0.1214 -0.0583  0.4012
14403W        W18803  17.118   5.510  24.761 -0.0042  0.2163 -0.0821
14404W        W18804   0.103   5.001  12.706 -0.2086  0.0112 -0.1035
14405W        W18805   7.276   3.275  22.775  0.1804 -0.4175 -0.1867
14406W        W18806   7.793   4.471   2.943  0.0643 -0.0941  0.1304
14407W        W18807   7.796   5.013  14.507  0.0450 -0.1199 -0.1090
14408W        W18808  24.282   0.677  30.973 -0.1614  0.0491 -0.0953
14409W        W18809   0.150   3.434  23.450 -0.1565 -0.0445  0.0665
14410W        W18810  20.620   4.646   9.222 -0.1598  0.1527  0.0879
14411W        W18811  13.354   3.156   7.542  0.0590  0.0776  0.0118
14412W        W18812  15.365   6.625  31.893  0.1359 -0.1116  0.0281
14413W        W18813  19.979   6.806  13.049 -0.2917 -0.1214  0.0151
14414W        W18814  14.648   6.353  25.014  0.0653 -0.0567  0.3285
14415W        W18815  16.874   7.357  22.460  0.1506 -0.2844  0.0050
14416W        W18816  21.344   4.869   9.862  0.1674  0.0627  0.0312
14417W        W18817  15.443   0.536  11.810  0.3017 -0.1425 -0.4218
14418W        W18818   6.410   7.750  15.736  0.1138  0.0662  0.1232
14419W        W18819   3.414   7.214  16.801 -0.0540 -0.1032  0.0410
14420W        W18820  12.430   1.799   6.020 -0.0446  0.1975  0.1201
14421W        W18821  12.132   3.993  25.494 -0.2142 -0.1397  0.1016
14422W        W18822   5.089   1.116   4.632 -0.2464 -0.0680 -0.2340
14423W        W18823   6.629   4.845  16.033  0.2695 -0.0030  0.1473
14424W        W18824   6.724   3.486  18.870  0.4759  0.0240  0.1799
14425W        W18825   0.438   2.033   8.483  0.0729  0.2168  0.0811
14426W        W18826  22.838   0.226  13.597 -0.1435 -0.3121 -0.0933
14427W        W18827  18.437   7.188   9.194  0.0379 -0.2393  0.0016
14428W        W18828   8.074   1.498   7.941  0.3412 -0.4118 -0.2037
14429W        W18829   0.234   2.483   0.050 -0.1916  0.2768  0.1616
14430W        W18830  14.689   3.785   5.731  0.0690 -0.1514 -0.3877
14431W        W18831   0.978   0.984   5.235  0.2672 -0.0242 -0.1365
14432W        W18832  10.367   1.465   3.902 -0.5235  0.0120 -0.1397
14433W        W18833   4.972   4.514  20.087 -0.0844  0.0126  0.0381
14434W        W18834   1.469   6.657   5.332  0.2597  0.0523 -0.1457
14435W        W18835  15.299   5.972  14.142  0.0262  0.1401 -0.1958
14436W        W18836  18.642   0.301   6.163 -0.0548 -0.1449  0.3726
14437W        W18837   3.627   7.015  23.411 -0.2686 -0.2767 -0.1500
14438W        W18838   7.927   7.610  15.902  0.2580 -0.0096 -0.1063
14439W        W18839   4.437   4.704  29.682 -0.1908  0.2354 -0.2612
14440W        W18840   9.282   5.104   2.150  0.2402  0.1608  0.0625
14441W        W18841  16.822   6.792   2.469 -0.1839 -0.1097  0.0383
14442W        W18842  11.304   0.368   3.391 -0.0516  0.1277 -0.0882
14443W        W18843  22.498   6.122  29.951  0.2799  0.1302 -0.0284
14444W        W18844   2.591   3.671  23.441  0.2945  0.3444 -0.1491
14445W        W18845  13.536   5.861   4.153 -0.2849 -0.0346  0.2523
14446W        W18846   6.111   2.652  26.243  0.2697 -0.2998  0.1845
14447W        W18847   2.265   4.353  18.104  0.2080  0.0279 -0.1781
14448W        W18848   8.308   1.967   3.885  0.2456  0.0824  0.0741
14449W        W18849  20.016   5.553   6.745 -0.2391  0.1393 -0.1736
14450W        W18850  20.580   5.439   2.761  0.0480 -0.1046 -0.0212
14451W        W18851  13.269   1.209  24.877 -0.3087  0.2479 -0.0808
14452W        W18852   3.457   2.911  17.696  0.0514  0.1363 -0.0424
14453W        W18853  17.181   2.632   9.872  0.1530  0.0039  0.0865
14454W        W18854  18.172   0.506  15.855  0.2365  0.0353  0.1130
14455W        W18855  19.085   0.696   9.802  0.0505  0.0363  0.0060
14456W        W18856  24.107   1.298   1.036 -0.1521 -0.0095 -0.0034
14457W        W18857   8.628   1.385  21.557 -0.0942  0.1164 -0.1533
14458W        W18858   8.913   5.880   2.725 -0.0689 -0.1679  0.0510
14459W        W18859  17.841   5.292  31.972  0.0109  0.1216 -0.0551
14460W        W18860   7.138   2.892  18.218 -0.0193  0.1245  0.2385
14461W        W18861   8.857   0.154  26.634 -0.0324 -0.1288  0.0085
14462W        W18862   0.677   4.590   0.375  0.1138  0.4522 -0.0095
14463W        W18863  18.300   3.413   7.533 -0.2816  0.0043  0.3007
14464W        W18864  11.605   0.112   7.045 -0.1255 -0.2743  0.0180
14465W        W18865   0.284   3.529  25.788  0.1612 -0.1893  0.2267
14466W        W18866  21.796   1.406   0.685 -0.1072  0.2087  0.0749
14467W        W18867   9.614   4.568  19.795 -0.3056  0.1087  0.0003
14468W        W18868  17.917   7.633  26.357 -0.0802 -0.1606 -0.3525
14469W        W18869   0.948   1.365  11.415 -0.1651 -0.0965  0.0904
14470W        W18870   8.438   5.962  16.733 -0.3216 -0.2834 -0.0889
14471W        W18871  10.425   0.319  28.941  0.0193 -0.2441 -0.0889
14472W        W18872  12.052   3.922  29.934 -0.2720  0.0585  0.0980
14473W        W18873  18.939   6.892   9.746 -0.1546 -0.2631 -0.2947
14474W        W18874   8.866   0.949   4.410  0.2132  0.2081 -0.0067
14475W        W18875   4.546   6.314  32.329 -0.0162 -0.3027 -0.1811
14476W        W18876   0.068   0.710  27.683 -0.1050 -0.0636  0.0211
14477W        W18877   9.081   2.865  27.401 -0.0445  0.0441 -0.2597
14478W        W18878  16.980   6.981  31.194  0.1870  0.0326 -0.0223
14479W        W18879  10.358   4.228  20.675 -0.0292  0.0197 -0.1795
14480W        W18880   8.523   1.787  10.141  0.1638 -0.0832  0.2892
14481W        W18881  14.860   2.504   2.232  0.2794 -0.1117  0.3824
14482W        W18882   5.617   6.767   9.830 -0.2891 -0.0025  0.0593
14483W        W18883  12.081   3.428  11.570 -0.0609 -0.1015  0.1192
14484W        W18884  16.314   1.962  23.414  0.2958  0.0248 -0.0930
14485W        W18885   1.828   1.922   8.249  0.1512  0.0011  0.1753
14486W        W18886  15.872   0.242   3.972  0.0487 -0.1162 -0.1183
14487W        W18887  20.507   6.333   0.898  0.0858  0.0286 -0.0529
14488W        W18888   9.617   4.171  30.348  0.0858 -0.2782 -0.2043
14489W        W18889  25.100   1.383   3.915 -0.0280  0.0458  0.1496
14490W        W18890   0.230   3.973  12.283 -0.1087  0.1935 -0.1789
14491W        W18891  23.082   7.282   3.989  0.1637  0.3856  0.0646
14492W        W18892   5.339   3.023  27.580 -0.3408 -0.4390 -0.3207
14493W        W18893  22.509   3.657  30.757  0.1655  0.0860 -0.1058
14494W        W18894  13.400   6.106  11.606 -0.2398 -0.0516  0.4946
14495W        W18895  20.174   7.848  26.765 -0.0223  0.1495  0.2824
14496W        W18896   0.029   0.137  26.087  0.1947  0.2165 -0.2213
14497W        W18897  21.178   4.572  17.388 -0.2891  0.0463  0.0415
14498W        W18898  12.065   3.193  30.182  0.0724 -0.0210  0.1890
14499W        W18899   5.275   3.523   0.598 -0.0099 -0.0053 -0.1779
14500W        W18900   4.691   6.135   4.951 -0.1384 -0.0291  0.2651
14501W        W18901  11.526   2.120  10.138 -0.2893 -0.0348 -0.1229
14502W        W18902   0.907   6.159  28.848 -0.3947 -0.1755  0.0050
14503W        W18903   7.051   7.345  20.506 -0.0618  0.1369 -0.2370
14504W        W18904  12.352   5.627   2.667  0.1793 -0.2106  0.0682
14505W        W18905  16.282   1.964  29.270  0.0423 -0.1558 -0.0847
14506W        W18906  20.881   7.248  22.324 -0.1983 -0.3064 -0.2414
14507W        W18907  14.767   0.517  14.260  0.0849  0.0246  0.0490
14508W        W18908  12.266   2.502   6.608  0.0831  0.1562  0.0796
14509W        W18909  18.766   4.895  13.064  0.0389 -0.0524  0.2444
14510W        W18910   2.544   4.219  11.934  0.2039 -0.1408  0.1304
14511W        W18911  23.098   6.294  26.234  0.1479  0.0088  0.3050
14512W        W18912  20.535   5.005  27.581  0.0580  0.1422 -0.0372
14513W        W18913  24.027   7.511   6.414  0.0516  0.1732 -0.2783
14514W        W18914   8.619   1.235  27.306 -0.2604  0.0839  0.2231
14515W        W18915   0.305   3.440  11.949  0.0342  0.3556 -0.1626
14516W        W18916  21.161   3.061   8.650 -0.1901  0.2291  0.1707
14517W        W18917  25.022   6.884   2.145  0.2089 -0.1881  0.0792
14518W        W18918  14.200   0.673   2.785  0.0629  0.0520  0.2356
14519W        W18919  12.523   3.402  31.013 -0.2523 -0.2286  0.0668
14520W        W18920  21.158   0.759  24.331  0.2368  0.0322 -0.1588
14521W        W18921  13.534   3.843  31.322  0.0380  0.1354 -0.3670
14522W        W18922   1.460   2.975   0.290 -0.1718  0.1725  0.0366
14523W        W18923  11.919   1.556  22.256 -0.2458 -0.1419 -0.0490
14524W        W18924   7.341   3.430  20.066 -0.3405  0.1500  0.1152
14525W        W18925   3.464   2.660   4.246 -0.2398 -0.0617 -0.1515
14526W        W18926   2.465   6.610   6.759  0.0091 -0.0059  0.2547
14527W        W18927   6.131   6.709   5.620 -0.2586  0.0230  0.2207
14528W        W18928   4.690   0.393   8.511 -0.0944  0.3075  0.0283
14529W        W18929  23.101   4.992  14.555  0.0654 -0.2595 -0.1588
14530W        W18930   9.717   2.442  23.378 -0.2423 -0.1627 -0.2819
14531W        W18931  22.595   7.086  22.862  0.0326  0.2676  0.2060
14532W        W18932   9.402   0.995  28.707  0.1425 -0.4757 -0.1154
14533W        W18933  23.418   3.692  30.521  0.0422 -0.2447  0.1433
14534W        W18934   0.121   2.343  31.287  0.1145  0.3006 -0.2474
14535W        W18935  10.564   0.347   5.673  0.1951  0.0134  0.1962
14536W        W18936  19.471   6.677  23.731 -0.0092 -0.3349 -0.2943
14537W        W18937  19.933   5.106   9.004  0.1144  0.2221 -0.1112
14538W        W18938   5.992   6.753  29.676 -0.0054 -0.0533 -0.1701
14539W        W18939  16.766   6.699  31.880 -0.0397 -0.2077  0.2017
14540W        W18940  18.586   3.040  29.796  0.0602  0.0376 -0.0121
14541W        W18941  22.156   5.428  25.618  0.1286  0.1164 -0.0626
14542W        W18942   9.590   6.971  25.540  0.1065 -0.0545  0.0146
14543W        W18943  22.778   6.010   0.930  0.0241  0.0308  0.1877
14544W        W18944   9.569   2.716  21.612  0.2901 -0.1551  0.0219
14545W        W18945  22.295   5.752  29.263 -0.2359 -0.2428  0.0805
14546W        W18946   3.679   6.213  18.804 -0.3883  0.0965 -0.0689
14547W        W18947  13.022   4.162   6.655 -0.1732 -0.0297  0.2113
14548W        W18948   8.784   0.124   1.246 -0.0788  0.0472 -0.3964
14549W        W18949   3.259   6.320   7.773  0.1736  0.2163 -0.1243
14550W        W18950   9.960   3.993  26.008  0.0215  0.3148 -0.1866
14551W        W18951   0.003   0.018  26.595  0.1778  0.0880 -0.2800
14552W        W18952  11.037   6.202  29.291 -0.0815  0.1003  0.2357
14553W        W18953  19.566   0.785   1.452  0.1714 -0.0577  0.0612
14554W        W18954   1.673   5.857   5.903  0.0278  0.0846 -0.0905
14555W        W18955  18.100   3.732  10.980 -0.1091  0.1039  0.0634
14556W        W18956  18.572   5.484  18.112 -0.1546 -0.3050 -0.0501
14557W        W18957  24.388   0.500   1.305 -0.0251  0.0360  0.3247
14558W        W18958  13.974   1.083  24.017 -0.1197 -0.1113 -0.0390
14559W        W18959   5.339   5.336  19.455  0.0491  0.0333  0.0899
14560W        W18960  17.406   1.924  28.130  0.0577  0.0104 -0.0395
14561W        W18961  11.967   6.738  10.625 -0.0240 -0.0009 -0.1035
14562W        W18962  21.186   7.669  24.266 -0.2198 -0.0718  0.1745
14563W        W18963  14.511   1.049  26.166  0.0711  0.0380 -0.1683
14564W        W18964  24.747   6.378  28.226 -0.0727 -0.0846  0.1380
14565W        W18965  18.448   3.519   5.963  0.0803 -0.0652 -0.1687
14566W        W18966   7.655   7.681  29.392  0.1340  0.0092 -0.1192
14567W        W18967   1.780   1.403  32.205 -0.3113 -0.0492 -0.1639
14568W        W18968  14.037   2.897   0.517  0.1922  0.1642  0.0561
14569W        W18969   8.201   6.175  15.045  0.0102 -0.0405  0.1308
14570W        W18970   6.872   4.866  31.701 -0.1703 -0.0553 -0.0270
14571W        W18971  12.710   0.244  23.186  0.0536  0.0495  0.1431
14572W        W18972   6.242   5.522  29.754 -0.2470 -0.0073  0.0280
14573W        W18973  18.234   3.521  30.954 -0.1241 -0.0511  0.0950
14574W        W18974  18.309   2.307  17.414 -0.1432 -0.1263  0.2094
14575W        W18975   4.027   1.393  21.594 -0.0975  0.2168  0.1804
14576W        W18976  10.613   1.114  30.381 -0.1770  0.0745 -0.0726
14577W        W18977  18.219   6.321   0.846 -0.0662 -0.2734 -0.1017
14578W        W18978  23.362   4.732  22.471 -0.2369 -0.1672 -0.4142
14579W        W18979   1.457   7.619   1.145 -0.0183 -0.0886  0.1832
14580W        W18980   1.734   3.259   2.598 -0.1289 -0.1623  0.1833
14581W        W18981   5.341   6.787  10.590 -0.0623  0.3032  0.2900
14582W        W18982  22.592   4.620  12.334 -0.1890 -0.1607 -0.2734
14583W        W18983  22.057   5.687   4.066 -0.0377 -0.1378  0.0449
14584W        W18984  23.527   0.071  10.472 -0.1031 -0.4008 -0.3538
14585W        W18985  24.537   0.291   2.728 -0.0330 -0.1280  0.1357
14586W        W18986   3.826   4.537  28.702  0.0515 -0.0640 -0.0392
14587W        W18987   8.474   5.805  23.463  0.1519  0.1217 -0.0054
14588W        W18988  11.254   2.232   4.518 -0.0053  0.0378  0.0213
14589W        W18989  20.096   1.999   6.687 -0.0041  0.0873 -0.0703
14590W        W18990  25.110   5.848  30.710 -0.0476  0.0001  0.1781
14591W        W18991   8.742   7.641  30.320 -0.1049 -0.2484  0.1355
14592W        W18992   5.960   1.480  27.600 -0.0776  0.2047 -0.1110
14593W        W18993  17.866   5.280  22.711  0.2387 -0.0675  0.1895
14594W        W18994  21.413   2.342  26.632  0.3598  0.0817  0.4199
14595W        W18995  11.599   2.274  28.688  0.3118 -0.1309  0.0540
14596W        W18996   9.826   0.065   1.866  0.0551 -0.3130  0.3834
14597W        W18997   4.946   2.026  30.387  0.0462 -0.2929  0.1227
14598W        W18998  14.903   7.386  22.263 -0.1006 -0.0715  0.0193
14599W        W18999  14.088   4.022  14.123 -0.0386  0.0213  0.1632
14600W        W19000  24.258   2.521  26.017  0.0450  0.1248 -0.1257
14601W        W19001  20.488   0.096   1.011 -0.1773 -0.1424  0.0090
14602W        W19002   7.885   0.145  24.934  0.1114 -0.1176 -0.0789
14603W        W19003   4.258   7.663  27.002  0.0679  0.1622  0.2515
14604W        W19004   5.251   0.644  17.148 -0.3096 -0.1874  0.1270
14605W        W19005  11.025   3.993   9.063 -0.1485 -0.1864 -0.1449
14606W        W19006  11.774   3.899  19.667  0.2749  0.1416  0.2503
14607W        W19007  12.049   5.351   3.021  0.1984  0.0149  0.5115
14608W        W19008  18.661   6.416  27.671 -0.0276 -0.3160 -0.0403
14609W        W19009  21.423   6.263  26.773  0.0520 -0.2054  0.3967
14610W        W19010   5.668   1.278   1.493 -0.0805  0.3650  0.3464
14611W        W19011   7.300   5.125   9.762 -0.1444 -0.1430 -0.1426
14612W        W19012  24.981   6.708  22.608 -0.4344  0.0580 -0.0954
14613W        W19013  18.618   6.537  18.872  0.3518 -0.0417  0.1359
14614W        W19014   4.383   5.479  32.499  0.0480  0.4251  0.1768
14615W        W19015  12.229   5.632   7.952  0.2146 -0.0353 -0.1417
14616W        W19016   0.791   0.533   5.497 -0.1036  0.3936 -0.2291
14617W        W19017   8.724   6.785   7.396 -0.1669  0.1709  0.1552
14618W        W19018   6.489   1.995  21.086  0.0164  0.1100  0.2551
14619W        W19019   2.740   6.764  10.784 -0.0518 -0.0882  0.2174
14620W        W19020  14.109   2.230  23.184  0.0127  0.0388 -0.3850
14621W        W19021  16.199   2.592   8.925 -0.0715  0.0099 -0.3093
14622W        W19022  24.296   0.021   0.942  0.1151 -0.0291  0.2101
14623W        W19023  19.507   4.820  24.870  0.0034  0.1169 -0.0523
14624W        W19024   8.455   4.155   4.592  0.0943  0.2899 -0.0090
14625W        W19025   4.981   0.540  26.969 -0.3349 -0.1586  0.0851
14626W        W19026  21.398   2.207   6.447 -0.0140 -0.0140 -0.1348
14627W        W19027  18.491   3.043  24.967  0.1151 -0.1139  0.0643
14628W        W19028  23.683   4.184   7.054  0.2455  0.1480 -0.0309
14629W        W19029   6.729   6.892  32.047  0.0678 -0.0809  0.0913
14630W        W19030  13.822   4.237  10.931 -0.0662  0.0516 -0.2471
14631W        W19031  21.539   0.088  16.239 -0.0649  0.1831 -0.0356
14632W        W19032   6.340   4.583  28.024  0.1206 -0.1728 -0.0927
14633W        W19033   5.624   7.560  24.645  0.2602  0.1095  0.0137
14634W        W19034  16.065   5.457  23.317 -0.1003 -0.1211  0.1340
14635W        W19035  20.394   0.577  17.185 -0.2272 -0.2798  0.1112
14636W        W19036   1.746   5.929  23.683 -0.1514 -0.1099 -0.1472
14637W        W19037  24.535   4.903  31.929  0.2950  0.0360 -0.1691
14638W        W19038  20.412   0.503  15.007  0.0576  0.1191  0.4012
14639W        W19039  24.700   0.746   6.476  0.0114 -0.1506  0.3032
14640W        W19040   4.376   7.020  22.678  0.0043 -0.2136 -0.0613
14641W        W19041  22.162   2.692  23.468 -0.1803 -0.0380 -0.1205
14642W        W19042  20.646   0.620   9.163  0.0193 -0.2686  0.1385
14643W        W19043  15.511   1.889   0.940  0.0639  0.0079  0.2498
14644W        W19044  16.508   6.066  31.288 -0.0498  0.0926  0.0152
14645W        W19045   4.288   1.578  20.237  0.0292  0.0789 -0.0182
14646W        W19046  15.733   0.793   1.824  0.2071  0.0879  0.2024
14647W        W19047  24.534   4.098  27.354  0.1297  0.1425  0.0368
14648W        W19048  11.295   7.325  19.634  0.0294 -0.0319 -0.0103
14649W        W19049  11.860   1.912  28.548  0.2137 -0.0353  0.0652
14650W        W19050   4.417   0.077  30.005  0.1781 -0.1955  0.1749
14651W        W19051  12.159   1.027   3.294  0.0086  0.3279 -0.0629
14652W        W19052   1.997   5.313   4.864 -0.1130  0.0454 -0.2511
14653W        W19053   8.552   5.691  29.867 -0.1491 -0.4565  0.0044
14654W        W19054  22.536   0.511  15.668 -0.1526 -0.4223  0.3471
14655W        W19055  12.012   0.687   7.748 -0.0061 -0.1428 -0.0914
14656W        W19056  16.852   4.089  30.763  0.1502  0.1341 -0.2588
14657W        W19057  19.227   3.037  31.949  0.0401  0.0048  0.1081
14658W        W19058   6.165   1.597   5.376  0.0188  0.0828  0.0913
14659W        W19059   2.567   7.449  23.709  0.1092 -0.0331  0.2023
14660W        W19060   1.181   1.607  19.654  0.0289  0.0045  0.0041
14661W        W19061  20.124   4.020   0.516 -0.1375  0.1067 -0.0425
14662W        W19062   3.000   7.295  22.864 -0.4186  0.1092  0.0282
14663W        W19063   9.556   2.969  16.211 -0.4528  0.2154  0.0288
14664W        W19064   2.263   2.604   0.258  0.2614 -0.1477 -0.0082
14665W        W19065   8.884   5.635   7.119 -0.1827  0.0911  0.0105
14666W        W19066   3.111   2.435   5.989 -0.1183  0.0052  0.3316
14667W        W19067   5.094   7.441  10.326 -0.0190 -0.2321 -0.1714
14668W        W19068  24.978   2.134  29.316  0.0295  0.2022 -0.0268
14669W        W19069  15.486   2.057  30.680  0.1480  0.1508  0.4501
14670W        W19070   5.483   4.956  10.855  0.0236  0.0962 -0.1327
14671W        W19071  21.729   3.041  10.212  0.1908 -0.0228  0.2168
14672W        W19072  12.440   3.107  11.623 -0.0299  0.0262 -0.2551
14673W        W19073   4.531   3.054  24.571  0.3308 -0.1682 -0.0309
14674W        W19074  21.805   0.900  28.263  0.1223  0.1880  0.0121
14675W        W19075   3.167   3.599   0.811 -0.1131  0.0564 -0.0637
14676W        W19076   3.681   6.721  22.977  0.2735  0.1683 -0.0444
14677W        W19077   9.420   4.236   5.812 -0.5865 -0.3073  0.0271
14678W        W19078  20.076   3.866  16.151 -0.2654 -0.2827 -0.2277
14679W        W19079  15.064   7.796  13.860 -0.0545 -0.0545  0.2261
14680W        W19080  21.059   2.880   8.203 -0.1406 -0.1905  0.0122
14681W        W19081  20.174   4.602   8.679 -0.0209 -0.0675  0.0655
14682W        W19082  11.204   1.384   2.150  0.0449  0.1322  0.2036
14683W        W19083   2.310   2.526   0.784 -0.1221 -0.2381  0.0512
14684W        W19084   5.570   1.740   0.778  0.4594 -0.0876 -0.1202
14685W        W19085   0.629   4.770   6.209 -0.3733 -0.0662 -0.1289
14686W        W19086  20.455   1.776  15.698 -0.3501 -0.0074  0.0929
14687W        W19087  15.141   3.761   1.509 -0.0178  0.1854 -0.1750
14688W        W19088  18.143   5.175   9.372 -0.1837 -0.0288 -0.1464
14689W        W19089   3.687   2.586  19.495 -0.0475  0.2527  0.4716
14690W        W19090  20.655   3.443   1.099  0.4425 -0.0130  0.2237
14691W        W19091  12.327   6.270   6.186  0.1096 -0.0629  0.0641
14692W        W19092   7.178   7.837  21.655  0.1159  0.1867 -0.0869
14693W        W19093   6.932   5.670  28.415 -0.0013  0.2411 -0.1028
14694W        W19094   6.732   0.211  28.410 -0.0087 -0.0665  0.1504
14695W        W19095  20.798   0.631  16.270 -0.1322  0.0936  0.2003
14696W        W19096  22.121   7.011  31.863 -0.0402  0.0244  0.0298
14697W        W19097   1.050   4.042   4.819  0.0511 -0.0702  0.0913
14698W        W19098  20.483   7.398   6.248  0.0124  0.3798  0.0002
14699W        W19099  15.079   6.444  10.775 -0.1259 -0.0289  0.1829
14700W        W19100  11.522   3.025  17.083 -0.0526  0.0470  0.1829
14701W        W19101  22.578   5.881  30.825 -0.0719  0.1616 -0.2717
14702W        W19102   4.011   0.402  21.108 -0.3675  0.0187  0.0201
14703W        W19103  11.498   2.159  24.896 -0.1069  0.1310  0.2992
14704W        W19104  19.617   5.800  29.757  0.0722 -0.1977 -0.3254
14705W        W19105  22.851   1.149  28.998 -0.2022 -0.0805  0.0100
14706W        W19106  14.459   5.243  32.444 -0.2216 -0.2153  0.1598
14707W        W19107  20.342   7.156  29.072  0.1050  0.1326  0.0579
14708W        W19108   9.100   2.900  15.450  0.0558  0.1589  0.0071
14709W        W19109  23.856   7.215  23.260 -0.0446 -0.1784  0.1518
14710W        W19110   4.651   4.288  29.955  0.3613  0.0467  0.0153
14711W        W19111   4.558   5.021   5.224  0.0016 -0.0631 -0.1836
14712W        W19112   2.977   5.091  17.459 -0.0318  0.1033 -0.1216
14713W        W19113   3.852   7.754   3.871  0.1062 -0.0070  0.1490
14714W        W19114  24.426   4.768   3.584  0.4162 -0.3836 -0.0248
14715W        W19115  19.864   0.538  17.969 -0.0602 -0.0066 -0.0665
14716W        W19116   5.364   0.336  19.418  0.3020 -0.1796 -0.0618
14717W        W19117  15.258   4.621  12.563  0.4420  0.0332  0.1606
14718W        W19118  16.937   5.907  27.603 -0.3445  0.2820 -0.0699
14719W        W19119  15.743   3.145   1.112 -0.1067  0.0236 -0.1750
14720W        W19120   3.886   0.618  22.009  0.0406 -0.2696 -0.0678
14721W        W19121   2.411   0.630  25.801  0.1980 -0.1665  0.0578
14722W        W19122  24.271   7.577  14.080 -0.0075  0.1734  0.1244
14723W        W19123   2.510   7.638  10.269 -0.2865 -0.1242  0.0130
14724W        W19124  14.636   0.300   6.326 -0.0150 -0.0050  0.0386
14725W        W19125  19.249   5.077  12.749 -0.1080  0.0138 -0.0858
14726W        W19126  13.190   3.533  10.844  0.1224  0.0506  0.0200
14727W        W19127  25.009   0.905  31.683 -0.2589  0.0538 -0.0460
14728W        W19128  12.375   2.154  11.730 -0.1367 -0.0861 -0.1068
14729W        W19129  12.420   4.526  31.915 -0.1498  0.2685 -0.0528
14730W        W19130  15.692   2.060   8.402  0.2175  0.0302 -0.3032
14731W        W19131  16.840   1.326  32.253 -0.0547  0.2913 -0.2315
14732W        W19132  16.641   4.201   4.612 -0.1395 -0.1639  0.3043
14733W        W19133  20.277   0.409  27.809  0.1398  0.0393 -0.0313
14734W        W19134   4.800   1.149   5.148 -0.3683 -0.3792  0.1274
14735W        W19135  23.172   0.128  29.697 -0.0875 -0.0322  0.1770
14736W        W19136   3.610   3.346  29.611 -0.1957 -0.3643 -0.0830
14737W        W19137   8.383   6.503   0.069  0.0239  0.1303  0.1645
14738W        W19138  24.893   6.378   6.839 -0.1639 -0.1918 -0.1477
14739W        W19139   4.990   3.969  26.451  0.1580  0.0028  0.0766
14740W        W19140   1.021   6.642  23.082 -0.2547  0.0579 -0.0222
14741W        W19141   4.277   0.329  31.327 -0.0157  0.1380 -0.1508
14742W        W19142   8.923   5.203  31.953 -0.0565  0.1820  0.1168
14743W        W19143  17.862   6.734  31.526  0.1779 -0.1274 -0.1561
14744W        W19144   2.306   5.265  19.636 -0.2019  0.0455 -0.1902
14745W        W19145  15.112   5.108  32.483 -0.1793  0.4108 -0.2910
14746W        W19146  19.107   2.089  31.429  0.1225  0.0936 -0.1066
14747W        W19147   2.157   2.113   7.242  0.0334  0.0133  0.0950
14748W        W19148   0.616   3.138   9.891 -0.0588 -0.3865  0.0331
14749W        W19149  15.963   1.976  14.253 -0.1580  0.3215 -0.3435
14750W        W19150  19.848   1.547   2.546 -0.2605 -0.1969 -0.1062
14751W        W19151   8.547   7.232   8.684 -0.2367  0.0417 -0.0594
14752W        W19152   6.530   5.678   0.159 -0.1134 -0.1232 -0.0983
14753W        W19153  21.092   1.059  17.519 -0.2548 -0.1522 -0.0683
14754W        W19154  19.068   5.037  15.607  0.2310 -0.2583 -0.1316
14755W        W19155  14.664   4.912   1.537 -0.0195 -0.0067  0.2348
14756W        W19156  19.134   0.542  30.896  0.0372  0.2329 -0.1383
14757W        W19157  16.551   3.532  24.069 -0.0287  0.2926 -0.0807
14758W        W19158   9.196   4.221  19.007  0.1408  0.0596  0.0569
14759W        W19159   1.570   3.078   4.176 -0.0243 -0.0463  0.1480
14760W        W19160  11.446   6.947  22.528 -0.2901  0.0440  0.2540
14761W        W19161  23.030   6.341  32.040 -0.1238  0.1102 -0.1756
14762W        W19162   9.784   4.350   7.318 -0.1073  0.0273 -0.0810
14763W        W19163  14.830   5.596   4.754  0.1211  0.1095  0.1521
14764W        W19164   8.545   0.471  18.293  0.4502  0.3091  0.2612
14765W        W19165   0.017   6.497  20.185  0.0860  0.0540 -0.2538
14766W        W19166  20.357   4.092   7.839  0.0408 -0.0421  0.0053
14767W        W19167   7.787   7.162   4.379 -0.0974  0.2084  0.0764
14768W        W19168   1.422   6.587  25.201 -0.1471  0.0848 -0.0540
14769W        W19169  11.472   4.297  24.215 -0.1469 -0.0188 -0.0545
14770W        W19170  20.184   5.515  26.223  0.0886 -0.0742  0.1430
14771W        W19171  17.274   4.453   1.607  0.0348  0.1511  0.0377
14772W        W19172  17.051   2.332  26.226 -0.1264  0.2328 -0.3330
14773W        W19173  23.049   7.739   9.809 -0.0384 -0.2509  0.1182
14774W        W19174  22.158   7.513   8.304 -0.0658  0.1289  0.2477
14775W        W19175  21.952   3.588  13.298 -0.1098  0.0801  0.0573
14776W        W19176  23.279   1.940   1.826 -0.1050  0.0443 -0.0356
14777W        W19177  24.709   6.866   4.126 -0.1967 -0.1719  0.1487
14778W        W19178   8.087   2.019  29.015  0.1818  0.0531 -0.1259
14779W        W19179   1.282   6.636  22.420 -0.3250 -0.1309  0.2914
14780W        W19180   8.962   3.450  16.933  0.1445 -0.0899 -0.0561
14781W        W19181  13.181   7.793  11.607 -0.3994  0.1482  0.3288
14782W        W19182  22.082   1.000   0.855 -0.0610 -0.0920 -0.0363
14783W        W19183  16.504   1.929  13.938  0.2263  0.0578 -0.1984
14784W        W19184   9.284   0.104   4.198  0.0532 -0.1109  0.1691
14785W        W19185   0.471   0.445   1.844  0.2166  0.2207  0.2237
14786W        W19186  15.367   4.186  14.179  0.4324 -0.1754  0.1376
14787W        W19187   2.045   0.445  18.426  0.2654 -0.2274 -0.1038
14788W        W19188  21.080   2.730  29.745  0.0343 -0.4215 -0.0172
14789W        W19189   7.204   5.162  28.550 -0.1569 -0.1106 -0.1649
14790W        W19190   5.356   7.198   1.724 -0.1370 -0.1230  0.1876
14791W        W19191  21.962   6.321  23.729 -0.2906  0.0323  0.3947
14792W        W19192   5.558   5.719  16.242  0.1185 -0.2206  0.1766
14793W        W19193  15.764   2.185  11.715  0.0264 -0.0722 -0.0814
14794W        W19194   5.299   4.723  22.805  0.0646  0.0421  0.2156
14795W        W19195   2.528   7.126   9.801 -0.2599 -0.0301 -0.0675
14796W        W19196  17.944   6.346  16.977 -0.2344  0.3824 -0.1178
14797W        W19197   2.226   3.399  24.311 -0.0974  0.0067  0.1190
14798W        W19198  15.215   0.898  14.233  0.2463 -0.1672  0.0173
14799W        W19199  14.431   7.307   8.834  0.2022  0.2805  0.0016
14800W        W19200  11.091   2.078  23.423 -0.0561  0.0427 -0.0403
14801W        W19201  23.580   3.409  10.235  0.1157 -0.1767  0.0781
14802W        W19202  24.069   2.055  23.223  0.2303 -0.2380  0.1472
14803W        W19203  17.323   3.936  15.516  0.0877  0.1790  0.0995
14804W        W19204  23.193   6.449  27.115  0.2087 -0.0545  0.3580
14805W        W19205   3.553   4.871  10.814 -0.0090 -0.3089  0.1385
14806W        W19206  19.924   5.924  11.121 -0.3132 -0.0176  0.1449
14807W        W19207  20.679   7.105  15.377 -0.0805  0.2667 -0.0425
14808W        W19208   4.485   1.655  23.267 -0.2158 -0.1313  0.0304
14809W        W19209  13.226   5.625   2.623  0.0175  0.0819 -0.2080
14810W        W19210  23.777   0.385   3.224  0.0036 -0.0038 -0.4732
14811W        W19211  10.318   1.110   1.667 -0.0564  0.2103 -0.0758
14812W        W19212  21.557   3.135   9.090  0.2260 -0.0971  0.0919
14813W        W19213  14.512   6.274  11.469 -0.1140  0.0591  0.0549
14814W        W19214  19.606   0.718   5.069 -0.2322  0.0167  0.0520
14815W        W19215  13.379   6.009  24.678  0.0617  0.1661  0.1190
14816W        W19216  21.555   1.906   4.698 -0.1481  0.1316  0.0810
14817W        W19217  16.803   5.586   5.056  0.2655 -0.2012 -0.0810
14818W        W19218  21.214   4.029   8.200 -0.3561 -0.1485  0.0604
14819W        W19219   6.090   1.750   6.468  0.1430 -0.1823 -0.1719
14820W        W19220  22.047   1.330  10.894  0.2709 -0.0916  0.2908
14821W        W19221  21.308   0.029  16.662  0.2359 -0.3329 -0.3186
14822W        W19222  16.853   1.742  15.532  0.1545  0.1699 -0.0609
14823W        W19223   2.261   6.821   9.214 -0.0209  0.2886  0.3217
14824W        W19224  20.581   4.432  24.140  0.0150  0.3562  0.1076
14825W        W19225   7.230   5.901  17.756 -0.0085 -0.3533 -0.0007
14826W        W19226   7.398   6.844  24.576 -0.3051  0.2447 -0.0711
14827W        W19227   9.853   7.820   7.878 -0.1135 -0.1883 -0.0412
14828W        W19228  20.764   3.989  21.329 -0.1894 -0.1911 -0.0567
14829W        W19229   8.841   1.794  16.460 -0.4044  0.1868 -0.1278
14830W        W19230  22.893   2.465  14.661 -0.0166 -0.1631  0.2802
14831W        W19231   7.568   1.333  25.021 -0.0675 -0.1130  0.1820
14832W        W19232  18.214   4.909  26.048  0.1071  0.2792  0.2604
14833W        W19233   4.455   1.933   5.100  0.4276 -0.0274 -0.0522
14834W        W19234   7.489   0.850  20.179 -0.2918 -0.2445 -0.0776
14835W        W19235  21.408   5.225  30.033  0.0896 -0.1536  0.0513
14836W        W19236  22.846   7.137  28.464 -0.0587 -0.0136 -0.1184
14837W        W19237  11.029   1.211  30.870 -0.0074  0.2199 -0.1591
14838W        W19238   2.519   5.544   6.662  0.1776 -0.0265 -0.2188
14839W        W19239   7.792   6.117  27.334 -0.1859  0.1604  0.1775
14840W        W19240   2.370   5.192   6.166 -0.1592 -0.0193  0.0400
14841W        W19241   5.345   1.250  15.292 -0.1747 -0.0320 -0.3304
14842W        W19242   7.503   3.541   5.335 -0.2277  0.0807  0.0093
14843W        W19243   2.477   2.257  16.817 -0.0836  0.0239  0.1077
14844W        W19244   7.002   0.945  20.084  0.1149  0.0934  0.1757
14845W        W19245  13.914   0.712  21.945 -0.1587 -0.1100 -0.3279
14846W        W19246   4.540   4.119  25.759  0.2070  0.0868  0.4004
14847W        W19247  16.247   1.314   2.351  0.0794  0.0392 -0.4189
14848W        W19248   4.563   1.774  20.997  0.3538  0.1941  0.1435
14849W        W19249  17.483   3.531  15.032 -0.0419 -0.1223 -0.3107
14850W        W19250  18.167   2.553   9.603  0.2209  0.0180  0.0001
14851W        W19251  10.859   2.164  10.699  0.4837 -0.0426  0.1032
14852W        W19252  24.876   3.224  23.713 -0.1752  0.2679 -0.0914
14853W        W19253  15.002   3.642  10.227 -0.1095 -0.0290  0.1595
14854W        W19254   1.752   0.150  27.934  0.0103  0.1215 -0.0433
14855W        W19255  19.032   4.326  16.718  0.0701 -0.1863  0.0199
14856W        W19256   7.846   0.487   1.034 -0.1271  0.1503  0.0134
14857W        W19257   1.481   1.624  20.458  0.0198 -0.2305  0.3169
14858W        W19258   3.824   2.218  27.475 -0.2283 -0.0022  0.0395
14859W        W19259  11.731   0.773  24.631  0.1590 -0.1691  0.2067
14860W        W19260   6.646   6.298  30.208 -0.0095 -0.0784  0.0428
14861W        W19261  16.170   5.578  13.308 -0.0582 -0.3250  0.0328
14862W        W19262  19.204   1.980   7.598 -0.1861 -0.3787 -0.1248
14863W        W19263   2.140   3.928  25.905  0.2269 -0.0363 -0.0928
14864W        W19264  18.083   3.206  24.124 -0.1055 -0.2690 -0.2462
14865W        W19265  11.024   7.516   3.558  0.1470 -0.0024 -0.2814
14866W        W19266  20.831   4.191  11.164 -0.0609 -0.1296 -0.0222
14867W        W19267  14.735   5.821  27.508 -0.0283  0.0052  0.0120
14868W        W19268  24.051   7.030  12.767 -0.3305 -0.5029  0.2572
14869W        W19269   0.484   1.765  25.049 -0.0620  0.0304 -0.0950
14870W        W19270   3.601   1.978   6.765 -0.1348 -0.2009 -0.2602
14871W        W19271  17.661   0.219  11.040  0.0721  0.1928 -0.1071
14872W        W19272  19.056   1.114  30.171 -0.0092 -0.3550 -0.0253
14873W        W19273   0.367   7.539  22.799  0.1530  0.0591  0.3723
14874W        W19274  21.416   0.428  14.640  0.0553 -0.2148  0.0111
14875W        W19275  17.007   6.036  14.409  0.1431  0.0246  0.0764
14876W        W19276  11.207   6.218  22.617  0.0921 -0.0324  0.3075
14877W        W19277  22.992   1.648  12.941  0.1082 -0.2672 -0.1539
14878W        W19278  15.347   1.317   9.106  0.0860  0.0611 -0.1663
14879W        W19279  15.441   6.601  11.985 -0.0343 -0.1240 -0.1911
14880W        W19280  16.683   4.520   7.761  0.3029  0.1212  0.1224
14881W        W19281  22.817   4.455   5.169 -0.2090 -0.0006  0.1684
14882W        W19282  14.458   0.384  29.413 -0.1822 -0.0732 -0.0458
14883W        W19283  24.450   6.319  31.754 -0.2294  0.1538  0.0416
14884W        W19284  17.309   3.078   1.823 -0.1637 -0.1726  0.2989
14885W        W19285   1.880   4.923  26.812  0.1211  0.0181  0.0481
14886W        W19286   6.252   6.702  25.446 -0.1389 -0.0065  0.0541
14887W        W19287   1.193   4.099  23.884  0.2588  0.1933  0.3780
14888W        W19288   6.606   4.566   7.418  0.1856  0.1911 -0.0559
14889W        W19289  22.184   0.341  14.254  0.4512 -0.0851  0.0851
14890W        W19290   1.916   1.626  10.988  0.1248 -0.0356  0.0126
14891W        W19291   8.346   1.208   2.725  0.1352  0.2524  0.1378
14892W        W19292   3.444   5.347  24.994  0.0557 -0.1327  0.0066
14893W        W19293  10.804   3.934  32.574 -0.1812  0.1403 -0.0350
14894W        W19294  20.400   7.189  31.001 -0.1398  0.0577  0.1549
14895W        W19295  14.928   4.192  24.452  0.0588  0.2884 -0.1137
14896W        W19296   8.391   4.275  19.603  0.0052  0.0462  0.1250
14897W        W19297   1.586   3.878  22.224  0.0526  0.1961  0.0532
14898W        W19298  14.117   2.743  22.099  0.0863  0.0721 -0.0012
14899W        W19299  20.536   7.411   1.788  0.0701 -0.0312  0.0950
14900W        W19300  22.294   4.548  10.063 -0.0577  0.2776  0.0029
14901W        W19301  14.973   3.608   4.474  0.0196 -0.0302 -0.0817
14902W        W19302   8.620   2.613  10.217  0.1635  0.0754  0.0899
14903W        W19303   0.646   1.982  24.238 -0.0158  0.4113  0.1581
14904W        W19304   9.566   0.603  23.537 -0.1254 -0.2006 -0.1957
14905W        W19305  23.104   0.326   8.603 -0.0665  0.0990  0.0961
14906W        W19306   4.447   2.052  18.915 -0.0483  0.1152  0.0211
14907W        W19307  10.285   5.149   6.985  0.1097  0.2529  0.1043
14908W        W19308  14.073   7.181  20.693  0.2030 -0.0632  0.1253
14909W        W19309   5.746   7.040   6.707  0.0880  0.0468 -0.0521
14910W        W19310  10.908   6.835  23.444  0.1573  0.1726  0.0402
14911W        W19311  10.980   4.924  28.235 -0.2052  0.1204  0.1397
14912W        W19312  10.908   6.200  18.181 -0.2126  0.0259 -0.1184
14913W        W19313  21.105   5.539  28.760 -0.1185 -0.1138  0.1653
14914W        W19314   0.959   4.883  11.108  0.1838  0.1682  0.1201
14915W        W19315   7.283   2.116   0.911 -0.1227  0.0225 -0.3272
14916W        W19316   6.409   7.610   9.209  0.1772 -0.0893  0.0371
14917W        W19317  12.604   7.035  20.966 -0.1526  0.1534 -0.1324
14918W        W19318   1.280   2.776  10.752 -0.3689 -0.3364  0.2094
14919W        W19319  15.835   7.464   5.631  0.2574 -0.0006 -0.0400
14920W        W19320  14.815   1.011  13.382 -0.0027 -0.0087  0.0563
14921W        W19321   6.415   5.673  26.342 -0.1089 -0.1828  0.0038
14922W        W19322  21.418   5.597  23.490 -0.1012  0.1719  0.1285
14923W        W19323  12.024   3.251  24.997 -0.3296  0.0257  0.2283
14924W        W19324  18.795   3.461   8.458 -0.1350  0.1116 -0.1948
14925W        W19325  11.555   2.522   0.964  0.0958  0.0352  0.0208
14926W        W19326  17.370   7.847  17.575  0.1376  0.2922  0.0944
14927W        W19327   5.813   1.531  21.004  0.0382 -0.2388 -0.0527
14928W        W19328   9.837   1.907   7.832  0.0386 -0.0367 -0.1889
14929W        W19329  21.842   4.524   4.049 -0.1204  0.1973 -0.1815
14930W        W19330  15.977   4.299  22.519 -0.0130  0.0645  0.1056
14931W        W19331   6.300   3.506   2.255  0.1116 -0.0010  0.0440
14932W        W19332  10.297   5.690  27.109  0.1391 -0.3423  0.3850
14933W        W19333  19.362   1.887   3.465  0.0617  0.0726  0.1115
14934W        W19334   8.221   6.606   9.905 -0.0083  0.0818 -0.2610
14935W        W19335   0.796   3.158  32.336 -0.0903 -0.1625  0.1469
14936W        W19336  12.754   6.354  23.238  0.0762 -0.0273  0.1285
14937W        W19337  23.633   3.998  28.714 -0.0972 -0.1599 -0.0722
14938W        W19338  18.231   2.639  13.848  0.1475  0.0635  0.1506
14939W        W19339  22.354   4.422  14.925  0.0572 -0.2956  0.0755
14940W        W19340   9.390   7.676  16.896  0.0386  0.2835  0.0336
14941W        W19341  22.394   7.518   7.364 -0.1070  0.1075 -0.3177
14942W        W19342  10.369   1.505   1.389  0.0545 -0.5097  0.0798
14943W        W19343  21.130   0.973  15.311  0.2052  0.3180  0.2884
14944W        W19344   8.150   1.144  31.501 -0.0240 -0.2305 -0.1642
14945W        W19345   9.115   3.787   1.736  0.1537  0.1359  0.0063
14946W        W19346   6.686   4.859  15.052 -0.0332 -0.2043  0.0749
14947W        W19347  10.045   5.864  20.268 -0.1527  0.0880  0.0021
14948W        W19348  10.364   3.532   1.959 -0.1110  0.1167 -0.1134
14949W        W19349   6.886   1.263  31.296 -0.2813 -0.1265  0.3184
14950W        W19350  19.990   5.790  27.017 -0.2386 -0.1907  0.2111
14951W        W19351  12.301   1.116  26.277 -0.1072 -0.3850 -0.1544
14952W        W19352  14.897   4.810  31.139  0.2872  0.1681  0.0611
14953W        W19353   8.110   2.688   3.030  0.1878 -0.0923 -0.0966
14954W        W19354  17.380   4.658   9.275 -0.1275  0.2087 -0.2802
14955W        W19355   4.879   1.959  19.613  0.1892  0.0462  0.1087
14956W        W19356   8.369   3.044   8.600  0.0137 -0.0428  0.2579
14957W        W19357  16.725   2.814  14.080 -0.0631 -0.0517 -0.0799
14958W        W19358  11.595   0.445  30.384 -0.4023  0.2404  0.3772
14959W        W19359  21.772   0.387  25.451  0.1094  0.3561  0.2854
14960W        W19360  15.598   6.632  16.142 -0.0696 -0.0528 -0.0854
14961W        W19361  22.491   6.971  17.097  0.1146  0.1696  0.1689
14962W        W19362  14.270   2.713   3.707  0.3211 -0.0418  0.2151
14963W        W19363   7.205   0.235   7.823 -0.1991  0.0716 -0.0626
14964W        W19364  20.085   7.209  26.335 -0.2348  0.0397  0.2780
14965W        W19365  24.396   6.667  29.471 -0.1180 -0.0355 -0.0363
14966W        W19366   2.970   3.140   2.327  0.1382 -0.2070  0.0877
14967W        W19367  18.097   3.675  13.347 -0.0987 -0.0700  0.2455
14968W        W19368   5.862   1.822   2.341  0.1301  0.0650  0.2847
14969W        W19369  10.463   0.258  27.630 -0.2978 -0.3371 -0.0147
14970W        W19370  23.504   4.839  30.211  0.0587 -0.1869  0.2056
14971W        W19371   1.701   6.233  20.416  0.2085  0.3691 -0.1351
14972W        W19372  17.942   0.686  15.469 -0.0645 -0.0107  0.2039
14973W        W19373  17.499   1.556  10.128  0.1186  0.0623  0.2728
14974W        W19374  21.611   4.022  10.393 -0.0305  0.0286  0.0363
14975W        W19375  17.669   1.372  23.545  0.1980 -0.1181 -0.0478
14976W        W19376  19.035   2.705  26.746 -0.0762 -0.0746 -0.2097
14977W        W19377  16.005   1.243  22.091  0.4183  0.0564  0.1981
14978W        W19378   3.109   2.695  16.642 -0.0330 -0.0802  0.0685
14979W        W19379  22.679   7.058  24.518 -0.1723 -0.0825 -0.2679
14980W        W19380   0.829   1.594  32.009  0.0672 -0.0760  0.0876
14981W        W19381  17.649   3.164  23.777 -0.2027  0.1237  0.1773
14982W        W19382   3.636   5.598  20.975 -0.2904  0.0380 -0.4162
14983W        W19383   1.315   5.998  31.980  0.1300 -0.0679  0.0399
14984W        W19384   4.630   0.568   1.615 -0.1699  0.0537 -0.1319
14985W        W19385  14.299   3.931   7.200 -0.3816 -0.1446 -0.1758
14986W        W19386   0.649   1.858   6.480  0.1442 -0.2825  0.0568
14987W        W19387   1.397   7.735   2.521 -0.1464 -0.0894 -0.1799
14988W        W19388  16.556   2.035   5.555 -0.2211  0.2364  0.0231
14989W        W19389  20.110   4.993   6.148 -0.3193 -0.0470  0.0234
14990W        W19390   1.917   1.206   9.612  0.1696 -0.1765  0.3370
14991W        W19391   4.451   5.683  22.106 -0.1555  0.1711  0.1454
14992W        W19392   3.175   0.375   0.786 -0.2549 -0.0236 -0.0223
14993W        W19393  19.756   7.139  19.039 -0.0125  0.0160 -0.0583
14994W        W19394  12.956   1.727   0.128 -0.1618 -0.1127 -0.2316
14995W        W19395  20.088   0.747   1.283  0.1148  0.0104 -0.1684
14996W        W19396   7.041   7.744  32.155  0.0109  0.0775 -0.0608
14997W        W19397  14.360   3.283   1.650 -0.0686 -0.5986  0.0367
14998W        W19398  20.104   6.941  12.602 -0.2937 -0.0214  0.1600
14999W        W19399  20.406   1.719  12.234  0.0482 -0.2548 -0.0200
15000W        W19400   4.160   3.342  29.534  0.1718  0.3038 -0.2334
15001W        W19401   2.596   2.729  26.396 -0.2959 -0.1508  0.2187
15002W        W19402  15.988   4.646   0.374 -0.0767 -0.1370  0.2257
15003W        W19403  16.904   0.711  16.913 -0.0695  0.2825  0.1306
15004W        W19404  10.884   5.039  25.269 -0.1035 -0.0704  0.3039
15005W        W19405   2.697   4.338  19.735  0.2795 -0.3168  0.0665
15006W        W19406   7.059   0.614   4.446  0.1800 -0.0803 -0.4268
15007W        W19407   1.023   3.811  20.035 -0.4094  0.2852  0.0917
15008W        W19408  16.041   2.079  21.398 -0.2045  0.2162 -0.1815
15009W        W19409  19.219   6.726  32.232  0.1107 -0.1119  0.0205
15010W        W19410  22.378   1.153  11.197 -0.1593  0.1797  0.2267
15011W        W19411  14.704   5.871  26.442  0.2303  0.2545 -0.1108
15012W        W19412   7.633   1.025   8.274  0.0253 -0.0934 -0.2629
15013W        W19413  15.971   4.784  28.538  0.0060  0.0627  0.0604
15014W        W19414  18.680   5.608  22.743 -0.2665  0.0592 -0.0737
15015W        W19415   3.602   1.956   3.828  0.3698  0.1516  0.1104
15016W        W19416  21.201   5.487  11.070 -0.1029  0.0740  0.0474
15017W        W19417  25.068   6.939   5.969 -0.2985  0.2329  0.0192
15018W        W19418   8.671   5.334   4.421 -0.0781 -0.2388  0.2826
15019W        W19419   2.397   0.246  30.646  0.2536 -0.0924 -0.1866
15020W        W19420   5.279   0.794   6.638  0.1659  0.0106  0.1846
15021W        W19421  22.125   0.452   6.087 -0.0724 -0.0969  0.1354
15022W        W19422   9.896   5.334   4.181 -0.0639  0.2155 -0.0654
15023W        W19423   3.207   4.201   1.347  0.1071  0.3588  0.0301
15024W        W19424   7.739   0.048  22.364  0.0608  0.2269 -0.0772
15025W        W19425   8.681   3.630  31.486 -0.1292 -0.2128 -0.0732
15026W        W19426  22.440   7.007  11.774  0.1598  0.0391 -0.0724
15027W        W19427   4.499   5.707   7.446  0.0611 -0.0455 -0.0608
15028W        W19428   1.386   5.198  19.534  0.1481 -0.6162 -0.3261
15029W        W19429  13.979   3.413  29.121 -0.0991  0.3025 -0.2201
15030W        W19430  20.439   1.973  28.635 -0.1404  0.2890  0.1674
15031W        W19431  19.375   2.301   9.157 -0.1666 -0.3202 -0.1341
15032W        W19432   6.139   1.449   2.196  0.2263 -0.0089 -0.0313
15033W        W19433   1.075   0.744   8.260 -0.0153  0.2831  0.1530
15034W        W19434  13.912   3.800   5.991  0.1344 -0.0105 -0.0776
15035W        W19435   6.098   0.960   4.296 -0.2579 -0.0543 -0.2642
15036W        W19436   1.492   3.131  18.498 -0.3366 -0.2711  0.1291
15037W        W19437  20.702   2.749  28.462 -0.1012  0.0087  0.0065
15038W        W19438   4.116   2.546  27.285 -0.1285  0.2166 -0.1922
15039W        W19439   7.289   4.405  28.152 -0.2143 -0.1474 -0.1833
15040W        W19440  16.039   3.060  32.197  0.1181 -0.1395  0.0397
15041W        W19441  18.527   0.024   7.779 -0.0285 -0.0658 -0.0815
15042W        W19442   6.857   2.718  25.067  0.0202 -0.0371  0.1253
15043W        W19443  15.431   5.051  10.034 -0.1429 -0.2051  0.0188
15044W        W19444   4.226   4.463  15.414  0.0714  0.0966 -0.0826
15045W        W19445  24.247   5.200  28.439  0.1689 -0.0875 -0.1729
15046W        W19446  18.791   2.579  15.543 -0.1109 -0.0002  0.0036
15047W        W19447  16.317   2.588   8.453  0.3251 -0.0798 -0.2786
15048W        W19448  19.783   3.571  13.650  0.2212 -0.0882  0.2273
15049W        W19449  16.184   6.358  12.474 -0.3563 -0.0583  0.1017
15050W        W19450  25.077   1.558   2.965  0.0701 -0.0141  0.1297
15051W        W19451  17.359   2.718  31.406 -0.0824 -0.0929  0.1055
15052W        W19452  16.241   4.144   6.845 -0.0376 -0.0870  0.3245
15053W        W19453  15.457   5.798  28.618  0.3599  0.0029  0.2458
15054W        W19454  20.028   1.528   6.951  0.0807 -0.2355 -0.4558
15055W        W19455  20.129   6.507  30.373  0.1060  0.1865 -0.0367
15056W        W19456  15.861   4.142   7.184  0.0046  0.0015  0.1527
15057W        W19457  12.406   4.827  31.545 -0.0346 -0.0294  0.0153
15058W        W19458   7.699   2.083  29.981  0.0539  0.2311  0.0876
15059W        W19459  13.311   4.068   3.116 -0.2097  0.0418 -0.2045
15060W        W19460  22.693   1.845  23.761 -0.0447 -0.1337 -0.0805
15061W        W19461  19.918   0.479  12.055 -0.0622  0.1807 -0.2708
15062W        W19462   9.514   5.873  19.529 -0.2220 -0.0156 -0.1939
15063W        W19463  22.502   5.741  30.280 -0.5236 -0.0973  0.0883
15064W        W19464  10.600   0.430  10.308  0.0209  0.0532  0.0558
15065W        W19465  15.156   1.487   9.951 -0.0467 -0.0489 -0.0214
15066W        W19466  18.464   4.654  29.326 -0.1965  0.2428 -0.2039
15067W        W19467  13.672   5.794  11.207  0.3719 -0.0671 -0.1459
15068W        W19468   5.310   2.181  22.699  0.2957  0.1185 -0.2796
15069W        W19469  19.749   5.906  14.742  0.0632  0.0202  0.1131
15070W        W19470   8.629   3.630  21.303 -0.0222 -0.0411  0.1257
15071W        W19471  21.668   6.056   7.585 -0.1106 -0.2202 -0.1768
15072W        W19472  14.671   7.481   9.975 -0.0778  0.1442  0.0630
15073W        W19473   9.792   7.294  28.037 -0.0822  0.1081  0.2069
15074W        W19474   2.884   3.340  20.086 -0.3865  0.0619  0.0429
15075W        W19475   7.698   1.881   1.910  0.4182  0.2102 -0.3950
15076W        W19476  17.511   1.128   2.601  0.0404  0.1386  0.1645
15077W        W19477   5.597   7.525  23.187  0.0874 -0.1197  0.2265
15078W        W19478  17.899   4.356  17.700  0.0581 -0.0037  0.0451
15079W        W19479   8.123   3.986  24.859  0.1795 -0.0283 -0.1009
15080W        W19480   8.948   4.451  20.436  0.2421  0.0507 -0.2529
15081W        W19481  22.994   3.964  11.807  0.2855 -0.1011 -0.2948
15082W        W19482   7.816   2.170  15.041 -0.0151  0.0824 -0.0305
15083W        W19483  11.514   5.250   1.613 -0.1073 -0.3378  0.0093
15084W        W19484  11.942   4.564  30.768 -0.1282  0.0750  0.4416
15085W        W19485  20.468   4.628   3.224  0.0981 -0.1140 -0.0237
15086W        W19486   6.567   6.724  22.833 -0.2804  0.1456 -0.0300
15087W        W19487  23.555   5.744  12.229  0.3460 -0.0751  0.1912
15088W        W19488   2.227   2.657   8.530 -0.1226 -0.1698  0.0616
15089W        W19489  19.317   1.168   0.273  0.4577  0.3747 -0.3616
15090W        W19490  17.531   1.575  10.908 -0.0275 -0.1004 -0.1112
15091W        W19491  14.653   7.428  31.203  0.2416  0.0557  0.1339
15092W        W19492   7.814   2.290   0.185  0.0448 -0.1300  0.2972
15093W        W19493   0.937   1.610  24.200 -0.2365 -0.2482  0.1685
15094W        W19494  12.943   5.890   9.116 -0.0243  0.0343  0.4057
15095W        W19495   8.599   0.932  31.488 -0.2389 -0.3465  0.2327
15096W        W19496  24.563   4.022   7.686  0.0847 -0.1271  0.0391
15097W        W19497   7.156   2.485  14.648 -0.0832  0.0899 -0.2837
15098W        W19498  15.376   4.928  23.829 -0.0517  0.1222  0.4645
15099W        W19499  16.661   4.734  28.091  0.2394 -0.1074 -0.1028
15100W        W19500   4.128   1.489  16.729  0.0472  0.0569 -0.2464
15101W        W19501   4.471   0.820  29.862 -0.3414 -0.0996 -0.2963
15102W        W19502   5.347   0.663   7.175  0.2023  0.2108 -0.0006
15103W        W19503  10.480   6.027  29.303 -0.2861 -0.0447 -0.2813
15104W        W19504  21.044   5.259   5.870 -0.2636 -0.0514  0.0716
15105W        W19505  21.140   2.921   9.803 -0.2198  0.0824  0.0270
15106W        W19506   2.310   3.023   1.285 -0.1516  0.0367  0.0738
15107W        W19507   0.289   7.266   7.364 -0.1580 -0.2046 -0.2119
15108W        W19508  12.388   6.199  12.592 -0.0857  0.0859 -0.0994
15109W        W19509  17.946   4.117   6.008 -0.0455  0.0157  0.1915
15110W        W19510  20.133   2.124  15.811 -0.2136  0.0425  0.1106
15111W        W19511   6.311   7.496  20.883 -0.0684  0.1298 -0.2119
15112W        W19512  23.894   7.847   1.690 -0.0771  0.0110 -0.1238
15113W        W19513   1.443   5.567   2.124 -0.2520 -0.0667  0.0060
15114W        W19514  12.505   6.845  32.563  0.1353 -0.2693  0.1071
15115W        W19515  22.397   2.421  14.689 -0.0371 -0.1887  0.2071
15116W        W19516  12.024   1.029  27.456  0.0625 -0.1386  0.3237
15117W        W19517  23.431   1.849  11.904 -0.2756  0.1519 -0.2487
15118W        W19518  13.810   5.612  11.713  0.1978 -0.2477  0.1628
15119W        W19519  10.401   2.061   3.276  0.0572 -0.0927  0.2464
15120W        W19520   9.664   0.832  16.399  0.0498 -0.0787 -0.2823
15121W        W19521   3.442   2.649   9.268  0.2035 -0.2000 -0.0409
15122W        W19522  22.391   5.447  12.440 -0.2915  0.5173  0.0619
15123W        W19523   3.186   3.186   8.717  0.0204  0.0415 -0.1511
15124W        W19524   3.132   3.867  27.872 -0.1603 -0.2259  0.2631
15125W        W19525  13.531   0.225  29.892  0.2647 -0.0642  0.0648
15126W        W19526   5.285   0.071   2.534  0.0161 -0.0431  0.0195
15127W        W19527  11.144   3.339  11.417 -0.1529 -0.0235 -0.2594
15128W        W19528  16.124   7.210  26.404 -0.1753  0.0946  0.0971
15129W        W19529   6.062   2.190  23.812  0.1695 -0.0328 -0.1738
15130W        W19530   9.312   1.519  17.538 -0.0802 -0.0348 -0.2945
15131W        W19531  17.269   7.728   3.569 -0.2479  0.2107 -0.0250
15132W        W19532  10.166   0.075   5.917 -0.1692 -0.1261 -0.0777
15133W        W19533  12.984   0.990  29.851 -0.1621  0.0589  0.1708
15134W        W19534  15.067   5.252   4.475  0.0970 -0.1456  0.2038
15135W        W19535  21.724   1.625  12.146 -0.0446  0.0247  0.0595
15136W        W19536   1.707   4.059   9.009  0.1518 -0.0236  0.1424
15137W        W19537  10.350   7.230  10.982  0.1467  0.1043  0.1963
15138W        W19538  17.503   2.759  13.629 -0.1686  0.0867  0.1225
15139W        W19539  24.619   0.487  10.470  0.0581 -0.1955  0.0027
15140W        W19540   7.921   2.227  24.939  0.2308  0.0984  0.1815
15141W        W19541   9.063   3.936   3.212  0.1455  0.1032  0.2153
15142W        W19542   6.915   6.570  21.453 -0.1228  0.2507 -0.1317
15143W        W19543  20.354   4.218  15.648  0.1291  0.0546  0.0390
15144W        W19544   6.968   2.725  20.945  0.1781 -0.2311 -0.0968
15145W        W19545  22.135   0.873   9.409  0.3117 -0.0378  0.0413
15146W        W19546   7.087   6.597   2.145  0.0116  0.2432  0.2942
15147W        W19547  18.557   3.025   5.754  0.0187 -0.3141  0.1239
15148W        W19548  20.903   3.041  16.993 -0.0996 -0.1715 -0.1315
15149W        W19549   4.984   1.030   4.040  0.0318  0.1233 -0.0824
15150W        W19550   2.795   5.721   1.901  0.0423 -0.0154 -0.0819
15151W        W19551   4.397   1.254  30.174  0.0975  0.2764  0.1403
15152W        W19552  15.020   5.494  21.806  0.0283  0.2057 -0.2884
15153W        W19553  17.705   3.799   7.603  0.2881  0.0225 -0.0011
15154W        W19554  19.727   5.947  11.890 -0.2118  0.1364 -0.0239
15155W        W19555   9.413   4.959   5.754 -0.1269  0.0389  0.0346
15156W        W19556  18.991   7.557  31.994 -0.1304  0.0322 -0.3142
15157W        W19557   1.829   3.296   0.064  0.1348 -0.1544 -0.1676
15158W        W19558  23.752   5.689  31.000 -0.0105  0.2714 -0.1167
15159W        W19559  16.064   2.825   1.352 -0.0093  0.1058  0.0714
15160W        W19560  19.269   6.406  12.929  0.0747 -0.0892  0.0036
15161W        W19561  10.072   7.352  29.981 -0.0765  0.0069 -0.1610
15162W        W19562  10.575   4.689  25.311  0.0057 -0.1052 -0.0095
15163W        W19563  12.716   5.536   2.307 -0.2419 -0.0486  0.0223
15164W        W19564  16.895   0.825  29.262  0.2723  0.0240  0.0875
15165W        W19565  23.809   6.974  10.948 -0.0396 -0.0403 -0.2270
15166W        W19566   3.133   3.351  26.553 -0.0636  0.1246  0.1278
15167W        W19567  10.942   1.798  25.738  0.5305  0.2310  0.0669
15168W        W19568  14.783   7.694  30.456  0.0772 -0.1199 -0.0312
15169W        W19569  13.765   5.188  10.389  0.5469  0.2758  0.1228
15170W        W19570  22.727   7.161  21.481 -0.1294 -0.0039 -0.0138
15171W        W19571  12.473   6.610  28.110  0.2498 -0.1939 -0.0677
15172W        W19572   3.888   5.732   6.188  0.0121 -0.2904  0.1474
15173W        W19573   8.560   1.104  17.106  0.2540  0.2048 -0.0742
15174W        W19574   1.137   6.216  30.553 -0.1013  0.0071 -0.0413
15175W        W19575   4.715   2.172  10.343 -0.0932 -0.0246 -0.0706
15176W        W19576   2.737   5.636   3.759 -0.1924 -0.3288 -0.2639
15177W        W19577  22.703   1.046  27.975 -0.3268  0.0674 -0.0337
15178W        W19578  11.780   3.107  22.952 -0.2880  0.1996 -0.1417
15179W        W19579   5.947   0.810   3.782 -0.5270 -0.0998 -0.1994
15180W        W19580   2.913   2.385  30.297  0.0907  0.3694 -0.1841
15181W        W19581   5.158   2.739   9.678 -0.0349  0.1190  0.0688
15182W        W19582   0.270   1.750  12.059  0.1582  0.1596 -0.0799
15183W        W19583  11.474   3.763   2.671 -0.0263  0.1052  0.0516
15184W        W19584  24.316   7.430  21.882 -0.0104 -0.0120  0.1056
15185W        W19585  24.533   5.654  29.608 -0.2394 -0.0790 -0.0422
15186W        W19586  21.230   1.368  15.663  0.0959  0.0187  0.0681
15187W        W19587   7.889   4.691  20.726 -0.1053  0.0742  0.2768
15188W        W19588  22.667   5.620  27.575  0.2318 -0.2949 -0.1534
15189W        W19589  13.040   2.614  32.191  0.1287  0.0153  0.0591
15190W        W19590  10.634   1.211  27.409 -0.4877  0.1512 -0.0779
15191W        W19591   7.462   3.650  20.534 -0.0659 -0.0431 -0.0555
15192W        W19592  24.942   4.917  26.397 -0.2005  0.0964 -0.0182
15193W        W19593   2.095   6.436  26.638 -0.1589  0.2167  0.0812
15194W        W19594   2.586   4.156  10.874 -0.0083 -0.3442 -0.1121
15195W        W19595  12.575   0.509  30.594 -0.0473  0.0997  0.0250
15196W        W19596  20.643   5.755  28.757  0.0329 -0.1524  0.4685
15197W        W19597   4.866   6.748  18.941  0.1184  0.1367 -0.0384
15198W        W19598   2.004   0.357  25.663 -0.0447  0.3954  0.2622
15199W        W19599   5.029   4.721   8.999  0.0730 -0.1546  0.0573
15200W        W19600  10.360   2.232   0.681 -0.2243 -0.0399 -0.1382
15201W        W19601  11.784   4.567   8.821 -0.1262 -0.1030 -0.0112
15202W        W19602   8.214   2.766  24.798 -0.1556 -0.0349  0.1786
15203W        W19603  20.763   6.912  23.817  0.0691 -0.1221 -0.0265
15204W        W19604  15.601   4.591  10.029  0.1823  0.1165  0.1332
15205W        W19605   1.146   1.261  24.590 -0.0418 -0.0112  0.0409
15206W        W19606  17.300   5.864  24.052  0.2727  0.0140  0.1245
15207W        W19607   5.901   6.895  23.951  0.2438  0.0226  0.1283
15208W        W19608   4.613   0.044  16.745 -0.1919 -0.0116  0.1622
15209W        W19609   3.859   7.454   2.443 -0.0547 -0.2316 -0.1408
15210W        W19610  21.730   7.357   7.272  0.1045 -0.0818  0.0609
15211W        W19611  23.481   0.199  11.954 -0.0021 -0.0019  0.2376
15212W        W19612   7.336   0.618   6.274 -0.2286  0.0476  0.1087
15213W        W19613  19.498   3.069  29.872  0.1892 -0.3501  0.1703
15214W        W19614   0.385   4.771  21.702 -0.2719  0.2371 -0.4141
15215W        W19615  11.478   1.793  32.332 -0.0233 -0.0402 -0.0960
15216W        W19616  10.230   6.364   9.800 -0.3058  0.0121 -0.0919
15217W        W19617  17.956   2.383  22.515 -0.1250 -0.2900 -0.2020
15218W        W19618  15.684   7.795   8.745 -0.0503  0.1169  0.0395
15219W        W19619   9.785   1.985   3.076 -0.1507 -0.0502 -0.0267
15220W        W19620  20.214   3.622  26.528 -0.1549  0.0564 -0.2094
15221W        W19621  18.294   1.582   0.415  0.2402 -0.0607  0.1473
15222W        W19622  14.883   0.639   0.811 -0.1862 -0.0019 -0.0729
15223W        W19623  19.366   7.567   4.750  0.0900 -0.0644  0.0862
15224W        W19624   0.985   7.433  18.819  0.3676 -0.1653 -0.0003
15225W        W19625  10.147   0.743  26.447 -0.0771  0.0563  0.1313
15226W        W19626   3.167   3.843   3.253  0.1951  0.2195 -0.0106
15227W        W19627   9.599   2.558  25.116  0.2500  0.0042 -0.1986
15228W        W19628   6.815   7.426   4.404 -0.0877  0.4060  0.0051
15229W        W19629   2.812   7.676  21.872 -0.2590  0.0697 -0.0314
15230W        W19630   6.124   6.350  16.634 -0.3520 -0.0012 -0.0482
15231W        W19631  19.768   7.327   5.115  0.0106  0.0382  0.2628
15232W        W19632   8.608   6.585  23.971 -0.0170 -0.0322 -0.3111
15233W        W19633   2.808   1.369  21.235 -0.2499 -0.2879  0.0983
15234W        W19634   0.164   7.683   6.083 -0.1862  0.3961 -0.1017
15235W        W19635   8.456   1.492  25.331  0.1589  0.2210  0.1487
15236W        W19636  14.945   0.724  12.998 -0.0665 -0.1990  0.1823
15237W        W19637  21.036   0.211   9.667  0.0528 -0.1760 -0.2993
15238W        W19638  22.009   4.295  16.350  0.1572 -0.3587  0.1631
15239W        W19639   6.725   1.535   0.711 -0.0208  0.1345  0.2203
15240W        W19640  19.694   3.935  30.610 -0.1328 -0.0540  0.1929
15241W        W19641   3.699   1.278  20.061 -0.1075  0.0909  0.1560
15242W        W19642   9.824   2.739  25.536 -0.2179  0.1581  0.1754
15243W        W19643  19.811   3.970  25.492 -0.0614  0.2345 -0.0130
15244W        W19644  18.437   1.176  23.117 -0.0681 -0.2514 -0.2439
15245W        W19645  24.311   3.383  13.143 -0.0457  0.1898 -0.3095
15246W        W19646   5.737   6.015   7.251  0.0192  0.0833  0.1220
15247W        W19647   8.939   7.111  16.357  0.0177  0.2578  0.0320
15248W        W19648  24.798   1.910  11.974 -0.1266 -0.4352 -0.3458
15249W        W19649  17.360   2.046  16.045  0.2764 -0.1383 -0.2515
15250W        W19650  15.568   2.298  15.556  0.1240 -0.2025 -0.0009
15251W        W19651  18.712   1.772   0.698 -0.1251 -0.0128  0.0743
15252W        W19652   3.870   2.331  21.983  0.0467 -0.0757  0.0530
15253W        W19653  13.154   1.891   3.712 -0.2436  0.0905 -0.0380
15254W        W19654  22.591   7.079  26.409  0.1091 -0.2354 -0.4974
15255W        W19655  16.455   4.560  14.029 -0.3077  0.1302  0.4319
15256W        W19656  13.715   3.093  11.924  0.2375 -0.0708 -0.1346
15257W        W19657  20.032   1.115  24.704 -0.0129  0.1109  0.3380
15258W        W19658  10.488   1.984  31.213 -0.1830 -0.2552 -0.0998
15259W        W19659   1.098   4.172  21.624 -0.0270  0.1412 -0.1335
15260W        W19660  14.414   7.301   0.332  0.0629 -0.0961  0.1012
15261W        W19661  11.506   5.018  19.639 -0.1690  0.1818 -0.1456
15262W        W19662  23.371   4.924   4.568  0.0037 -0.1515  0.0846
15263W        W19663   7.428   1.732  17.304 -0.0353  0.0529  0.0600
15264W        W19664  19.224   4.401  17.670  0.0740  0.0582  0.0156
15265W        W19665  10.257   5.041  26.189  0.1814 -0.1904  0.0239
15266W        W19666   7.091   2.195  16.024  0.0519  0.0422  0.2553
15267W        W19667  15.708   6.302  31.931  0.2600 -0.0537  0.0135
15268W        W19668   9.904   2.736   2.321 -0.1163  0.0289 -0.0247
15269W        W19669  23.912   0.532  23.596  0.2005  0.1927  0.0719
15270W        W19670   1.513   3.502  26.687 -0.1572  0.2983  0.1756
15271W        W19671   1.798   6.348   4.574 -0.0319 -0.2426 -0.3457
15272W        W19672   1.213   5.885   3.170  0.2825 -0.2137 -0.3017
15273W        W19673  24.833   1.157  11.222  0.0745 -0.5073 -0.0430
15274W        W19674  13.537   5.122   9.259 -0.1325 -0.1740  0.0286
15275W        W19675   7.916   1.537   0.607 -0.1287  0.0945 -0.3823
15276W        W19676  19.631   2.468  22.197 -0.3772  0.0236  0.1048
15277W        W19677  21.281   1.628   6.311 -0.3197 -0.0407  0.2629
15278W        W19678   8.369   7.701   6.249 -0.2816 -0.4142  0.1908
15279W        W19679  15.292   2.536   9.811  0.0810 -0.2251  0.0107
15280W        W19680  14.172   4.715  30.401 -0.0175  0.0592  0.3067
15281W        W19681  24.860   4.088  24.614  0.0905 -0.2369 -0.3960
15282W        W19682   6.173   7.286  20.152  0.1062  0.2730 -0.1928
15283W        W19683  14.188   6.060  11.091  0.1603 -0.1621  0.0966
15284W        W19684  12.687   6.324  25.625  0.0622 -0.0269 -0.3106
15285W        W19685   2.800   1.442   6.789 -0.1125  0.3139  0.2363
15286W        W19686   4.582   1.240  28.272  0.1987  0.2326  0.0835
15287W        W19687   8.453   1.714  27.044 -0.1421  0.0631 -0.1239
15288W        W19688   5.792   2.742  21.684  0.1432  0.0143 -0.2558
15289W        W19689  17.888   7.243  27.426 -0.0756 -0.0895 -0.1260
15290W        W19690  14.111   4.802   7.649 -0.0019 -0.0769  0.2401
15291W        W19691   0.454   4.272   0.727 -0.2215  0.0676  0.4387
15292W        W19692   4.503   7.198   1.460  0.0734 -0.0029  0.2725
15293W        W19693  22.483   7.796  12.592 -0.0259  0.0551  0.4005
15294W        W19694  24.704   2.094  10.662 -0.0179 -0.1237 -0.2478
15295W        W19695  11.304   3.256   6.990  0.0474  0.1161  0.1335
15296W        W19696   1.036   3.484   6.022 -0.4188  0.2850 -0.1195
15297W        W19697   2.229   7.818   3.394  0.1568 -0.1297 -0.0333
15298W        W19698  14.518   2.850   4.650  0.1003  0.2617  0.0345
15299W        W19699   5.913   5.840  26.986  0.1283  0.2999  0.0488
15300W        W19700   1.497   6.017   4.290  0.0273  0.1144 -0.0720
15301W        W19701  21.851   5.235   5.368 -0.1621 -0.1605  0.1774
15302W        W19702   9.221   7.851  21.963  0.0557  0.0707  0.0001
15303W        W19703  11.136   6.613  16.960 -0.0216  0.1077 -0.3098
15304W        W19704   0.226   4.439  10.224  0.4242 -0.1666  0.0314
15305W        W19705  24.659   4.222  20.822 -0.0250  0.2879  0.1485
15306W        W19706   0.883   5.499  24.696  0.0320 -0.3173  0.1757
15307W        W19707   3.489   6.812  19.571 -0.0732 -0.2440  0.2089
15308W        W19708   3.598   4.166  18.879  0.0415  0.0740  0.2733
15309W        W19709  18.062   5.563  13.146 -0.1489 -0.1101  0.0867
15310W        W19710  13.889   0.016   0.215 -0.1310 -0.2000 -0.0279
15311W        W19711   4.775   4.551  17.661  0.1125  0.2496  0.1340
15312W        W19712  16.490   0.447  24.850  0.2395 -0.1646  0.1164
15313W        W19713  10.478   2.719  27.628  0.0835  0.0455  0.1569
15314W        W19714   6.012   4.263  22.826 -0.0891 -0.0516  0.2359
15315W        W19715   8.286   6.955  27.893  0.3075 -0.0063 -0.0321
15316W        W19716   4.510   1.603   7.727  0.0254 -0.0098 -0.3174
15317W        W19717   0.465   0.857  28.030 -0.2451 -0.2231 -0.0178
15318W        W19718   9.395   7.701   6.371  0.4746 -0.4329 -0.1539
15319W        W19719   8.489   7.828  28.966  0.2450 -0.2610 -0.0529
15320W        W19720  15.668   3.428   2.756 -0.0686  0.1600 -0.1060
15321W        W19721  14.832   2.657   5.040 -0.1729 -0.0408  0.3271
15322W        W19722   9.348   0.773  24.762  0.0447 -0.0176  0.1147
15323W        W19723  13.365   7.433  31.317 -0.1695  0.0134 -0.0729
15324W        W19724  23.164   5.658   0.790  0.1367  0.2625  0.1357
15325W        W19725  24.942   3.851   9.772 -0.0716  0.3122 -0.0482
15326W        W19726   2.731   2.324   2.151  0.0256  0.0021 -0.1054
15327W        W19727  13.975   6.613   4.423  0.1568 -0.1227  0.2516
15328W        W19728   1.750   4.866   6.574 -0.0294  0.1859 -0.1218
15329W        W19729   6.992   6.506   0.370  0.0096 -0.0506 -0.0416
15330W        W19730  23.334   5.792  13.244  0.3488 -0.0963  0.0552
15331W        W19731  17.687   0.051   7.401 -0.0121 -0.0152 -0.0354
15332W        W19732   9.329   4.649  27.343 -0.0632 -0.0285  0.0312
15333W        W19733   6.506   5.357   2.956  0.0253  0.1626 -0.1766
15334W        W19734  24.096   0.736   2.136 -0.2324  0.1478 -0.4421
15335W        W19735  22.639   7.493   5.302  0.0646 -0.0412 -0.2351
15336W        W19736  11.591   2.092   1.852 -0.0775 -0.3916 -0.4638
15337W        W19737   3.098   2.361   9.041 -0.0698  0.1444 -0.0054
15338W        W19738   8.582   4.091   9.445  0.1525  0.1891 -0.4523
15339W        W19739   2.794   7.134   4.150  0.1841 -0.1567 -0.0453
15340W        W19740  17.583   0.395  12.717  0.0044 -0.0013  0.2045
15341W        W19741  17.222   4.280   4.896 -0.0607 -0.0817  0.0482
15342W        W19742  13.765   3.932  13.134 -0.1010 -0.1598 -0.0794
15343W        W19743  21.642   7.072  14.276  0.5646  0.0186 -0.0843
15344W        W19744   1.027   7.631   9.073  0.2449 -0.0868 -0.3386
15345W        W19745   7.395   5.176  29.010 -0.0596 -0.2544  0.0435
15346W        W19746  24.450   2.018  28.215  0.1359  0.0180 -0.0503
15347W        W19747   9.450   1.581   5.356  0.0049 -0.3274 -0.3330
15348W        W19748   4.453   6.957   0.537  0.0455  0.1786  0.1495
15349W        W19749   5.967   4.659  31.545 -0.0072  0.1110  0.1580
15350W        W19750   0.795   6.258  22.906 -0.0197 -0.0433  0.1167
15351W        W19751   5.680   7.695  30.093  0.2605 -0.3229 -0.1934
15352W        W19752  22.908   4.527   1.616  0.0099 -0.0174 -0.0410
15353W        W19753  24.811   3.640   5.120 -0.0850  0.2330  0.1716
15354W        W19754  13.111   2.597   9.510  0.1209  0.0939 -0.1599
15355W        W19755  14.159   4.580  10.222 -0.0714 -0.0551 -0.1099
15356W        W19756  22.258   4.320   5.185 -0.3156  0.0781 -0.0279
15357W        W19757   0.676   5.189   9.605 -0.3847  0.0766 -0.3502
15358W        W19758  22.916   3.764  23.574  0.0096  0.0160  0.2725
15359W        W19759  22.838   6.664   3.119 -0.0109  0.3046 -0.0382
15360W        W19760  10.225   2.097  31.948 -0.3816 -0.0862  0.3185
15361W        W19761   2.125   6.877  30.475 -0.0789 -0.0071  0.2866
15362W        W19762  15.021   3.806   1.001  0.1923 -0.0386 -0.0931
15363W        W19763  18.008   2.277  14.176  0.3700  0.1847 -0.4549
15364W        W19764  14.353   5.275  23.224  0.0760  0.0882  0.0776
15365W        W19765  23.937   3.658  31.355 -0.2423  0.2921 -0.0395
15366W        W19766   5.353   1.074  17.398  0.0458 -0.2632 -0.3846
15367W        W19767  21.108   7.696  28.161 -0.0663  0.0988 -0.0771
15368W        W19768  19.287   0.136  14.326 -0.2380 -0.0736  0.3011
15369W        W19769  14.243   0.812  23.243 -0.1113 -0.0446  0.0748
15370W        W19770  22.799   4.412  30.132  0.2507 -0.0268  0.0205
15371W        W19771  18.661   5.200   9.814  0.2584  0.2643 -0.1729
15372W        W19772  18.990   4.140  14.743 -0.1436 -0.1001  0.2365
15373W        W19773   0.257   0.716   2.764  0.1468 -0.0539 -0.0190
15374W        W19774  15.258   5.223   9.596 -0.1183  0.0856  0.2849
15375W        W19775  14.746   2.121  21.840 -0.0622 -0.0528 -0.0825
15376W        W19776  14.112   3.691  25.118 -0.1546  0.0331  0.1743
15377W        W19777  24.696   7.821  26.146 -0.1688  0.2882 -0.0073
15378W        W19778  21.478   5.117  24.428 -0.1258 -0.1713 -0.2399
15379W        W19779  22.605   4.080   9.151 -0.0308 -0.3467  0.2086
15380W        W19780  20.145   4.581   1.497 -0.3033 -0.1436  0.2988
15381W        W19781  10.692   4.418  17.950 -0.1748 -0.1355 -0.0115
15382W        W19782  23.570   2.275  23.434 -0.1584 -0.0196  0.1133
15383W        W19783  24.186   1.265  22.476 -0.0058  0.0879  0.2603
15384W        W19784   1.302   7.223   6.101  0.1263 -0.0774  0.2078
15385W        W19785  16.000   5.545   5.421  0.0935  0.1125  0.5436
15386W        W19786   5.482   2.642  16.588 -0.0521  0.0346 -0.3767
15387W        W19787  20.719   2.637  16.710  0.0068  0.1344  0.1478
15388W        W19788  19.205   7.151  16.535 -0.1584 -0.0215  0.1829
15389W        W19789  19.406   0.248  32.111 -0.4401 -0.1186 -0.1173
15390W        W19790  18.055   7.685  27.602  0.1988 -0.1594  0.3600
15391W        W19791   9.860   2.086  19.703  0.0273 -0.0307  0.1149
15392W        W19792  23.922   4.322   8.724  0.0421  0.0134 -0.1022
15393W        W19793   3.999   3.479   7.024 -0.1208  0.0067  0.0983
15394W        W19794  13.699   6.484  10.305 -0.1909 -0.0829 -0.1367
15395W        W19795   2.421   2.232   1.721 -0.0750  0.0807  0.1285
15396W        W19796  14.408   3.259  31.914 -0.2929  0.0496 -0.1246
15397W        W19797  10.551   1.450  20.797 -0.1362  0.1857  0.3107
15398W        W19798   1.576   3.957   4.684 -0.0974  0.0457 -0.0982
15399W        W19799  25.083   0.229   3.526  0.2687 -0.2643 -0.0431
15400W        W19800   6.682   3.980   5.225 -0.1130 -0.1043  0.1308
15401W        W19801  17.974   1.183  12.882 -0.1598 -0.0207 -0.0287
15402W        W19802   2.443   7.430  27.464 -0.1488  0.1908  0.0071
15403W        W19803   7.131   3.811  19.593  0.0007 -0.0653 -0.1310
15404W        W19804  11.202   5.574   1.428  0.0076 -0.1051 -0.1846
15405W        W19805  22.856   0.955  30.192  0.0145  0.1538  0.1809
15406W        W19806   2.258   4.597  16.601  0.0789 -0.2899  0.3304
15407W        W19807  20.417   2.592  11.782  0.0333 -0.0705  0.2727
15408W        W19808   7.044   5.998   8.497 -0.0329  0.1606  0.3819
15409W        W19809  19.345   2.234  17.568 -0.3685 -0.1254 -0.0599
15410W        W19810   2.306   6.432  28.962  0.0129 -0.3590  0.0748
15411W        W19811   5.318   1.731   5.882  0.2183  0.2078  0.1815
15412W        W19812   4.187   2.361  19.434  0.5796 -0.2067 -0.0141
15413W        W19813  23.773   0.751  22.640  0.1077  0.0411 -0.1689
15414W        W19814  24.350   6.220   5.170  0.0993 -0.2073  0.1065
15415W        W19815  22.793   1.253  14.723  0.1646  0.0118 -0.0243
15416W        W19816   3.374   3.637  15.924  0.1384  0.5634 -0.2413
15417W        W19817  17.168   7.042   5.559 -0.1637 -0.0049 -0.2431
15418W        W19818   6.383   2.919  17.509 -0.1432  0.0406 -0.0775
15419W        W19819  16.667   6.847   1.850  0.2321  0.1700 -0.1243
15420W        W19820  15.740   1.505   4.832 -0.2046  0.1173  0.0488
15421W        W19821  22.681   1.002  14.318  0.3367  0.0545  0.0015
15422W        W19822  16.721   3.443  31.585 -0.1206 -0.0363 -0.1293
15423W        W19823  14.391   3.596  14.122 -0.0880 -0.2245  0.0688
15424W        W19824  13.584   2.613  21.981  0.1660 -0.2705  0.1089
15425W        W19825   0.101   0.813  28.617  0.0867  0.0255 -0.0074
15426W        W19826   3.715   7.388  22.209  0.0326  0.1570  0.4066
15427W        W19827   2.336   4.195  31.258  0.1562 -0.1402  0.3295
15428W        W19828   6.942   1.772   9.880  0.2462 -0.1367  0.1558
15429W        W19829  21.277   3.924  27.830  0.2538  0.0499 -0.2132
15430W        W19830   8.890   2.066  21.899 -0.2583 -0.1743  0.5117
15431W        W19831  21.760   5.762  11.086 -0.1483  0.1849  0.1101
15432W        W19832   1.315   5.684  26.929 -0.1540 -0.2396 -0.1012
15433W        W19833   0.429   2.460  25.437 -0.0290  0.2198  0.0977
15434W        W19834  11.406   1.236  23.558  0.0370 -0.0351  0.1991
15435W        W19835  23.380   0.857   7.862  0.1972  0.0084  0.1793
15436W        W19836   5.715   7.067   2.558 -0.1669  0.1267  0.0945
15437W        W19837  20.261   7.640   2.238 -0.0688  0.0233 -0.1888
15438W        W19838   3.438   5.088  28.124 -0.2317 -0.3752  0.2099
15439W        W19839  11.450   3.118  30.950 -0.1685 -0.0416  0.0078
15440W        W19840  19.037   3.572   6.313 -0.0152 -0.2493  0.2517
15441W        W19841   7.839   5.423   4.033 -0.0223  0.2684 -0.0922
15442W        W19842   2.968   6.860   9.898 -0.0661  0.1240  0.0567
15443W        W19843  25.143   0.306  30.603  0.1054 -0.1926  0.2102
15444W        W19844   2.628   2.334  20.029  0.0421  0.1581  0.2223
15445W        W19845  17.654   7.081  15.989 -0.1089  0.0603 -0.0028
15446W        W19846  13.296   1.065  12.835  0.3185 -0.0809 -0.2967
15447W        W19847  15.911   1.587   2.517  0.2172  0.2370  0.0533
15448W        W19848  21.564   6.208  14.253  0.3423  0.0075 -0.0536
15449W        W19849   8.517   0.235   3.067 -0.0174 -0.0076  0.0155
15450W        W19850  17.162   7.075  23.354 -0.1840  0.1675  0.0315
15451W        W19851  15.527   0.155   2.537  0.2399  0.1629  0.1335
15452W        W19852  11.988   0.221  22.616 -0.1968 -0.2491  0.0817
15453W        W19853  12.310   0.827  10.501  0.0079 -0.0085 -0.0148
15454W        W19854   7.311   3.253  27.082 -0.1093 -0.1807 -0.1805
15455W        W19855  24.000   2.042   7.386 -0.0074  0.0446 -0.4433
15456W        W19856   7.744   2.293  14.506  0.1356 -0.3904 -0.0283
15457W        W19857  16.458   7.297  13.286  0.0910  0.0927 -0.1817
15458W        W19858   1.096   5.370   1.297  0.2099  0.1115  0.2210
15459W        W19859   3.898   6.484  29.013  0.2121  0.2857 -0.1265
15460W        W19860  23.728   4.179  31.069 -0.0317  0.0714 -0.0282
15461W        W19861  14.591   2.676   1.866  0.0135  0.4821  0.0376
15462W        W19862   7.373   0.464  19.167 -0.3492  0.1273  0.3051
15463W        W19863  20.408   4.065  29.303 -0.0093  0.1328  0.1128
15464W        W19864   3.767   0.528  18.322  0.2049 -0.2076 -0.1339
15465W        W19865   8.438   7.389  19.051  0.0225 -0.1013 -0.2222
15466W        W19866   1.220   3.981   9.315 -0.2153  0.3615  0.1014
15467W        W19867   2.664   1.847  26.863  0.2089 -0.4496  0.1535
15468W        W19868   8.640   6.836  31.588 -0.1051 -0.0719 -0.0353
15469W        W19869  23.258   6.178  14.462  0.1928  0.0447  0.2607
15470W        W19870  19.348   4.140  31.630  0.1216  0.0287  0.1890
15471W        W19871  11.399   5.747  31.397 -0.1388 -0.1647  0.0792
15472W        W19872   4.846   7.702   0.071 -0.3095  0.2702 -0.2174
15473W        W19873  12.068   4.698   9.687  0.1769  0.4017 -0.0319
15474W        W19874  21.848   1.806   1.830 -0.0852 -0.1686 -0.1045
15475W        W19875   3.465   1.449   1.756  0.1697  0.1475  0.1825
15476W        W19876   5.795   2.694   4.681  0.0037 -0.1201  0.0425
15477W        W19877   6.972   1.578   1.849 -0.0900  0.1322  0.0917
15478W        W19878  22.351   1.876  14.668  0.0294  0.2217 -0.0938
15479W        W19879  13.599   7.096   5.971 -0.0840 -0.1292  0.2679
15480W        W19880   2.971   2.139   3.044 -0.1072  0.0493  0.0673
15481W        W19881   7.598   0.825   8.708 -0.0458 -0.2355 -0.2040
15482W        W19882  18.491   4.144  12.785  0.1178  0.0446  0.1365
15483W        W19883  21.682   2.318  21.747 -0.0020  0.0472  0.1235
15484W        W19884   8.253   3.340  17.679  0.1599 -0.1147 -0.0315
15485W        W19885  23.245   3.875  32.566  0.0387 -0.0036  0.0728
15486W        W19886   7.493   6.245   4.035 -0.1621 -0.2319 -0.2395
15487W        W19887  13.689   3.635  23.356  0.1633  0.0532 -0.2693
15488W        W19888  23.065   4.568  10.492  0.0313  0.2094 -0.1020
15489W        W19889  24.120   3.548  14.555  0.2254  0.0188 -0.5027
15490W        W19890   8.385   3.224  28.316 -0.0007  0.1375 -0.1562
15491W        W19891   7.071   3.737  15.965  0.2102 -0.0328 -0.2181
15492W        W19892   1.957   2.855  21.290 -0.1056  0.1354 -0.0945
15493W        W19893  14.226   5.380  11.819 -0.0950 -0.2939  0.1495
15494W        W19894  21.467   1.742  25.857  0.3121 -0.1216  0.0148
15495W        W19895  11.212   0.599  19.873  0.2019 -0.0525  0.1942
15496W        W19896  11.942   3.825  22.588  0.0811  0.0991 -0.3283
15497W        W19897  11.570   5.906   2.840  0.1726  0.0248  0.3041
15498W        W19898  20.395   3.298  14.367  0.1086  0.2674 -0.0330
15499W        W19899  15.827   7.596  15.840  0.0907  0.4160  0.3125
15500W        W19900  18.998   4.993  28.026 -0.2326 -0.1989  0.0493
15501W        W19901  23.811   4.297  29.693 -0.4488 -0.1892  0.2212
15502W        W19902  21.733   3.112  10.705 -0.0533  0.0214  0.0945
15503W        W19903  11.923   1.486   4.117  0.0611  0.0495 -0.1209
15504W        W19904  15.310   1.965  22.113 -0.1049 -0.1198 -0.0788
15505W        W19905   8.782   7.141  18.786 -0.1049 -0.2315  0.0584
15506W        W19906  13.975   2.394  31.792  0.0172  0.2300  0.1839
15507W        W19907  24.243   1.848  24.534  0.1009  0.3762 -0.0516
15508W        W19908  16.777   5.755   4.460 -0.3149 -0.0274 -0.0572
15509W        W19909  16.300   6.909  26.074 -0.1448 -0.1980 -0.3351
15510W        W19910  11.802   7.145  30.560 -0.2926 -0.0662  0.1730
15511W        W19911  20.901   2.169  14.630 -0.0908  0.1726  0.0256
15512W        W19912   5.519   1.545  20.033 -0.1332  0.0609  0.1107
15513W        W19913   5.438   1.774   7.682 -0.2376 -0.1971  0.2579
15514W        W19914   3.888   2.753   7.419 -0.0022  0.1626  0.1792
15515W        W19915  14.962   6.898  10.675 -0.1303 -0.0982 -0.3082
15516W        W19916  16.416   0.430  29.723  0.3059  0.1015 -0.3174
15517W        W19917   7.922   7.166  26.470  0.0315 -0.1396  0.0306
15518W        W19918  17.132   4.766  29.892  0.1252 -0.0369  0.1837
15519W        W19919  10.689   5.932  27.324  0.1281  0.0041  0.1006
15520W        W19920   0.650   0.131   8.992 -0.0063 -0.3956  0.2008
15521W        W19921  17.381   7.476  16.354 -0.0802 -0.3544 -0.1167
15522W        W19922  24.361   2.725   1.941 -0.0790 -0.0814 -0.0900
15523W        W19923   8.887   6.088   1.694 -0.3240  0.0123  0.1461
15524W        W19924  24.817   6.251   5.351 -0.1034  0.0225 -0.1919
15525W        W19925  11.166   1.083  10.749 -0.2134 -0.1019 -0.0104
15526W        W19926  16.229   5.437  13.916 -0.0531 -0.1167 -0.2350
15527W        W19927  21.954   5.662  16.388  0.1543  0.0295 -0.2521
15528W        W19928  23.329   7.104   8.628 -0.0346 -0.3589 -0.1482
15529W        W19929  19.123   5.852   6.843 -0.2268 -0.0394  0.1910
15530W        W19930   8.829   2.126  28.562 -0.0316  0.1932 -0.1813
15531W        W19931  13.643   2.047   6.726  0.2066  0.1311  0.1979
15532W        W19932  23.584   4.652  32.315 -0.2832  0.1067  0.0480
15533W        W19933   4.089   6.310  16.740 -0.1118  0.2136 -0.0967
15534W        W19934   6.901   6.521  30.653  0.3772  0.1907  0.2323
15535W        W19935   9.968   2.373   3.323 -0.1485 -0.1213  0.2377
15536W        W19936   3.256   3.799  29.858  0.2370 -0.0118  0.0118
15537W        W19937   9.618   2.402   2.755  0.0956 -0.3329  0.2665
15538W        W19938   0.895   4.576  28.998  0.1179  0.1781 -0.0081
15539W        W19939  18.727   4.668  24.349  0.1184 -0.3280 -0.1857
15540W        W19940  19.579   7.253  13.587  0.3250  0.0561 -0.1023
15541W        W19941  12.518   1.994  25.672  0.0885 -0.0817  0.2324
15542W        W19942  12.883   6.077   8.390 -0.1521  0.1613  0.0659
15543W        W19943   1.669   2.353  27.523  0.0219  0.2334 -0.0691
15544W        W19944   0.375   3.870  32.031 -0.3962 -0.2520 -0.0555
15545W        W19945  12.872   3.000   5.400  0.2046  0.3005  0.2234
15546W        W19946   1.142   2.270  28.264 -0.1004  0.0260 -0.2919
15547W        W19947   9.252   2.969  32.326  0.2361 -0.2781  0.0679
15548W        W19948   8.090   0.305  28.719 -0.1736 -0.1875  0.1441
15549W        W19949  10.350   4.758   6.673  0.3225  0.3796 -0.0616
15550W        W19950   0.726   1.826  20.684  0.0529  0.0531  0.0147
15551W        W19951   0.645   3.888   9.223  0.0509  0.1101  0.1016
15552W        W19952   6.242   3.722  31.583 -0.2613 -0.0519 -0.2784
15553W        W19953  14.355   2.988  27.875 -0.1557  0.1219 -0.0336
15554W        W19954  15.388   2.774  23.117 -0.3904  0.2888  0.2474
15555W        W19955  16.950   4.264  25.218 -0.0844 -0.1563 -0.0266
15556W        W19956  15.078   5.153  26.227 -0.1321 -0.0162  0.2615
15557W        W19957  20.616   3.661   5.929  0.2388  0.1788 -0.1620
15558W        W19958   4.508   0.899   2.589  0.0757  0.0681  0.1170
15559W        W19959  20.497   0.260  28.816  0.0874 -0.0198  0.2036
15560W        W19960   1.069   5.551  24.162  0.2833  0.1158  0.0453
15561W        W19961   8.059   1.039  30.502 -0.0066  0.0773 -0.0742
15562W        W19962  12.029   1.157  28.970  0.1319 -0.2323  0.1681
15563W        W19963  18.842   6.946  25.966 -0.1346 -0.0082 -0.1679
15564W        W19964   5.889   0.396  26.961  0.2090  0.0054  0.2054
15565W        W19965  20.848   6.711  12.401  0.1171  0.2287  0.3124
15566W        W19966  23.273   3.138   8.183  0.0554  0.1441 -0.0226
15567W        W19967   8.081   4.064   9.676  0.0745 -0.0563  0.0186
15568W        W19968   0.746   3.317   1.380  0.0400 -0.0154  0.1164
15569W        W19969   6.754   3.943  17.150  0.0364  0.0374  0.2325
15570W        W19970   3.585   2.017  29.884 -0.2184 -0.1310  0.0148
15571W        W19971   0.255   6.623  25.627  0.0661  0.4804 -0.1062
15572W        W19972  13.961   1.454  30.112  0.1488 -0.2180  0.0706
15573W        W19973   3.611   1.068  23.652  0.4240  0.0320 -0.0565
15574W        W19974   3.798   3.438   9.352  0.3117  0.1081  0.0168
15575W        W19975  15.606   3.147  32.523  0.0820 -0.1737  0.0086
15576W        W19976  15.311   5.092   2.734 -0.2268 -0.0387 -0.0146
15577W        W19977  24.724   1.435  22.499  0.0827 -0.1018  0.1965
15578W        W19978  18.292   5.245   8.598 -0.0753 -0.0251  0.1083
15579W        W19979  17.904   2.791   4.341  0.0956  0.0484  0.2545
15580W        W19980  21.375   6.786   6.741  0.3463 -0.4196  0.1435
15581W        W19981  15.980   7.183   1.547  0.1846 -0.2784 -0.2976
15582W        W19982   5.044   6.166  31.611 -0.0331  0.3011  0.2967
15583W        W19983  10.444   7.759  26.258 -0.5468  0.2236 -0.1490
15584W        W19984  24.953   4.707   3.932  0.0918 -0.0087  0.0012
15585W        W19985   8.500   4.201  21.161  0.1391  0.0750  0.2946
15586W        W19986  20.310   4.984   8.343 -0.1939  0.1711  0.3580
15587W        W19987   9.918   0.174  28.797 -0.0142  0.2355  0.0933
15588W        W19988   4.347   4.833   6.888 -0.0278 -0.2352  0.1113
15589W        W19989  11.800   7.729  31.186  0.4705 -0.1864 -0.4448
15590W        W19990  10.025   3.796  27.467  0.0428  0.0390 -0.1629
15591W        W19991   4.696   5.200   6.283  0.0256  0.1551 -0.0854
15592W        W19992   8.744   1.466  24.873  0.2314  0.0257 -0.0177
15593W        W19993   0.546   6.415   7.487  0.3043 -0.1336  0.0541
15594W        W19994  15.862   6.981  28.192  0.1464  0.1304  0.1640
15595W        W19995   4.401   0.818   5.188 -0.1440  0.1680 -0.1713
15596W        W19996  24.941   4.560  13.847 -0.0047  0.2241 -0.2758
15597W        W19997   3.506   7.585  29.289  0.0946 -0.1179  0.1702
15598W        W19998  16.664   2.559   3.304 -0.4619 -0.0592 -0.1030
15599W        W19999   6.471   3.127  22.833 -0.0222 -0.1808  0.2778
15600W        W20000   0.872   1.879   4.707  0.0747  0.0587 -0.2297
15601W        W20001   2.948   5.141  23.763  0.1709  0.0899  0.1162
15602W        W20002  23.860   5.848   9.682  0.1135 -0.2229 -0.3240
15603W        W20003   1.626   6.191  24.784 -0.0378  0.0618 -0.2074
15604W        W20004   6.644   1.794  16.660 -0.0126  0.0397 -0.2619
15605W        W20005  21.955   0.890  30.271  0.0499  0.1912 -0.2525
15606W        W20006   6.037   2.806  26.741  0.0661 -0.0602  0.1385
15607W        W20007  17.812   5.375  24.892 -0.1025 -0.2209 -0.1695
15608W        W20008  17.151   1.709  17.299 -0.0293  0.2065  0.1218
15609W        W20009   1.900   3.846  19.418 -0.1256 -0.0429 -0.3307
15610W        W20010  16.815   3.748  13.800 -0.1436  0.0459  0.0256
15611W        W20011  10.156   4.590  30.602  0.2641  0.1100  0.4256
15612W        W20012  10.561   3.109  20.112 -0.3504 -0.0225 -0.5827
15613W        W20013  23.427   5.527   6.836  0.1121  0.1362 -0.0737
15614W        W20014   3.992   4.044  21.276  0.1405 -0.1855  0.2155
15615W        W20015  10.988   1.884  31.283  0.4023  0.0288  0.1389
15616W        W20016  19.026   4.839   9.037 -0.2047  0.2489 -0.0566
15617W        W20017   7.816   5.953  17.182  0.1339 -0.1405  0.0271
15618W        W20018  22.349   5.940   8.611  0.1713  0.2246  0.1038
15619W        W20019   4.218   2.888   1.931  0.0618 -0.2559  0.1657
15620W        W20020  19.186   0.568   0.063 -0.0492 -0.2165  0.1307
15621W        W20021  17.870   5.454  16.999 -0.1838 -0.0277  0.0649
15622W        W20022   2.550   0.977  18.353 -0.1702  0.1350  0.1181
15623W        W20023  16.152   0.844  14.848 -0.2966 -0.0292  0.0202
15624W        W20024  16.972   2.753  17.573 -0.0471 -0.0362 -0.2733
15625W        W20025  11.253   3.384   5.399  0.0771  0.0787 -0.2726
15626W        W20026   6.890   2.314  21.282  0.1858  0.3925 -0.1337
15627W        W20027  15.785   1.416   8.276 -0.1407  0.2398  0.0436
15628W        W20028   5.991   5.812   0.930 -0.2342  0.0897  0.1232
15629W        W20029   2.578   5.778  29.386 -0.1959 -0.2481  0.1086
15630W        W20030  16.813   7.336   8.477  0.1973  0.3217 -0.0429
15631W        W20031  12.100   6.036  22.873  0.0918  0.3237 -0.1615
15632W        W20032  16.518   6.912  21.725  0.1575  0.0791  0.2471
15633W        W20033   1.266   3.661  21.755  0.0792 -0.2983 -0.1263
15634W        W20034  10.037   6.048   9.341 -0.0639  0.1156 -0.1044
15635W        W20035   3.724   1.237  31.662 -0.1487  0.2127  0.0563
15636W        W20036   3.426   1.736  16.784 -0.0149 -0.0839 -0.1260
15637W        W20037  22.657   1.151  13.815  0.1015  0.0373 -0.2891
15638W        W20038  22.621   0.854   9.843 -0.0695 -0.0566  0.0649
15639W        W20039  14.947   7.277  29.958 -0.3276 -0.0619 -0.3266
15640W        W20040  18.167   5.903  22.185  0.2173  0.2865 -0.1283
15641W        W20041  15.366   7.731  23.271  0.0564  0.2054 -0.0749
15642W        W20042  23.592   6.955  31.016 -0.1845  0.2773 -0.0608
15643W        W20043   9.968   1.724   0.622 -0.0527  0.0943 -0.0532
15644W        W20044  24.336   2.434  31.978  0.1641  0.2468 -0.0442
15645W        W20045  19.568   1.565   7.656 -0.0081  0.1854  0.0229
15646W        W20046  24.626   2.210  30.626  0.3082  0.0456  0.0010
15647W        W20047  18.412   3.475  15.513  0.2718 -0.2974 -0.4530
15648W        W20048  16.410   2.514  23.296 -0.0249 -0.0320 -0.2112
15649W        W20049  20.619   5.063  23.789  0.0501 -0.1088 -0.1685
15650W        W20050  10.656   3.816  24.295 -0.1112  0.1627  0.1734
15651W        W20051  15.249   2.040   1.364 -0.0345 -0.1010 -0.0655
15652W        W20052  10.304   0.524   9.457  0.3407 -0.1127 -0.2432
15653W        W20053   6.967   7.652   7.721  0.1423  0.0113 -0.1107
15654W        W20054  11.642   3.609  30.801  0.1259  0.1773  0.0177
15655W        W20055  22.303   5.130   5.646  0.5166 -0.0848 -0.3139
15656W        W20056  24.367   6.681   4.808 -0.0125  0.0819  0.2056
15657W        W20057  13.011   1.262  22.546 -0.2648  0.1142 -0.2148
15658W        W20058  23.545   3.649  24.411 -0.0349 -0.1668  0.5204
15659W        W20059  18.156   2.761  13.277  0.2647 -0.3050 -0.1941
15660W        W20060   1.983   1.858  29.627  0.0616  0.1891  0.0318
15661W        W20061  23.599   3.472  31.773  0.1710 -0.0597  0.0715
15662W        W20062  11.510   7.860   8.681  0.0692 -0.0444  0.1728
15663W        W20063   7.131   7.037   6.952  0.2968 -0.1353  0.2867
15664W        W20064   1.022   3.798   7.856  0.2451  0.1482  0.0841
15665W        W20065  20.515   7.155  11.540 -0.2310  0.2380  0.1242
15666W        W20066  18.250   6.687  22.728 -0.0549 -0.0880 -0.0692
15667W        W20067   8.741   6.667  27.772  0.0744 -0.1470  0.1948
15668W        W20068  25.110   1.480  11.463 -0.1204  0.1314  0.0496
15669W        W20069  20.491   2.363  27.675  0.0195  0.1128 -0.2307
15670W        W20070  11.902   4.896  29.734 -0.2084 -0.0895  0.2350
15671W        W20071  14.557   5.019  14.425  0.0362  0.1420  0.0020
15672W        W20072  19.336   0.471   6.360  0.2715 -0.0622 -0.0255
15673W        W20073  10.203   5.896  17.215  0.0302  0.0073  0.4026
15674W        W20074  19.316   4.760  29.767 -0.1496 -0.1747  0.0005
15675W        W20075  13.909   4.226   8.372 -0.1620 -0.4787 -0.1185
15676W        W20076   6.918   4.480  30.581 -0.0489 -0.0085 -0.0632
15677W        W20077  10.784   1.173   6.714  0.0284 -0.3529  0.0792
15678W        W20078   4.357   6.086  25.295  0.0746 -0.0135  0.0971
15679W        W20079   8.703   5.339  21.460 -0.2335  0.1521 -0.0505
15680W        W20080   8.235   3.840  17.601 -0.2893 -0.1588  0.2429
15681W        W20081  11.807   0.582  18.991 -0.1304 -0.2198  0.2565
15682W        W20082  18.603   5.477  13.030 -0.2023 -0.0321 -0.2592
15683W        W20083   6.731   7.372  23.832 -0.1014  0.0066 -0.0565
15684W        W20084  10.824   5.004   4.091 -0.1309  0.2895  0.0932
15685W        W20085   8.089   6.781  26.862 -0.0472 -0.1649 -0.0310
15686W        W20086  15.169   5.580   5.349 -0.2276 -0.2061  0.3588
15687W        W20087  21.101   4.499  22.012  0.2874  0.0135  0.0766
15688W        W20088  25.127   5.874  27.465  0.0845 -0.1607  0.0043
15689W        W20089  19.703   7.709  22.157  0.1153 -0.0073 -0.0069
15690W        W20090   6.811   3.855  15.565 -0.0004  0.4668  0.4334
15691W        W20091  19.418   6.560  24.236  0.1123  0.3592  0.2645
15692W        W20092  19.919   6.133  27.825 -0.0558 -0.0431  0.1692
15693W        W20093  12.436   3.303  22.528  0.0403 -0.2033  0.1670
15694W        W20094   7.346   4.790  21.915 -0.1535 -0.0697 -0.0443
15695W        W20095   4.973   1.947  18.282  0.1018  0.1053  0.2468
15696W        W20096   0.162   4.623  29.205 -0.0530  0.1888 -0.0246
15697W        W20097   9.417   2.124  24.878  0.1186 -0.1473 -0.1031
15698W        W20098  19.353   3.168  28.896 -0.4219  0.2366  0.0120
15699W        W20099   6.156   3.014  16.486  0.3338 -0.0457  0.1556
15700W        W20100   0.631   1.849  30.416 -0.0415 -0.2593 -0.0771
15701W        W20101  21.319   3.425  11.693 -0.1194 -0.2325 -0.1401
15702W        W20102  18.350   1.989  15.012  0.1489 -0.0192  0.0515
15703W        W20103  23.227   2.064  12.885  0.1270 -0.1875 -0.2153
15704W        W20104  24.403   6.814   3.379  0.2082 -0.0867  0.0403
15705W        W20105  15.497   0.520  13.162  0.2101  0.1357  0.0077
15706W        W20106   1.133   4.206  11.867 -0.0878  0.1653 -0.3569
15707W        W20107   8.501   4.079  29.869 -0.0592  0.0548 -0.1459
15708W        W20108   8.697   1.680   9.033  0.0713  0.1387  0.2306
15709W        W20109   8.965   0.476  22.595  0.2815  0.4268  0.0144
15710W        W20110  13.973   6.921  10.219  0.0026 -0.1556  0.2506
15711W        W20111   4.133   5.260  10.565  0.1867  0.2312 -0.1325
15712W        W20112   8.781   1.343   9.935 -0.0405  0.2415 -0.3024
15713W        W20113  20.134   5.871   3.467 -0.0726  0.2808  0.2380
15714W        W20114   7.987   2.475  27.281  0.1346 -0.0808 -0.3176
15715W        W20115  22.345   5.183  29.449 -0.1662  0.2653 -0.0077
15716W        W20116  13.967   3.071  14.273 -0.2402  0.1418  0.1431
15717W        W20117   7.756   6.453   4.419  0.1245 -0.5182 -0.0952
15718W        W20118   2.014   2.909  30.537  0.1968 -0.2529 -0.1272
15719W        W20119  15.089   1.201  12.177 -0.1794  0.1507 -0.2457
15720W        W20120  18.667   2.576   9.639  0.1550  0.0096  0.0331
15721W        W20121  17.378   0.714  17.132  0.1951 -0.0505  0.4078
15722W        W20122  14.206   5.029  25.610  0.2498 -0.1440  0.5022
15723W        W20123  18.242   2.279  26.520 -0.0700 -0.0289 -0.0841
15724W        W20124  20.154   7.503  16.098  0.1152  0.1157 -0.3633
15725W        W20125   7.057   0.443   0.094  0.0256 -0.4083 -0.1152
15726W        W20126   2.193   4.332   2.299 -0.0826  0.2213 -0.0810
15727W        W20127   0.974   3.909  12.531 -0.2196  0.2172 -0.1741
15728W        W20128  22.062   4.099  31.518 -0.0522 -0.2347  0.2121
15729W        W20129  16.135   7.310  11.270  0.2310  0.1000  0.1084
15730W        W20130  22.226   1.660  11.452 -0.0980 -0.0687  0.4200
15731W        W20131  17.469   4.065  25.618 -0.0534 -0.0153  0.1800
15732W        W20132  21.171   6.530   7.197 -0.3385 -0.1020  0.2235
15733W        W20133  11.269   6.363   8.753 -0.4392  0.1271 -0.1190
15734W        W20134  13.021   4.059  23.761 -0.0668  0.2306  0.0209
15735W        W20135  12.626   0.920   8.849  0.0257  0.1161  0.0062
15736W        W20136  23.815   3.221  14.358  0.2198 -0.0258  0.3284
15737W        W20137  21.131   5.033  22.871  0.1537  0.0435 -0.1521
15738W        W20138   8.513   0.963  25.029 -0.2377 -0.1271 -0.0216
15739W        W20139  13.331   3.170   8.898 -0.0779  0.0463 -0.2349
15740W        W20140  23.329   3.830  22.610  0.0658  0.0588 -0.1967
15741W        W20141  24.055   1.825  25.430  0.1266  0.0048  0.1696
15742W        W20142   0.538   5.883   5.206 -0.2249 -0.0124  0.2279
15743W        W20143  16.159   6.141   5.283  0.2490  0.1277 -0.0215
15744W        W20144  24.777   2.696  30.376 -0.0978  0.0871 -0.1590
15745W        W20145  16.527   6.354  11.646  0.0583  0.0417 -0.0587
15746W        W20146  16.552   1.790   7.927 -0.1480  0.1861  0.0167
15747W        W20147  21.182   3.927  28.854  0.0734  0.1738  0.0007
15748W        W20148  12.178   4.284   2.525  0.1223 -0.2948  0.0973
15749W        W20149   4.328   1.340   5.121 -0.0718 -0.0763 -0.1084
15750W        W20150  19.167   0.585   8.829 -0.0643 -0.1476 -0.1789
15751W        W20151   5.264   1.300  21.518  0.0201  0.0892 -0.1589
15752W        W20152  11.304   6.765   8.418  0.0471 -0.3126  0.2260
15753W        W20153  13.105   1.020   3.847 -0.0220 -0.0812  0.0083
15754W        W20154  21.073   1.094  10.839  0.1633  0.0128  0.2443
15755W        W20155  11.322   1.049   6.665 -0.1040  0.0694 -0.0390
15756W        W20156  19.855   3.607  12.702  0.1107  0.0217 -0.0844
15757W        W20157  21.859   0.749  10.533 -0.1841  0.2575  0.1402
15758W        W20158  10.226   2.056   6.485 -0.0011 -0.1777 -0.4278
15759W        W20159  15.904   1.801  22.100  0.0270 -0.0366 -0.2609
15760W        W20160  12.067   0.364  25.744 -0.4307 -0.0736  0.0183
15761W        W20161  13.947   2.205  29.166  0.2528 -0.1027  0.0215
15762W        W20162   6.000   2.627   8.583  0.1269  0.1016 -0.0617
15763W        W20163   0.548   1.348   9.854  0.1786 -0.0585  0.0994
15764W        W20164  24.881   4.750   1.143  0.2179 -0.1398  0.1141
15765W        W20165   7.492   7.336   0.342  0.0902 -0.0957 -0.2204
15766W        W20166  21.623   3.642   4.177  0.3354 -0.1294 -0.1475
15767W        W20167  13.848   1.102  26.624  0.3140  0.0484  0.1550
15768W        W20168  12.789   5.837  27.448  0.1192 -0.1117 -0.2466
15769W        W20169  16.855   4.413  22.693  0.3378 -0.0076  0.4181
15770W        W20170  10.081   5.990  18.776  0.0214 -0.1995  0.2171
15771W        W20171  11.362   2.842  19.060 -0.2044  0.0150  0.1651
15772W        W20172   3.611   3.104  17.287 -0.2614  0.3705 -0.1938
15773W        W20173  23.741   1.942  29.693 -0.0125 -0.1548 -0.2445
15774W        W20174  13.063   0.893  29.387  0.2883  0.1847 -0.1666
15775W        W20175  19.844   2.285  13.086 -0.1390 -0.1431 -0.0549
15776W        W20176  23.460   4.387  10.154 -0.3138 -0.4306 -0.0784
15777W        W20177  11.670   6.491   2.053 -0.2201  0.0203  0.0645
15778W        W20178   2.320   4.433  27.101 -0.0620 -0.0165 -0.0606
15779W        W20179  13.699   1.180  21.833 -0.1064 -0.1277  0.1155
15780W        W20180   9.428   6.334  19.823 -0.1042  0.2724  0.0732
15781W        W20181  23.646   6.008   7.738 -0.1040  0.0526 -0.0609
15782W        W20182  16.006   3.755  13.143 -0.1496  0.0428 -0.0712
15783W        W20183  16.625   7.026  26.434  0.0556  0.4033  0.2064
15784W        W20184  14.090   0.348  21.014  0.0264 -0.0364  0.1377
15785W        W20185  22.963   2.487  13.546  0.3974 -0.0194  0.1264
15786W        W20186  24.081   3.597   0.513 -0.0237 -0.1304  0.1132
15787W        W20187  12.427   4.488   4.014  0.0855  0.5013 -0.0085
15788W        W20188   9.904   2.631  20.391  0.0587 -0.3217  0.4245
15789W        W20189  23.246   3.655  14.306 -0.0511 -0.0493 -0.0670
15790W        W20190   4.440   6.888   2.958 -0.2237 -0.4263 -0.0664
15791W        W20191  18.670   2.892  14.043 -0.0497 -0.1005 -0.0318
15792W        W20192   2.577   3.180  24.577 -0.1075 -0.2349  0.0080
15793W        W20193   4.031   1.346  28.211  0.2504 -0.0945  0.1366
15794W        W20194  16.144   5.507  30.516  0.0853 -0.0845 -0.0807
15795W        W20195   7.387   2.169   7.098 -0.1172  0.0200 -0.0142
15796W        W20196   9.913   2.201   0.898  0.3043 -0.4623 -0.1293
15797W        W20197  16.448   6.873  23.863  0.0623 -0.1252  0.2057
15798W        W20198  25.085   1.098   2.786  0.0614  0.1853  0.0108
15799W        W20199   5.241   5.813   3.631 -0.0364 -0.0695 -0.1890
15800W        W20200   1.267   4.645   0.084  0.2772  0.0364 -0.1016
15801W        W20201   4.872   5.068   3.606 -0.1246  0.0927 -0.0046
15802W        W20202  21.119   1.326  28.824 -0.0939  0.0890 -0.1886
15803W        W20203  17.977   4.948  10.531  0.1733 -0.0132 -0.1400
15804W        W20204  18.389   4.146  22.485 -0.1355 -0.1736  0.1371
15805W        W20205  16.343   5.763   7.484  0.1218  0.0831  0.1128
15806W        W20206   6.142   6.866  31.841 -0.1227  0.2182 -0.1531
15807W        W20207  12.735   3.902   2.305 -0.2332 -0.1260 -0.1328
15808W        W20208   2.029   2.516  28.257 -0.2702 -0.2778 -0.1180
15809W        W20209  17.534   6.478  17.836 -0.3109  0.1455  0.1030
15810W        W20210  15.970   2.120  15.919 -0.0130  0.0474  0.1643
15811W        W20211  16.844   7.470  13.030 -0.1130  0.0009  0.1352
15812W        W20212  15.812   6.521  30.899  0.1471  0.0865  0.1645
15813W        W20213   1.969   0.126   7.192 -0.2492  0.1466  0.1947
15814W        W20214   3.464   0.735   5.235  0.2067  0.0494 -0.0731
15815W        W20215   0.915   4.861   2.488 -0.0759 -0.0032  0.0486
15816W        W20216  21.533   3.517   5.671 -0.1324 -0.0938  0.0864
15817W        W20217   7.956   4.333   8.121  0.1000  0.1410 -0.2136
15818W        W20218  13.174   0.399  23.265 -0.0489 -0.5455  0.1651
15819W        W20219  19.638   5.146  14.067  0.0121 -0.2159 -0.0417
15820W        W20220  19.630   4.788   5.942  0.3302 -0.0542  0.2109
15821W        W20221  25.108   4.580  24.615 -0.1190  0.1787  0.1037
15822W        W20222  12.485   5.305  31.625 -0.0801  0.1294 -0.0624
15823W        W20223   3.385   1.956   7.562 -0.0807 -0.1838 -0.0178
15824W        W20224  23.048   7.787   5.419  0.1381  0.1740  0.1104
15825W        W20225   6.655   0.780   9.159 -0.1032  0.1030 -0.1668
15826W        W20226  18.518   6.333  14.748  0.0845  0.3601  0.2810
15827W        W20227  23.654   1.265  22.434  0.0081 -0.4831  0.0180
15828W        W20228  16.611   0.835  12.517 -0.0121  0.0057  0.0457
15829W        W20229   2.760   5.549   9.781 -0.3386 -0.3088 -0.4449
15830W        W20230  25.085   4.918  10.269  0.0177 -0.1545  0.1027
15831W        W20231  12.049   0.860  10.057 -0.0430  0.2192 -0.1095
15832W        W20232  23.980   5.189  13.220  0.0549  0.2164 -0.0149
15833W        W20233   1.098   5.329  22.423 -0.0497  0.1400  0.0706
15834W        W20234  15.642   3.565   3.378  0.0476  0.0101  0.1252
15835W        W20235  10.870   1.501   1.310 -0.0849 -0.0730  0.1965
15836W        W20236  25.151   4.017   1.581 -0.3718 -0.2689 -0.0738
15837W        W20237  18.136   5.382   2.880 -0.1326  0.0283 -0.3013
15838W        W20238  24.035   1.989   9.944  0.1564  0.0529 -0.2239
15839W        W20239   0.402   7.018  10.240 -0.2594 -0.0221 -0.2133
15840W        W20240  18.400   1.130  11.549 -0.3365 -0.1295 -0.0994
15841W        W20241   2.545   1.749   0.544  0.0696  0.1384  0.1619
15842W        W20242  10.426   6.613   8.510  0.0891 -0.1702 -0.1928
15843W        W20243  17.750   6.441  23.346 -0.2952 -0.4735 -0.0704
15844W        W20244   3.089   6.299   5.884 -0.1780  0.2036  0.1828
15845W        W20245   9.934   3.842   7.408 -0.0393  0.1910  0.0063
15846W        W20246   3.533   1.738  10.158 -0.4238 -0.0148 -0.0157
15847W        W20247  11.870   6.216   7.848 -0.0218  0.0601  0.0548
15848W        W20248  18.312   4.103   5.705 -0.2075  0.0913 -0.2220
15849W        W20249   2.129   1.495  27.334 -0.3969  0.2087  0.2661
15850W        W20250   0.701   6.831  25.368 -0.1186  0.3397 -0.1239
15851W        W20251  24.027   1.441  11.781  0.2617  0.0007  0.1390
15852W        W20252   5.250   4.575   5.336 -0.0560 -0.0885 -0.3325
15853W        W20253  11.216   0.819  23.735  0.0960  0.5006  0.1471
15854W        W20254  13.921   5.292  24.262 -0.1379 -0.0224  0.0819
15855W        W20255  11.116   7.857  10.770  0.0022 -0.1824  0.2543
15856W        W20256  18.827   7.389  18.291  0.0095 -0.0053 -0.1763
15857W        W20257  13.410   5.505  19.867 -0.0066  0.3523  0.0002
15858W        W20258   6.740   0.154   5.492 -0.0188  0.0186  0.0468
15859W        W20259  21.228   4.013  13.438 -0.0156 -0.2701  0.1525
15860W        W20260  21.365   1.398  14.577 -0.0464  0.4299  0.1167
15861W        W20261  13.060   5.583  24.983  0.2105  0.4419 -0.2274
15862W        W20262   1.855   6.190  29.754 -0.2307 -0.1536 -0.0096
15863W        W20263  13.912   5.948  24.442  0.1856  0.1994  0.2649
15864W        W20264  17.518   6.926   7.262 -0.2700  0.0764  0.1778
15865W        W20265   4.013   3.384  26.218 -0.2356  0.0435  0.0106
15866W        W20266  18.884   6.665  31.740  0.0926  0.0501  0.1282
15867W        W20267   0.508   4.051   3.609 -0.0355  0.1514  0.0097
15868W        W20268  16.163   5.771   4.991 -0.0501 -0.1403 -0.0258
15869W        W20269  20.645   0.592   0.071  0.0410 -0.0324  0.0155
15870W        W20270  10.644   5.343  22.305 -0.0343  0.0130 -0.0077
15871W        W20271   8.396   0.411   8.603  0.3101 -0.1089 -0.0103
15872W        W20272   0.320   4.233   0.239  0.1766 -0.3191 -0.0621
15873W        W20273   7.896   1.145  30.968  0.0922 -0.2200 -0.3320
15874W        W20274   4.368   2.219  26.495 -0.0465  0.0576  0.0298
15875W        W20275  17.485   2.957  30.975  0.0107 -0.0048  0.2063
15876W        W20276  21.753   2.767  11.042  0.0560 -0.0141 -0.1057
15877W        W20277   4.419   3.349  31.775  0.1051  0.3094 -0.0185
15878W        W20278  16.049   0.193  31.821 -0.2219 -0.0122  0.0099
15879W        W20279  15.904   0.293  32.301  0.2389  0.2180  0.2378
15880W        W20280   1.475   1.852  10.421  0.1270 -0.1222 -0.0041
15881W        W20281  17.989   4.309  12.796 -0.2404  0.2411  0.1302
15882W        W20282  14.118   6.820   4.838  0.0843 -0.1995  0.1459
15883W        W20283  17.188   7.214  29.149  0.3633  0.0854  0.1322
15884W        W20284  15.003   0.164   2.689 -0.0261  0.2007 -0.2075
15885W        W20285  20.728   6.813  15.873  0.0386 -0.1595  0.0737
15886W        W20286   3.884   2.779   5.040  0.0261 -0.0402  0.3224
15887W        W20287  19.068   1.097  22.622  0.2818  0.0431 -0.2383
15888W        W20288  20.755   1.276  26.468  0.1434 -0.2242  0.3980
15889W        W20289  21.009   2.527   6.615 -0.0573 -0.0085  0.1491
15890W        W20290  17.667   7.059  25.671 -0.1900  0.0780 -0.2319
15891W        W20291  16.202   3.486  12.289 -0.0540  0.0517  0.2067
15892W        W20292   1.819   3.145   3.678  0.2125 -0.3763  0.3325
15893W        W20293   2.818   7.418   1.022 -0.0647  0.0228 -0.4513
15894W        W20294   2.725   3.592   5.940 -0.0852  0.3177 -0.1061
15895W        W20295   1.044   6.794  21.468 -0.1435  0.1406 -0.0004
15896W        W20296  19.147   6.130   5.725  0.0372 -0.0189  0.1316
15897W        W20297  13.150   7.593   2.196  0.0372 -0.2136 -0.3235
15898W        W20298  20.245   5.657  14.668  0.0478  0.0762  0.0312
15899W        W20299  21.952   0.473  21.926  0.0945 -0.2263  0.3474
15900W        W20300  14.213   6.983   9.211  0.2146 -0.0464  0.4291
15901W        W20301  15.636   5.547  31.237  0.1497 -0.1533  0.0042
15902W        W20302  14.213   7.531   0.788  0.3067 -0.1348 -0.0476
15903W        W20303  10.974   4.881   8.611 -0.1560 -0.3452  0.0334
15904W        W20304  16.314   4.868  25.631  0.2947  0.0276 -0.2596
15905W        W20305   5.724   2.154   5.531  0.1173 -0.1967  0.0377
15906W        W20306  13.750   4.382  10.389 -0.1821 -0.0008  0.3003
15907W        W20307  13.306   3.986   7.012 -0.2837 -0.2177  0.3394
15908W        W20308  24.537   5.145  10.670 -0.0339  0.0749  0.0568
15909W        W20309  18.006   6.003   4.587 -0.0107  0.0211 -0.0811
15910W        W20310  18.109   2.122  24.370  0.0568  0.0209  0.0228
15911W        W20311   1.884   7.680   4.989  0.0654 -0.0517 -0.1387
15912W        W20312   5.100   1.923  26.923 -0.2615 -0.0738 -0.0641
15913W        W20313  13.521   3.630   5.732 -0.2108  0.0541  0.0432
15914W        W20314   7.722   0.386  29.402  0.3312  0.0984  0.2992
15915W        W20315   7.323   6.057  19.430  0.3548  0.1380 -0.2181
15916W        W20316  15.006   4.856   9.323  0.1117 -0.0461 -0.2195
15917W        W20317   6.297   4.915   5.706  0.5195  0.1856 -0.1958
15918W        W20318   3.296   5.778  32.148  0.1163 -0.1805 -0.0071
15919W        W20319  11.052   5.319   2.702 -0.0878  0.1409 -0.0780
15920W        W20320  14.862   2.062  11.041  0.0638 -0.0627  0.0262
15921W        W20321   9.147   5.157  32.357 -0.1118 -0.0238 -0.2077
15922W        W20322  23.986   1.524  13.924 -0.0636 -0.1149 -0.1421
15923W        W20323  13.795   4.990  23.312 -0.1934 -0.1403 -0.0061
15924W        W20324  16.653   5.269  25.872 -0.1450  0.1830  0.1657
15925W        W20325  15.238   4.937  23.288  0.0352  0.2827  0.1504
15926W        W20326  22.880   0.090   2.721 -0.4705  0.3456  0.1069
15927W        W20327  18.613   7.726   5.431  0.0930  0.0604  0.1163
15928W        W20328   4.676   4.666  18.925  0.1521 -0.0358  0.1600
15929W        W20329  21.489   5.622  29.649  0.0377  0.4017  0.2470
15930W        W20330  14.165   5.145  26.163 -0.0706  0.1635 -0.3429
15931W        W20331  16.913   7.033  29.557 -0.0752 -0.3323  0.0852
15932W        W20332  12.897   1.440  10.414  0.1650 -0.1967 -0.1226
15933W        W20333  22.167   1.941  12.765 -0.0665  0.4001 -0.0245
15934W        W20334   7.683   5.932  24.857 -0.1126  0.0789  0.1024
15935W        W20335  23.372   7.856  13.669 -0.3882  0.1864  0.3731
15936W        W20336   1.438   1.387  26.589 -0.0287 -0.1813  0.2069
15937W        W20337  16.575   6.197   4.294  0.2131  0.0776  0.0892
15938W        W20338   1.379   2.928  26.038  0.0037 -0.2320 -0.2137
15939W        W20339  10.132   3.620  31.334  0.0507 -0.2535 -0.1145
15940W        W20340   7.580   2.965   1.812  0.1843 -0.2531  0.1346
15941W        W20341  19.898   1.112  28.182  0.1903  0.0828  0.0312
15942W        W20342  10.701   6.536  29.064 -0.2831 -0.2032  0.2050
15943W        W20343  16.303   7.007  10.551 -0.0978 -0.1845  0.0943
15944W        W20344   1.364   7.114  29.469 -0.0583 -0.2146  0.4258
15945W        W20345  10.961   3.089  18.910  0.1325 -0.2274  0.0874
15946W        W20346  12.851   3.334  32.263 -0.0179  0.0276  0.0749
15947W        W20347  18.945   0.079  30.335  0.1251  0.0959 -0.3111
15948W        W20348  14.624   5.504  10.427  0.0062 -0.2567 -0.0580
15949W        W20349  16.977   6.802   3.842  0.0550 -0.1447  0.2444
15950W        W20350  24.744   7.257  27.969  0.0902 -0.3620 -0.1668
15951W        W20351  22.265   4.221  21.584  0.1126  0.0193  0.0161
15952W        W20352  22.159   4.858  13.139  0.1248  0.0255 -0.0521
15953W        W20353  21.764   5.885  26.466  0.0536  0.1639  0.1265
15954W        W20354   3.429   1.885   1.606  0.1198  0.0142  0.2872
15955W        W20355  11.081   5.529  16.689  0.0915 -0.0214  0.0554
15956W        W20356  23.696   2.702  22.657  0.1125  0.1759 -0.2647
15957W        W20357   3.312   4.388  26.572  0.1855  0.0461  0.0401
15958W        W20358  18.973   4.705  26.448  0.0279 -0.1900  0.0068
15959W        W20359  15.622   1.848  32.183 -0.0487 -0.2150 -0.0931
15960W        W20360  21.783   5.350   6.860  0.1662 -0.0611  0.2197
15961W        W20361   9.430   1.174  32.008 -0.0842 -0.0497  0.3888
15962W        W20362   5.644   4.948   4.232  0.2988 -0.0029 -0.0170
15963W        W20363  21.592   5.810  26.967 -0.2761  0.1348 -0.0527
15964W        W20364  11.878   3.030   7.459 -0.0037 -0.2141 -0.1202
15965W        W20365  11.012   1.324  23.992 -0.0117 -0.0399 -0.1441
15966W        W20366  22.842   1.315  22.961  0.1681 -0.0344  0.0412
15967W        W20367  19.678   3.557  27.804 -0.0638  0.0692 -0.2064
15968W        W20368   0.760   1.233   1.908 -0.0114  0.1284 -0.0923
15969W        W20369  10.766   4.812  32.316 -0.3238 -0.0047 -0.1378
15970W        W20370  11.062   7.600  25.614  0.3007 -0.0819 -0.0408
15971W        W20371   3.033   4.965   7.607  0.0464  0.0563 -0.2537
15972W        W20372   9.886   2.367   8.910  0.3486  0.3349 -0.1239
15973W        W20373  18.306   4.543  28.568  0.0492 -0.0777  0.2699
15974W        W20374   7.874   3.259  28.409  0.1715 -0.0444 -0.1770
15975W        W20375   5.108   5.913  16.798  0.2678  0.0156 -0.1562
15976W        W20376   1.565   4.427  25.270 -0.0912  0.1771 -0.2439
15977W        W20377  20.576   5.020  31.399  0.3449 -0.0612 -0.1214
15978W        W20378  22.899   6.668  28.771 -0.0561  0.2055 -0.0102
15979W        W20379   4.591   3.031  31.173 -0.3220  0.2479 -0.1400
15980W        W20380  22.105   1.845  30.322 -0.2477 -0.1197  0.1158
15981W        W20381  16.960   2.364  13.962 -0.2344  0.0672 -0.2619
15982W        W20382  15.660   5.464  13.027 -0.0760 -0.1631  0.0607
15983W        W20383  10.312   4.251  24.288  0.0661  0.1302 -0.0276
15984W        W20384  10.433   7.523  24.010  0.2509 -0.1183  0.1681
15985W        W20385   6.854   5.739   7.909 -0.1349  0.0098 -0.1304
15986W        W20386   1.374   5.403   5.944 -0.0337  0.0025 -0.0652
15987W        W20387   8.957   7.213   7.574 -0.1093 -0.2095 -0.1128
15988W        W20388   8.354   1.040  18.194  0.0009 -0.2731 -0.1950
15989W        W20389  24.341   0.944   1.712 -0.0514 -0.3882  0.2609
15990W        W20390   9.591   5.918   2.922 -0.1319  0.0385  0.0731
15991W        W20391  21.140   7.448   7.354 -0.0395 -0.2970  0.2219
15992W        W20392  21.393   2.000  14.604 -0.1852  0.0693  0.0381
15993W        W20393   0.198   1.428   0.400  0.0853 -0.3102  0.2987
15994W        W20394   3.133   3.210  16.050 -0.2580 -0.1289 -0.2328
15995W        W20395  14.951   5.431  23.582 -0.0364  0.0540  0.2701
15996W        W20396  22.272   1.360   8.344  0.1932  0.0649  0.2321
15997W        W20397  19.064   4.385  32.033  0.0191  0.0842  0.0239
15998W        W20398   2.785   2.019  20.594 -0.0579 -0.0049  0.0945
15999W        W20399  24.834   1.884  22.238  0.2418  0.0512 -0.3649
16000W        W20400  19.473   4.397   5.096  0.1085 -0.0250  0.1334
16001W        W20401  23.565   5.188  26.852  0.0248  0.0536  0.2341
16002W        W20402  16.385   2.347  28.247 -0.1027 -0.0396 -0.0433
16003W        W20403  19.654   0.687  12.539 -0.1292 -0.0735 -0.0041
16004W        W20404  10.297   7.409  17.519 -0.0150 -0.1930  0.1851
16005W        W20405  10.223   2.227  15.951  0.0098 -0.2393 -0.1138
16006W        W20406  20.424   0.705  28.564 -0.0771 -0.3310 -0.2069
16007W        W20407  14.343   1.879  11.748  0.1023  0.0703 -0.2113
16008W        W20408   7.699   4.357   9.816  0.0073 -0.0994 -0.1084
16009W        W20409   9.432   0.884  19.225  0.0274 -0.1641 -0.4653
16010W        W20410  18.037   7.190   3.496  0.1014  0.1966  0.0695
16011W        W20411  21.016   6.034  32.580  0.0861 -0.2998  0.0401
16012W        W20412   8.458   6.201  30.975 -0.0044 -0.0189  0.1980
16013W        W20413  24.624   6.923  11.364 -0.0978 -0.0118 -0.1837
16014W        W20414  20.649   4.300  23.482  0.0959 -0.1210 -0.1783
16015W        W20415   3.006   1.899  30.289 -0.2120  0.1569  0.3257
16016W        W20416  19.008   6.568  13.940 -0.2285 -0.1199 -0.2954
16017W        W20417  11.439   2.591   1.816 -0.1883  0.0804 -0.0990
16018W        W20418   8.511   0.250  27.000  0.3526  0.1362  0.0462
16019W        W20419  18.286   3.227   1.809 -0.4695  0.0623  0.0717
16020W        W20420  18.130   3.212  13.119  0.0800 -0.2049 -0.0003
16021W        W20421  17.684   1.437   8.289 -0.0857  0.0846 -0.0084
16022W        W20422  18.247   3.120  26.352  0.0524  0.2042  0.2274
16023W        W20423  23.809   5.179   4.658 -0.1034 -0.3414  0.0295
16024W        W20424  10.649   4.505  31.474  0.1537 -0.1307 -0.1786
16025W        W20425  21.690   2.259   1.443 -0.1266  0.1581  0.0638
16026W        W20426  15.167   6.390   7.921  0.0842  0.1454  0.0133
16027W        W20427   2.674   4.472   3.914  0.0572  0.0318  0.5020
16028W        W20428  21.605   2.493   1.000  0.1242 -0.0223 -0.0255
16029W        W20429  21.533   2.913  14.107  0.2693  0.2576  0.2544
16030W        W20430   0.855   3.105  20.587  0.3617 -0.1163 -0.0952
16031W        W20431  17.620   1.132  11.436  0.0372  0.0611  0.2792
16032W        W20432  12.403   6.124  25.012  0.0376  0.1112  0.0882
16033W        W20433  21.052   0.895  29.745  0.1120  0.0508 -0.1855
16034W        W20434  21.918   3.111  13.344  0.0601  0.0508  0.1311
16035W        W20435   3.198   5.283  31.814  0.0598 -0.0933  0.1147
16036W        W20436  10.173   2.225  25.697  0.1489  0.0273  0.0487
16037W        W20437   4.149   6.086  31.586  0.5039  0.0727 -0.3632
16038W        W20438   1.613   5.955   0.678 -0.0364 -0.0776  0.0758
16039W        W20439   3.603   5.933   5.024  0.0796 -0.2115  0.0226
16040W        W20440   1.707   0.347  12.100  0.0983 -0.2040 -0.0330
16041W        W20441   3.544   5.896  21.463  0.0866  0.0505  0.1431
16042W        W20442  24.106   1.750  31.528  0.1880 -0.1222  0.2175
16043W        W20443   5.076   7.849  20.145 -0.0134 -0.1299 -0.0011
16044W        W20444   1.516   4.192  11.579 -0.1536 -0.0715  0.1061
16045W        W20445  20.646   6.860  11.964  0.2035  0.0990 -0.1109
16046W        W20446  23.781   5.582  24.781  0.0843  0.0964 -0.2172
16047W        W20447   7.978   0.667   5.625  0.2327  0.3758  0.1298
16048W        W20448   6.951   4.383  31.709 -0.0961  0.0869 -0.0766
16049W        W20449   4.331   3.861  23.125 -0.0951 -0.0196  0.1074
16050W        W20450   8.655   0.766  31.975  0.4124 -0.3198 -0.1458
16051W        W20451   7.300   2.284  23.254 -0.1060  0.3967 -0.1805
16052W        W20452   3.633   3.944  18.426 -0.0882 -0.3304 -0.2146
16053W        W20453   1.025   2.252   5.674  0.1126  0.0183 -0.1525
16054W        W20454   5.842   5.412  18.998 -0.0309 -0.0386  0.2304
16055W        W20455  13.349   6.934  26.027 -0.1565  0.2070 -0.0488
16056W        W20456  23.834   2.598   5.162  0.4449  0.0418  0.1515
16057W        W20457   8.925   2.518  28.938  0.1076  0.1947  0.2465
16058W        W20458  13.816   6.494  21.573  0.2232  0.0316 -0.1169
16059W        W20459  14.535   6.320  13.240 -0.1404 -0.0924 -0.0766
16060W        W20460  12.397   7.245  20.525 -0.0519 -0.0917 -0.2258
16061W        W20461  18.524   1.409  15.525  0.2910 -0.0451 -0.1998
16062W        W20462  18.130   7.085   1.676  0.3860  0.5149 -0.1402
16063W        W20463  10.772   2.169   3.757  0.1618 -0.4873 -0.0461
16064W        W20464   5.840   1.737  22.338  0.1513 -0.1673  0.1110
16065W        W20465   1.114   7.735  24.251 -0.3125 -0.1146  0.1423
16066W        W20466  20.585   6.420  16.677  0.1250  0.1497 -0.1363
16067W        W20467  12.468   2.020  23.131  0.3365 -0.0123 -0.2109
16068W        W20468   2.191   6.189  21.563 -0.0120 -0.0724  0.0482
16069W        W20469   3.277   6.569  20.895 -0.0988 -0.3134 -0.1716
16070W        W20470   9.391   4.449  22.594 -0.2819  0.0612 -0.3191
16071W        W20471  14.612   2.502   8.924 -0.0421 -0.1862  0.2612
16072W        W20472   8.392   5.853  15.358 -0.1472 -0.2177  0.2645
16073W        W20473  22.502   6.301  23.760 -0.1879 -0.1293 -0.0572
16074W        W20474  10.839   4.187  20.889  0.0221  0.2307 -0.0980
16075W        W20475  23.388   1.352   9.740 -0.0711 -0.2051  0.0184
16076W        W20476   1.812   1.892  22.248  0.1137 -0.5410 -0.1784
16077W        W20477  15.282   4.750  31.528 -0.0187 -0.0170  0.0836
16078W        W20478   7.356   4.360  10.389  0.0864  0.2913  0.3255
16079W        W20479   0.045   2.686  25.675 -0.0165 -0.0514 -0.0054
16080W        W20480  11.956   1.398  27.122 -0.0837  0.2816  0.1592
16081W        W20481  20.970   5.124   1.621 -0.0142  0.2547  0.0490
16082W        W20482  24.700   0.302  26.579 -0.1500  0.1427  0.1464
16083W        W20483   6.418   4.499  31.745 -0.0555  0.1244 -0.0084
16084W        W20484  11.427   2.408   5.308  0.1419 -0.1062  0.0800
16085W        W20485  10.233   1.446  21.310  0.1450 -0.0304 -0.3194
16086W        W20486   4.132   5.007  22.982  0.3656 -0.1767 -0.0703
16087W        W20487   5.728   3.707  14.681 -0.0074  0.2784  0.1011
16088W        W20488  17.137   4.259   8.282 -0.0207  0.0240  0.0694
16089W        W20489   5.316   6.111   6.886 -0.1702  0.0701 -0.2284
16090W        W20490  10.756   2.157  28.941 -0.1171  0.1054 -0.0208
16091W        W20491  21.403   1.754  23.212  0.0476 -0.3038 -0.1601
16092W        W20492   3.536   7.649   4.506 -0.1268  0.3513  0.0980
16093W        W20493   5.273   3.795  16.766 -0.0841  0.0649  0.5103
16094W        W20494  14.621   5.769   1.409  0.1543  0.2177 -0.1754
16095W        W20495  21.819   3.060  12.852 -0.0463 -0.0914 -0.2198
16096W        W20496  21.728   5.869  27.465 -0.1797 -0.0822  0.1640
16097W        W20497  10.494   4.953   0.173  0.1691  0.5235  0.0792
16098W        W20498  20.360   2.225  27.209  0.1964  0.1590  0.0308
16099W        W20499   6.446   7.107  18.475 -0.0359 -0.0096 -0.0622
16100W        W20500  19.951   1.332  26.948  0.1629  0.1965 -0.1194
16101W        W20501   8.510   4.586   5.437 -0.0359  0.1774 -0.1068
16102W        W20502  10.165   1.398  25.659 -0.1799  0.0483  0.2632
16103W        W20503  19.277   2.698  11.683 -0.4399 -0.0501 -0.0355
16104W        W20504  16.989   3.623  32.546 -0.2077 -0.0183 -0.0205
16105W        W20505   9.489   1.088   5.300 -0.2346 -0.3690 -0.0004
16106W        W20506   1.724   5.976   1.453  0.2945 -0.0028 -0.2402
16107W        W20507  18.822   3.020  10.981  0.2314 -0.3960  0.1272
16108W        W20508   1.802   0.559   1.121  0.0428 -0.3039 -0.0944
16109W        W20509   9.740   7.003  18.496  0.0224 -0.0070 -0.0670
16110W        W20510  12.301   1.794   5.491 -0.2467  0.2428 -0.0788
16111W        W20511  17.620   2.232  11.486  0.0486 -0.0045 -0.2992
16112W        W20512  12.172   5.620   4.961 -0.1352  0.0262 -0.0541
16113W        W20513   0.557   4.286   2.642  0.0905 -0.0605 -0.0453
16114W        W20514  18.109   3.157  22.800 -0.2151 -0.1842  0.0084
16115W        W20515   7.737   5.983  28.714 -0.2347  0.1690  0.0059
16116W        W20516   9.112   1.107   4.887  0.1672  0.1330 -0.0563
16117W        W20517   1.441   3.135   7.298  0.0352  0.0362 -0.0849
16118W        W20518   7.275   4.097   5.334  0.2645 -0.0136 -0.1141
16119W        W20519  13.069   1.801  29.439 -0.1033  0.1701  0.2525
16120W        W20520   4.156   2.431  15.685  0.3080  0.2569 -0.0590
16121W        W20521  10.391   4.434  17.478 -0.0329 -0.1329 -0.3071
16122W        W20522   0.660   1.814  11.246  0.0855  0.1542 -0.3608
16123W        W20523  13.176   3.600   7.414  0.1127 -0.0456 -0.2188
16124W        W20524   9.991   0.850  17.573 -0.0917 -0.1166 -0.2410
16125W        W20525  21.392   6.334  11.171 -0.0072  0.0256  0.1497
16126W        W20526   6.411   5.321  19.283 -0.2719 -0.0653 -0.0739
16127W        W20527  13.079   3.499  30.070 -0.0368 -0.1070  0.0313
16128W        W20528   6.942   4.932   7.308 -0.1543  0.0901  0.3404
16129W        W20529   4.412   5.541  28.096 -0.1764 -0.2964 -0.1275
16130W        W20530  17.455   6.892   3.577 -0.3784 -0.0822 -0.1037
16131W        W20531   1.538   0.190   8.681 -0.0389 -0.0793 -0.1717
16132W        W20532   0.855   3.153  12.020 -0.2161  0.0547 -0.0451
16133W        W20533   5.790   5.441  21.046  0.0604  0.4087 -0.2018
16134W        W20534  14.571   0.485  24.953 -0.2637  0.0039 -0.2750
16135W        W20535  10.986   4.712  31.872 -0.0177  0.1950  0.1022
16136W        W20536  12.502   2.001  24.032  0.2121 -0.0311  0.2038
16137W        W20537  20.191   6.950  23.782 -0.1247  0.0340  0.0077
16138W        W20538   0.575   7.543  11.350 -0.2604 -0.0579 -0.1808
16139W        W20539  21.384   1.399   7.260  0.3387 -0.0508  0.1850
16140W        W20540   5.598   5.807   4.136 -0.3480  0.2704 -0.3844
16141W        W20541   1.850   0.642  28.161 -0.2161  0.0911 -0.1311
16142W        W20542  22.263   5.691  22.284 -0.0061  0.1306  0.0626
16143W        W20543  19.922   4.546  24.943 -0.5340  0.0876  0.1746
16144W        W20544   4.504   3.644   1.050  0.2246  0.2022  0.2598
16145W        W20545  14.497   2.684  24.568 -0.1387  0.2212 -0.2932
16146W        W20546  22.791   3.484   7.491 -0.2229  0.1961 -0.2692
16147W        W20547  11.803   1.824  22.794  0.1124 -0.1408 -0.0664
16148W        W20548  10.146   3.606   3.083  0.0225 -0.0581 -0.0695
16149W        W20549  10.071   3.239  32.069  0.2077 -0.1053 -0.1048
16150W        W20550   9.010   3.853  24.149 -0.2122 -0.0283 -0.2137
16151W        W20551  15.283   1.620  30.527  0.0391  0.3210 -0.0064
16152W        W20552  19.389   2.795   7.324  0.2143  0.0834  0.0265
16153W        W20553  23.967   1.492  23.834 -0.0695 -0.1695  0.0665
16154W        W20554  13.801   7.631  28.686 -0.0008  0.2207 -0.1913
16155W        W20555  15.964   1.410  14.591 -0.0383  0.1616 -0.0798
16156W        W20556  18.295   0.551  29.182  0.0744  0.2457 -0.5195
16157W        W20557   1.178   6.570  21.900 -0.2122  0.4601 -0.0023
16158W        W20558  20.931   1.684  10.732  0.4248 -0.1355  0.1853
16159W        W20559  13.526   1.052  14.238  0.1643  0.1223 -0.0076
16160W        W20560  12.333   0.654  26.646 -0.1377 -0.1273 -0.2377
16161W        W20561   7.560   4.083  25.788  0.0089  0.2567 -0.2241
16162W        W20562  13.492   3.207   0.476  0.0406 -0.0401 -0.0506
16163W        W20563  19.895   0.766  28.657  0.0529 -0.1729  0.0963
16164W        W20564  22.195   4.482  24.474 -0.1551  0.1657 -0.2286
16165W        W20565  10.886   5.375   8.507  0.1802 -0.2376  0.2566
16166W        W20566  15.614   4.983   1.721 -0.1132  0.1972 -0.0063
16167W        W20567   5.979   6.942   4.626  0.0673  0.0046 -0.4386
16168W        W20568  11.054   1.916   7.230 -0.1162  0.0243 -0.3022
16169W        W20569  14.649   2.209   6.857  0.2706 -0.1259 -0.2774
16170W        W20570   5.064   1.238  29.144 -0.0787 -0.3276 -0.4616
16171W        W20571  23.637   0.680  25.068  0.1451  0.0151  0.3857
16172W        W20572  14.982   5.301   9.938  0.1164 -0.1854 -0.0922
16173W        W20573  20.242   4.052  11.257 -0.0608  0.1330 -0.3666
16174W        W20574  18.340   6.541  12.847  0.3110  0.0690 -0.1628
16175W        W20575  20.484   3.415  31.921 -0.3001  0.1573 -0.0039
16176W        W20576  18.921   1.960  14.206 -0.2420  0.2471  0.1601
16177W        W20577   6.377   4.974  31.658  0.0974  0.0640  0.0917
16178W        W20578   7.363   6.152   7.177  0.1546 -0.1516  0.1649
16179W        W20579  15.444   5.527  26.373  0.0222 -0.1339 -0.1518
16180W        W20580  13.757   3.785  14.803  0.0399  0.0335 -0.1672
16181W        W20581  12.994   0.543  25.888  0.1747 -0.0130 -0.1099
16182W        W20582  12.030   2.572  10.076  0.0794 -0.2175 -0.0135
16183W        W20583  23.943   6.121  32.058 -0.1242 -0.0621 -0.2087
16184W        W20584   8.815   6.422  26.131 -0.3888 -0.3083 -0.1442
16185W        W20585  15.026   4.562  13.347 -0.3275 -0.1195 -0.0523
16186W        W20586   3.833   1.710   4.364  0.0002  0.3338  0.1658
16187W        W20587  17.016   0.880   0.620 -0.1014  0.0680  0.0926
16188W        W20588   5.835   2.603  28.664 -0.2149  0.4739 -0.2221
16189W        W20589  20.413   1.183   4.710  0.0668  0.4899 -0.0842
16190W        W20590   0.446   5.160  25.374 -0.0361 -0.0452 -0.2405
16191W        W20591  16.036   6.004  29.587 -0.0601  0.0455  0.0779
16192W        W20592   1.774   0.950   6.406 -0.1261  0.1943 -0.0290
16193W        W20593   9.033   3.850  19.820  0.0544  0.3127 -0.2285
16194W        W20594   6.376   1.901  29.953 -0.0026 -0.1437  0.0517
16195W        W20595  23.155   7.352   0.397  0.3615 -0.1120 -0.0200
16196W        W20596   5.394   3.896  14.378 -0.1771  0.0375 -0.0070
16197W        W20597   6.416   0.972  26.810  0.1069 -0.1987 -0.0886
16198W        W20598  14.573   7.569   3.957  0.2958 -0.4047 -0.1360
16199W        W20599  19.019   1.316  26.701  0.1340  0.1903  0.2655
16200W        W20600  17.700   6.636  15.752  0.0260 -0.0469 -0.0804
16201W        W20601   8.079   2.731   9.536  0.0407 -0.1652  0.0903
16202W        W20602  15.615   6.303  11.565  0.0800  0.2611 -0.0800
16203W        W20603  24.048   3.351  26.374 -0.0530  0.4205 -0.2806
16204W        W20604  13.181   0.260  10.755 -0.2339  0.1065  0.0164
16205W        W20605   4.146   7.795  22.770 -0.2101 -0.0812 -0.0365
16206W        W20606   6.863   6.452  27.193  0.0608  0.0490 -0.0103
16207W        W20607  23.598   5.161  32.567 -0.1418 -0.0897  0.4404
16208W        W20608  24.701   1.485  21.454 -0.1435  0.0786  0.2219
16209W        W20609   1.912   1.841  25.682 -0.0216  0.0764 -0.1283
16210W        W20610   0.540   4.250  12.753  0.1871 -0.0069 -0.1805
16211W        W20611   5.839   1.380   4.387  0.4017 -0.2140 -0.0443
16212W        W20612  22.441   7.576  24.223 -0.1169  0.2614  0.1277
16213W        W20613  19.971   3.389  31.611  0.2990 -0.0808 -0.2778
16214W        W20614   6.590   0.053  24.695  0.4579 -0.0829  0.2590
16215W        W20615   4.191   0.023   9.000  0.4797  0.0950 -0.1094
16216W        W20616  10.782   5.102  27.392 -0.0203  0.1845 -0.0733
16217W        W20617   8.613   5.641  27.827  0.4483 -0.1263 -0.2680
16218W        W20618   2.442   2.662  27.901  0.1923 -0.2543 -0.4409
16219W        W20619  23.792   1.986   3.129  0.1898 -0.0880 -0.1017
16220W        W20620   6.592   2.424  15.912 -0.0061 -0.0364 -0.0905
16221W        W20621  12.084   4.184  20.496  0.0570  0.1654 -0.1659
16222W        W20622   3.864   6.940   9.993  0.0524 -0.1744  0.2009
16223W        W20623  12.115   0.187   6.442 -0.0280  0.0071  0.0378
16224W        W20624  15.299   6.926   9.541  0.1845  0.0593  0.1264
16225W        W20625   4.906   7.029  18.077  0.1919 -0.2434 -0.1358
16226W        W20626  12.117   6.367  30.849 -0.0535 -0.0689 -0.1512
16227W        W20627   4.505   1.811  15.301  0.0785 -0.0803  0.2151
16228W        W20628  14.914   1.241  28.118 -0.0071 -0.1582  0.0189
16229W        W20629  18.121   4.750  14.959  0.0183 -0.1676  0.1399
16230W        W20630   1.835   5.298   8.700 -0.0292  0.2425  0.0804
16231W        W20631  23.588   4.724   9.835  0.2055 -0.0222 -0.2869
16232W        W20632  23.974   1.346  27.572  0.2464 -0.1993 -0.1306
16233W        W20633  23.035   4.531  28.087  0.0877 -0.3293  0.1794
16234W        W20634  15.825   2.828  30.041  0.1687  0.1709 -0.2697
16235W        W20635   7.724   2.204  21.769 -0.0600  0.1566  0.1981
16236W        W20636   3.550   0.932  10.576 -0.2834 -0.0060  0.2123
16237W        W20637  18.951   3.594   1.519  0.1311  0.0460  0.0747
16238W        W20638   6.609   2.713  30.955 -0.0022 -0.0320  0.2982
16239W        W20639   4.339   6.100  21.185  0.3161  0.3009 -0.2325
16240W        W20640   6.952   6.507  22.344  0.0279  0.2107 -0.0534
16241W        W20641   2.411   0.404   0.604  0.0853  0.0095  0.0083
16242W        W20642   8.558   6.826   0.858 -0.1672  0.2891  0.1652
16243W        W20643  23.006   4.418  24.041  0.0483 -0.0055 -0.1545
16244W        W20644   1.926   1.408  30.016 -0.2100 -0.2014 -0.2449
16245W        W20645  23.629   5.841   0.574 -0.0674 -0.0913  0.3243
16246W        W20646  12.735   2.745  27.605 -0.2337 -0.2918  0.0466
16247W        W20647  12.932   0.275  11.820 -0.2708 -0.1815  0.1393
16248W        W20648   7.288   3.789   0.950 -0.0656 -0.0290 -0.2402
16249W        W20649   2.395   4.980  19.244  0.1144 -0.1011 -0.0567
16250W        W20650  24.218   6.915  27.668  0.1078 -0.2726 -0.1152
16251W        W20651   9.712   1.822   8.393 -0.2165 -0.1566 -0.0240
16252W        W20652   2.386   3.579  26.959  0.1248  0.2324  0.2976
16253W        W20653  20.656   2.593  12.267 -0.2252 -0.3607 -0.2440
16254W        W20654  18.265   0.686  16.717 -0.0722 -0.1068  0.1029
16255W        W20655  19.743   4.994  10.356 -0.3028 -0.1242 -0.3045
16256W        W20656   2.482   3.955   2.448 -0.0002  0.3064  0.3344
16257W        W20657  12.798   5.510  22.817 -0.3127  0.3380 -0.0919
16258W        W20658  14.352   5.194  14.935 -0.0475  0.1424 -0.2618
16259W        W20659   9.192   3.726  18.842  0.1121 -0.0788  0.1403
16260W        W20660  17.262   1.604  16.794 -0.2258 -0.0802 -0.1377
16261W        W20661   8.238   0.251  30.934  0.2286 -0.1798  0.0925
16262W        W20662   4.330   4.568  25.911  0.1425 -0.0673 -0.1619
16263W        W20663  24.202   0.048   6.115 -0.3509 -0.0899  0.0538
16264W        W20664  10.986   6.382  28.225 -0.3104 -0.1706 -0.1363
16265W        W20665   1.677   2.275   7.822  0.0376 -0.0747  0.1261
16266W        W20666   0.669   6.388   5.401 -0.1641  0.0807 -0.0277
16267W        W20667   7.910   0.105  15.481  0.1534 -0.2953  0.3790
16268W        W20668   0.002   2.086   8.742 -0.0108  0.0304  0.1482
16269W        W20669  17.146   6.802  14.822  0.4800 -0.0829 -0.2229
16270W        W20670  23.304   2.806  32.222 -0.0327 -0.2244 -0.1118
16271W        W20671   0.616   3.506  23.859  0.0346  0.1688  0.4306
16272W        W20672   5.783   0.749   8.629  0.1913  0.4607 -0.2305
16273W        W20673  13.887   6.001  10.266 -0.0081 -0.1236  0.3771
16274W        W20674  21.500   5.244  27.229 -0.1251 -0.2580 -0.1133
16275W        W20675  15.049   6.379  14.410  0.0781 -0.1072  0.0189
16276W        W20676  16.041   4.200  25.059  0.0793  0.0186  0.3155
16277W        W20677  20.028   0.959   7.022 -0.2011 -0.2721  0.0646
16278W        W20678   3.559   0.645  28.158 -0.0014 -0.2180 -0.2991
16279W        W20679  14.069   4.159  14.647  0.1557  0.1226 -0.1673
16280W        W20680  10.142   5.167  18.482 -0.0030 -0.2476  0.1083
16281W        W20681  21.150   6.560  30.325  0.1259 -0.0418  0.1225
16282W        W20682   6.592   2.976  24.361 -0.0673  0.0583  0.1913
16283W        W20683  11.187   2.633  30.864 -0.2606 -0.1597 -0.1307
16284W        W20684   6.225   0.367  16.730  0.1008 -0.0760 -0.0659
16285W        W20685   0.897   2.426  31.133 -0.1188 -0.1064  0.1764
16286W        W20686   4.701   3.408  28.637  0.0980  0.2982  0.0657
16287W        W20687  22.240   7.608  27.721  0.1720  0.2349  0.0980
16288W        W20688  12.395   2.504   3.014 -0.1409 -0.0089  0.0161
16289W        W20689  20.071   4.986   1.747  0.0048  0.0125 -0.3482
16290W        W20690   2.943   7.114   1.896 -0.2616 -0.1356  0.2507
16291W        W20691   4.601   5.556  25.284  0.2571 -0.0600 -0.4366
16292W        W20692   2.600   1.458   7.664 -0.1845  0.2650 -0.1489
16293W        W20693  20.173   4.411  13.872 -0.2548 -0.0536  0.1811
16294W        W20694  23.113   6.448  25.192  0.0377  0.0116 -0.0623
16295W        W20695   4.216   4.880  18.619 -0.1001  0.0855  0.0764
16296W        W20696   8.410   7.727  23.205  0.0233  0.2382  0.2804
16297W        W20697  24.306   0.361   4.375  0.2864  0.0945  0.1389
16298W        W20698  20.729   0.688  25.196 -0.1024 -0.4611  0.3219
16299W        W20699   4.102   1.453   0.569  0.1960  0.0645  0.0993
16300W        W20700  23.962   1.568  26.496 -0.1540  0.4043  0.0185
16301W        W20701  22.956   5.221  13.507  0.0454 -0.0720  0.0908
16302W        W20702  18.959   6.398  29.192  0.0644  0.1245 -0.2841
16303W        W20703  20.492   1.145   9.197  0.1004  0.1702  0.1157
16304W        W20704  20.949   4.100   5.176 -0.2186  0.1072 -0.0407
16305W        W20705  23.616   0.814   7.235 -0.2940  0.0083  0.1371
16306W        W20706   5.222   2.636  26.312 -0.0338 -0.2944 -0.1639
16307W        W20707  12.872   4.135  27.875  0.0875  0.0882  0.0830
16308W        W20708  18.099   6.279   1.381  0.0164 -0.1573 -0.0262
16309W        W20709  19.336   0.492  12.963  0.3913  0.0680 -0.2984
16310W        W20710  18.348   4.954   4.778  0.0951 -0.1707  0.1677
16311W        W20711  20.164   7.040   4.481 -0.0956  0.1350  0.1635
16312W        W20712   6.631   2.413   7.007  0.2967 -0.1696 -0.1923
16313W        W20713  10.458   5.467  30.427  0.3034  0.3395  0.0768
16314W        W20714   8.081   2.107   8.451  0.0135 -0.0639 -0.1442
16315W        W20715  22.444   1.512   7.544 -0.1814 -0.0232 -0.0113
16316W        W20716  11.109   6.819   9.971 -0.0234 -0.0398  0.0771
16317W        W20717  24.791   3.608  24.952 -0.0002  0.1159  0.4067
16318W        W20718  13.854   2.133   6.262  0.2928 -0.1431  0.2265
16319W        W20719  21.662   0.286   6.067 -0.0063  0.0263 -0.2358
16320W        W20720   2.198   7.175   8.590 -0.1946  0.2745  0.1272
16321W        W20721   2.414   0.191  18.741  0.2978  0.0104 -0.0345
16322W        W20722  11.579   3.007  29.932 -0.2893  0.1659 -0.0430
16323W        W20723  18.948   3.075  21.963 -0.0664  0.1584  0.0049
16324W        W20724   7.197   0.178  25.554  0.2248  0.0491  0.1021
16325W        W20725   6.360   1.732  27.542 -0.0121  0.2368  0.3321
16326W        W20726   1.627   0.763  31.295  0.1216  0.0622  0.0276
16327W        W20727  19.733   2.705  16.320  0.1864 -0.2635 -0.2585
16328W        W20728  24.702   4.020  30.991  0.0166 -0.0263 -0.2585
16329W        W20729   2.672   1.402   4.974  0.0977 -0.0852  0.1600
16330W        W20730  18.516   5.329  27.346 -0.1056  0.1276 -0.0206
16331W        W20731  13.095   7.270   5.059 -0.1225 -0.0482  0.2498
16332W        W20732   8.882   5.917  29.280 -0.0077  0.0299 -0.4381
16333W        W20733  17.179   4.370   5.386  0.2061 -0.1631 -0.0858
16334W        W20734  19.007   6.156   4.645  0.3288  0.0737  0.0464
16335W        W20735  22.292   6.974  25.441  0.0670  0.1203  0.0489
16336W        W20736  14.583   3.165  30.585  0.3958  0.1486 -0.0679
16337W        W20737   9.668   7.725  22.219  0.2134 -0.0796 -0.1097
16338W        W20738  20.544   2.878   3.543  0.2898 -0.1433  0.0415
16339W        W20739   8.492   1.654  29.882 -0.0654 -0.0358  0.0528
16340W        W20740  24.863   2.324  31.549  0.1182 -0.1171 -0.1451
16341W        W20741   5.019   1.394   9.414 -0.0336  0.1112 -0.2667
16342W        W20742  19.627   7.838  15.849  0.1615  0.2902  0.1597
16343W        W20743  19.281   7.672  12.895 -0.2087 -0.1422 -0.0786
16344W        W20744   4.211   3.710  32.096 -0.2833 -0.0442 -0.2113
16345W        W20745  16.386   7.615  26.708  0.1061 -0.0246  0.0184
16346W        W20746  12.045   0.214  18.310  0.0170  0.0240 -0.4300
16347W        W20747   1.879   2.410   6.154  0.3887  0.0079  0.0681
16348W        W20748  18.484   2.044   0.308 -0.1098 -0.1020  0.0360
16349W        W20749  15.893   3.208   3.135  0.0217 -0.2450  0.0771
16350W        W20750  18.994   7.294  29.019 -0.1485  0.2796 -0.2008
16351W        W20751  21.757   7.648   3.526  0.2424 -0.1201 -0.0044
16352W        W20752   5.142   0.882  25.954 -0.0237 -0.3080  0.3078
16353W        W20753   7.295   3.829   6.475 -0.0159 -0.2919 -0.0900
16354W        W20754  17.480   2.312   5.151  0.0998 -0.0598  0.0089
16355W        W20755  13.960   3.980  23.966 -0.1727 -0.0953  0.0436
16356W        W20756  18.312   4.809   3.177 -0.1079  0.1003 -0.2205
16357W        W20757   9.668   0.924   3.202 -0.0502  0.2365 -0.0894
16358W        W20758  16.512   7.614  31.087 -0.0347 -0.0055 -0.0445
16359W        W20759   4.362   5.111  30.616  0.1089 -0.1957  0.0051
16360W        W20760  21.171   2.232   3.064  0.0964  0.1448  0.0695
16361W        W20761   9.585   5.247   0.191  0.1446 -0.2644  0.0296
16362W        W20762  10.709   6.825  25.534 -0.0422 -0.1189 -0.0453
16363W        W20763  22.702   2.520   2.358  0.0765 -0.0546 -0.2405
16364W        W20764   4.622   6.259  16.812  0.3263 -0.2395 -0.1747
16365W        W20765   4.567   7.260  20.728 -0.2763 -0.1450 -0.1168
16366W        W20766   5.304   2.110   1.321  0.2659 -0.1638 -0.1149
16367W        W20767   7.981   7.227  27.626 -0.0387 -0.1441  0.0954
16368W        W20768   8.893   4.799   8.938 -0.2073  0.1276 -0.0571
16369W        W20769   2.758   0.547  30.431 -0.0433  0.1096  0.1276
16370W        W20770   2.949   4.104  10.324 -0.4949 -0.2737  0.0053
16371W        W20771  23.286   1.505  31.193 -0.3383 -0.0693 -0.2345
16372W        W20772   3.210   2.692   1.232 -0.0475 -0.0175 -0.4534
16373W        W20773  14.277   4.351  29.947  0.1742  0.1417 -0.1920
16374W        W20774   1.333   0.382  12.393  0.3170  0.1175 -0.1296
16375W        W20775  24.625   7.839   7.508  0.0787 -0.1969 -0.2241
16376W        W20776  12.147   5.029  25.272 -0.3303  0.1782 -0.1093
16377W        W20777  12.259   6.605  11.625  0.0183  0.2432  0.1688
16378W        W20778   2.716   7.010  27.262 -0.2060 -0.0772 -0.2798
16379W        W20779  11.442   1.005   7.508 -0.0606 -0.2719 -0.2420
16380W        W20780  11.519   1.068  27.072  0.5561 -0.5620  0.1175
16381W        W20781  12.395   5.713   6.304  0.0348 -0.0034 -0.1355
16382W        W20782   3.646   2.456   3.758 -0.2590  0.0885 -0.2728
16383W        W20783   2.380   7.736   4.867  0.1457 -0.1645  0.1675
16384W        W20784   1.965   2.797  29.121 -0.1405  0.0883 -0.0531
16385W        W20785   2.947   4.393  11.154 -0.2289 -0.1772 -0.1738
16386W        W20786   2.367   5.346   7.228 -0.3737 -0.0074  0.0844
16387W        W20787  10.684   4.749  10.602  0.2139  0.2155  0.1207
16388W        W20788  21.207   3.535  17.002  0.0860 -0.0752  0.3479
16389W        W20789  25.099   6.076   9.889  0.0917  0.0944 -0.2386
16390W        W20790  20.008   7.337  22.025  0.2208 -0.4688 -0.0891
16391W        W20791  17.245   3.481  21.721  0.1613  0.0815  0.2086
16392W        W20792  13.015   0.294  11.270  0.0078 -0.1848 -0.1896
16393W        W20793  18.374   2.649   0.110  0.0678 -0.2238  0.1759
16394W        W20794   9.745   3.118  19.692  0.0789 -0.1750  0.0448
16395W        W20795   3.210   4.545   6.700  0.0598  0.1339  0.1795
16396W        W20796   7.303   0.066   9.099 -0.0485 -0.0100  0.1466
16397W        W20797  16.093   3.623   2.951 -0.0704 -0.4684  0.1388
16398W        W20798   0.893   2.454  32.038  0.2075  0.1107 -0.1648
16399W        W20799  24.558   1.400  11.708 -0.3648  0.1515 -0.0188
16400W        W20800  12.297   3.977   6.853  0.2007 -0.0910 -0.0273
16401W        W20801   7.501   0.492   5.621 -0.3373 -0.0213 -0.2366
16402W        W20802  14.798   0.027  24.754 -0.2457 -0.0372 -0.0282
16403W        W20803  14.099   6.917   8.622  0.0220  0.0779 -0.0990
16404W        W20804  11.083   1.987   2.693  0.1236  0.2253  0.0654
16405W        W20805   8.634   6.208  17.543 -0.3323  0.1016 -0.1099
16406W        W20806  20.148   1.997  12.796 -0.1931 -0.2493 -0.0918
16407W        W20807   4.790   0.475   6.669 -0.3077 -0.0832 -0.0943
16408W        W20808   9.215   1.738  23.187 -0.2202 -0.1592 -0.2573
16409W        W20809  16.926   3.253  31.079 -0.0615 -0.0305 -0.1952
16410W        W20810   8.767   2.964   7.254  0.2720 -0.1480  0.0023
16411W        W20811  13.062   7.252  20.882 -0.2372 -0.2341 -0.0571
16412W        W20812  11.456   2.995  19.812 -0.2470 -0.0225  0.1278
16413W        W20813  24.284   5.129  23.701 -0.0324 -0.1839 -0.0164
16414W        W20814  19.219   1.994  12.805  0.0888 -0.2014 -0.3948
16415W        W20815   0.303   3.066   3.615 -0.0317 -0.0331 -0.0693
16416W        W20816  18.538   7.828  31.083 -0.1090  0.0457 -0.1200
16417W        W20817  24.139   3.862   6.911  0.3969 -0.2197  0.1024
16418W        W20818  24.114   2.446  25.528  0.1900  0.1326  0.0257
16419W        W20819  11.439   4.136  23.608 -0.0137 -0.2837  0.1877
16420W        W20820   5.558   2.689  23.747  0.1043 -0.2875  0.1289
16421W        W20821  23.639   2.144  15.190  0.1815 -0.2935 -0.1672
16422W        W20822  18.337   1.193  16.907  0.0113  0.0673  0.2249
16423W        W20823  21.759   2.901   0.343 -0.0112  0.2782  0.1550
16424W        W20824  11.799   6.051  28.191  0.0145  0.0893 -0.2031
16425W        W20825   2.910   1.464  28.871 -0.1335 -0.0854 -0.0132
16426W        W20826  23.482   3.901  25.337  0.1321  0.2108 -0.1793
16427W        W20827  23.800   0.632  24.564  0.0440  0.1840 -0.0399
16428W        W20828  22.927   5.748   4.663 -0.2338 -0.1418  0.1060
16429W        W20829   7.797   7.623   6.819 -0.2545 -0.0169  0.0941
16430W        W20830  20.944   0.980   3.518  0.4240  0.1254 -0.1815
16431W        W20831  24.786   0.750  24.511 -0.0539 -0.0710  0.1719
16432W        W20832  24.999   7.083  32.228  0.1109  0.0692  0.1677
16433W        W20833  19.324   1.452  12.878  0.4131 -0.1204  0.3419
16434W        W20834   1.776   1.536   2.567  0.1840  0.2755  0.1916
16435W        W20835   5.775   5.379   0.725  0.2035 -0.1865 -0.0379
16436W        W20836   6.675   1.241   4.666  0.2674 -0.0414 -0.0459
16437W        W20837   9.397   4.444  31.639  0.1125  0.0170  0.1384
16438W        W20838   7.831   0.644  32.392  0.0437 -0.0775 -0.1033
16439W        W20839  23.845   3.610  12.478 -0.1534  0.0039 -0.0202
16440W        W20840  22.946   3.676  12.269  0.0842 -0.2574 -0.0039
16441W        W20841   1.673   4.623   3.075 -0.0872  0.1597 -0.1182
16442W        W20842  12.693   7.495   2.983  0.1900  0.2096 -0.0334
16443W        W20843   3.325   6.463  31.260  0.1828  0.0555  0.1328
16444W        W20844  15.740   6.418   3.159  0.4543  0.1223  0.3522
16445W        W20845  12.019   2.120  23.825 -0.2410  0.0178  0.0590
16446W        W20846   4.514   5.060  16.068 -0.0531 -0.2964 -0.1825
16447W        W20847  15.158   4.165  32.446  0.2058 -0.0458  0.2305
16448W        W20848  11.276   1.604  25.468  0.1049  0.1629  0.1083
16449W        W20849  19.889   0.816  27.216  0.1057 -0.3433  0.1279
16450W        W20850  20.774   3.115  14.621  0.4574 -0.1712  0.1435
16451W        W20851   2.174   1.781  26.879 -0.2672 -0.0319 -0.1442
16452W        W20852  21.557   2.330  16.226  0.1501 -0.1475  0.3119
16453W        W20853   3.072   1.268  27.969 -0.4764  0.3164 -0.2333
16454W        W20854   0.948   3.424  10.588  0.1946  0.1280 -0.1823
16455W        W20855   6.300   0.676  31.041  0.1170 -0.0262 -0.0144
16456W        W20856   0.901   7.057  27.216 -0.1789  0.1145 -0.1393
16457W        W20857   7.526   1.231   0.610 -0.0584 -0.0180  0.1744
16458W        W20858  24.386   3.373   2.894 -0.1089 -0.0866  0.0632
16459W        W20859   9.833   4.762   7.644 -0.0391  0.1364  0.0773
16460W        W20860   8.145   4.334  27.305  0.2628  0.0887 -0.1857
16461W        W20861   0.188   0.229   8.037  0.0325  0.2542 -0.0341
16462W        W20862   7.812   4.590  22.130  0.2693  0.1158  0.2880
16463W        W20863  21.547   6.736   2.463  0.2791  0.1076  0.3194
16464W        W20864  13.730   3.237  30.692  0.1399 -0.2634  0.0319
16465W        W20865  12.248   7.593   8.141  0.0487 -0.0493  0.0199
16466W        W20866  11.177   3.611  29.053 -0.0272  0.0441  0.1114
16467W        W20867  24.818   4.362  13.029  0.0690  0.3615  0.4431
16468W        W20868  13.321   5.521  28.911  0.1717 -0.3118 -0.0884
16469W        W20869  19.407   4.505   7.538  0.0924  0.2447  0.1855
16470W        W20870  11.329   2.194  19.360  0.0182 -0.2681 -0.0188
16471W        W20871  15.927   2.135  30.004 -0.2313 -0.0982  0.0319
16472W        W20872  22.491   1.489  31.873 -0.3475 -0.0069  0.1806
16473W        W20873   7.092   1.355   5.684  0.1893  0.2908  0.1236
16474W        W20874   4.891   6.899   1.315 -0.0253 -0.0507 -0.1179
16475W        W20875  20.900   0.893   8.147  0.1335 -0.1817 -0.1571
16476W        W20876  19.289   7.208  18.313 -0.1029 -0.2239  0.1585
16477W        W20877   9.177   6.021  27.092  0.0495  0.0476 -0.0650
16478W        W20878   8.442   5.195  30.092 -0.1286  0.0426  0.0729
16479W        W20879   5.338   5.334  20.957 -0.1579 -0.2497 -0.1121
16480W        W20880  20.554   6.677  11.270  0.1927 -0.2177 -0.0698
16481W        W20881  15.814   6.508   2.702 -0.1778 -0.1847 -0.1852
16482W        W20882   5.512   7.537   0.778 -0.0234  0.0955  0.0933
16483W        W20883  19.239   3.297   3.682  0.0115  0.0469  0.0426
16484W        W20884  19.648   5.308  16.494 -0.0270  0.0423 -0.2316
16485W        W20885   1.213   7.577  21.366  0.0881 -0.3032  0.1811
16486W        W20886   6.809   7.022   8.607 -0.0493 -0.0250  0.1632
16487W        W20887  15.934   3.436  10.543  0.0748 -0.0833 -0.0465
16488W        W20888   5.792   6.838  31.539 -0.0110  0.5085  0.0427
16489W        W20889   2.579   2.287   4.440 -0.0034 -0.0035 -0.0346
16490W        W20890  20.815   3.197  16.444  0.1820 -0.0215 -0.0341
16491W        W20891   8.629   1.188  24.401  0.1446 -0.0383  0.1179
16492W        W20892  21.262   6.909  15.967  0.0682 -0.0179  0.3060
16493W        W20893   4.554   3.384   1.470 -0.2582 -0.1914 -0.0696
16494W        W20894  16.048   2.888  27.389  0.2365 -0.0785  0.3624
16495W        W20895   8.540   7.285   2.554 -0.0578 -0.0958  0.0608
16496W        W20896  20.180   1.944   0.802  0.0282  0.0464  0.0709
16497W        W20897  22.114   3.955   0.314 -0.1259 -0.0285 -0.2521
16498W        W20898   7.300   1.046  21.383  0.0936 -0.2412 -0.1721
16499W        W20899  24.317   1.409   9.439  0.1341 -0.1612  0.2061
16500W        W20900   8.426   2.282   5.965  0.5228 -0.1852  0.1544
16501W        W20901   7.112   1.655  17.871  0.0314  0.2420 -0.0802
16502W        W20902  17.067   1.506   8.018 -0.0059  0.1325  0.0591
16503W        W20903  15.133   3.550  29.934  0.1401  0.1092 -0.0562
16504W        W20904   9.096   2.360   9.563 -0.2853  0.1732 -0.4237
16505W        W20905  15.793   2.979  11.279 -0.1996 -0.1850 -0.2362
16506W        W20906   5.210   3.637  29.516  0.0304 -0.0069  0.2432
16507W        W20907  13.611   0.876   7.333 -0.2538 -0.2039 -0.0619
16508W        W20908   6.425   0.849   3.926  0.0012 -0.0336  0.0958
16509W        W20909  21.973   1.130  26.518 -0.0388 -0.1630 -0.2556
16510W        W20910  15.857   3.861  27.976 -0.0090  0.3483  0.2246
16511W        W20911   6.530   2.692   1.072  0.0109 -0.1583  0.0756
16512W        W20912  23.507   0.058  14.362 -0.0251  0.2861 -0.0846
16513W        W20913  20.862   2.090  25.456  0.3061  0.0128  0.0878
16514W        W20914  23.842   3.655  29.165  0.0657 -0.0098  0.0038
16515W        W20915  10.781   1.501   5.748 -0.3623 -0.3135 -0.2270
16516W        W20916   3.693   6.502  10.974  0.1422  0.0774  0.0315
16517W        W20917  14.879   5.026  21.419  0.0281  0.4604 -0.0527
16518W        W20918  14.722   2.846  32.070  0.1995  0.2603  0.0225
16519W        W20919   4.074   3.082  16.284  0.0581  0.0022 -0.1924
16520W        W20920   3.781   7.492  24.214 -0.2720  0.2113  0.0087
16521W        W20921  22.384   6.830   2.132  0.1983  0.0806  0.2124
16522W        W20922   0.232   1.929  22.186 -0.4575  0.0450 -0.0497
16523W        W20923  21.497   3.014  12.405 -0.0379 -0.0927 -0.0773
16524W        W20924  22.387   2.899  13.121 -0.1208 -0.0191  0.0233
16525W        W20925  18.878   6.079  27.290 -0.1551  0.1909 -0.3148
16526W        W20926  19.258   2.888  11.164 -0.1392 -0.2579  0.0029
16527W        W20927  14.537   2.316  12.427 -0.2125 -0.0809  0.1836
16528W        W20928  14.936   6.324   7.451  0.1187 -0.4279  0.1382
16529W        W20929   9.904   5.158  24.257 -0.0024  0.0440  0.1306
16530W        W20930  24.870   7.047   1.622 -0.3323 -0.2446  0.1702
16531W        W20931  15.991   1.580   9.185 -0.2209 -0.0614  0.0573
16532W        W20932   6.544   0.991  32.003 -0.1075 -0.1215 -0.2194
16533W        W20933   5.035   1.374  22.426 -0.0257 -0.0289 -0.0291
16534W        W20934   1.183   6.124  25.172  0.0794  0.0314 -0.1240
16535W        W20935   9.854   0.042  25.458 -0.2908  0.2808  0.0447
16536W        W20936   3.188   1.998  23.905 -0.1843  0.1315  0.0703
16537W        W20937  13.861   2.439   0.856 -0.1659  0.0547  0.1331
16538W        W20938   2.516   6.802   1.253  0.1873  0.0473  0.1238
16539W        W20939   9.829   2.520  17.261 -0.2491 -0.2015 -0.2896
16540W        W20940  21.508   5.340   1.778  0.0606  0.1946 -0.1180
16541W        W20941   6.245   5.536  14.868 -0.0870 -0.0051 -0.2151
16542W        W20942  16.467   5.940  15.948  0.3463  0.0233  0.1819
16543W        W20943  17.651   1.246   3.404  0.2151  0.1643  0.3460
16544W        W20944  15.350   6.769   5.578 -0.0877  0.2141 -0.2156
16545W        W20945  18.569   6.335   9.332 -0.1685 -0.1556 -0.1620
16546W        W20946  17.937   4.089   8.829  0.0412  0.0090  0.0528
16547W        W20947   9.771   0.043  30.685 -0.1068  0.1764  0.1093
16548W        W20948   9.843   0.328  22.173  0.0296  0.1048 -0.0930
16549W        W20949  21.073   3.613   5.006  0.2879 -0.0928  0.2711
16550W        W20950  15.137   1.306  23.228  0.1186  0.0691  0.1038
16551W        W20951  15.115   7.688  26.710  0.0429 -0.1830 -0.1260
16552W        W20952  24.785   6.805  30.539 -0.0263  0.0097 -0.1674
16553W        W20953  10.763   7.739  27.257 -0.0357  0.0256 -0.0846
16554W        W20954  19.164   1.570   5.688  0.1275  0.1027  0.2943
16555W        W20955  13.162   2.203  29.723 -0.0802  0.0299 -0.0553
16556W        W20956  17.276   6.628  23.166 -0.1238  0.3829 -0.3296
16557W        W20957  13.221   2.576   3.762  0.1309 -0.0717 -0.2693
16558W        W20958  22.515   0.543   4.349  0.2199  0.1063  0.2504
16559W        W20959  18.459   7.403   0.206 -0.1449  0.1399 -0.0044
16560W        W20960   0.329   6.147  24.171 -0.4152  0.1958  0.3069
16561W        W20961  10.025   2.183  18.880  0.2965 -0.3236 -0.0067
16562W        W20962   8.174   4.990  21.085 -0.1943  0.0655  0.1571
16563W        W20963  22.034   5.848   1.317  0.1609  0.1172 -0.1622
16564W        W20964  14.143   1.849   6.019  0.0670  0.1912 -0.0740
16565W        W20965   6.963   7.833   0.818 -0.1340  0.0526  0.3391
16566W        W20966   1.263   4.314  19.855 -0.0162 -0.0297 -0.0938
16567W        W20967   0.459   6.062  29.156  0.0074  0.2049  0.0910
16568W        W20968  21.325   7.341  25.639 -0.1819  0.0157 -0.0813
16569W        W20969  17.974   7.722   2.375 -0.1301 -0.1529 -0.0871
16570W        W20970  20.207   6.254  28.667 -0.1006  0.0602  0.0691
16571W        W20971  17.368   5.842   3.833 -0.2311  0.0519 -0.2116
16572W        W20972  19.208   1.876  17.903 -0.2434 -0.4188 -0.0277
16573W        W20973  21.223   7.404   5.941 -0.1714  0.1023  0.0035
16574W        W20974  14.671   7.305   8.124  0.2491 -0.0175 -0.3525
16575W        W20975   6.948   4.493  29.754  0.1813  0.3290  0.1125
16576W        W20976  14.672   0.735   7.878  0.1400 -0.1067  0.1966
16577W        W20977  17.289   2.928  14.042  0.0520 -0.0001 -0.1619
16578W        W20978  21.094   0.613  22.476 -0.0773  0.0295  0.2351
16579W        W20979  22.409   3.769  22.497  0.3490  0.0047  0.3006
16580W        W20980   4.952   5.558  23.024 -0.0847  0.1215  0.1494
16581W        W20981  18.331   2.681   1.841  0.0315 -0.1263  0.1340
16582W        W20982  14.763   7.839  31.469  0.1203  0.0418  0.0596
16583W        W20983  19.044   0.921   4.944  0.2206 -0.1238 -0.0984
16584W        W20984  16.573   3.517   2.136 -0.0540  0.0826 -0.0957
16585W        W20985   6.515   6.210   5.111 -0.0672 -0.0518  0.0204
16586W        W20986  12.603   5.951  19.777 -0.0926 -0.0067  0.1044
16587W        W20987   3.926   4.151  28.330  0.1928  0.1923  0.0027
16588W        W20988  23.628   5.972  24.454 -0.0018 -0.2953 -0.1703
16589W        W20989  20.313   5.915  25.492 -0.1179 -0.1471 -0.2090
16590W        W20990   5.799   2.476   9.034  0.0943 -0.1319  0.0780
16591W        W20991  20.108   5.546   8.873  0.0423 -0.1172 -0.0530
16592W        W20992   5.140   0.931  21.106  0.3176 -0.0743 -0.1811
16593W        W20993  10.473   1.750  10.767  0.2820 -0.0284 -0.0796
16594W        W20994  10.818   6.245  19.071  0.0243 -0.2577  0.0030
16595W        W20995   8.859   1.532   3.194 -0.0474  0.1784  0.0650
16596W        W20996   7.930   6.383   9.601  0.0078  0.0614  0.1024
16597W        W20997  25.133   3.980   3.499 -0.0200 -0.1712  0.0301
16598W        W20998  11.163   2.847  31.352  0.1960 -0.1297 -0.1263
16599W        W20999  23.629   5.686  29.956  0.1567  0.0803 -0.1197
16600W        W21000  11.050   5.071  11.556  0.2019 -0.0864  0.0090
16601W        W21001  11.903   4.237   9.656  0.2329 -0.1542 -0.3799
16602W        W21002  20.351   4.982  25.390 -0.0341  0.2086 -0.0168
16603W        W21003  18.682   0.039  23.503  0.0380  0.2900  0.3387
16604W        W21004   8.677   0.935  29.293  0.1337  0.2621 -0.0263
16605W        W21005   9.520   7.684   3.885  0.0835  0.4511 -0.0065
16606W        W21006  13.894   5.898  26.124 -0.0311 -0.1143 -0.1238
16607W        W21007   4.667   7.124   6.397 -0.3023 -0.1674  0.1059
16608W        W21008  13.481   5.910   6.013  0.3721  0.4560 -0.0833
16609W        W21009   2.834   2.249   6.385 -0.0520 -0.1536 -0.1209
16610W        W21010  20.873   1.872  12.320  0.2792  0.2309 -0.3268
16611W        W21011  11.486   7.411  21.341  0.2655 -0.4084 -0.0099
16612W        W21012  17.152   6.841   0.800 -0.0764  0.0103  0.0155
16613W        W21013  11.353   1.063   0.248  0.0189 -0.0570 -0.2386
16614W        W21014  22.263   4.614   6.533  0.2658 -0.0823  0.1741
16615W        W21015  13.535   4.097  26.081  0.0918  0.0386  0.1961
16616W        W21016  12.436   5.335  24.412  0.2007 -0.0643  0.0998
16617W        W21017   1.122   5.455   7.821 -0.1102 -0.2572 -0.0356
16618W        W21018  21.822   3.149  21.959 -0.0200  0.1397 -0.2116
16619W        W21019  22.251   6.438  11.695  0.0882 -0.2714 -0.1292
16620W        W21020  17.901   5.879   5.112 -0.0635  0.2119 -0.1746
16621W        W21021  19.237   2.390  14.676 -0.0406  0.1828  0.1590
16622W        W21022   4.676   4.591  28.850  0.1232  0.1513 -0.0339
16623W        W21023   3.800   6.599  16.263  0.2195 -0.1996 -0.0911
16624W        W21024   2.583   4.144  20.237  0.0079 -0.2189 -0.1489
16625W        W21025  18.691   5.385  30.954 -0.1527 -0.3163  0.3515
16626W        W21026  21.416   7.799  15.564 -0.0805 -0.0967 -0.3114
16627W        W21027  15.816   4.182  13.314 -0.1465 -0.1565 -0.1265
16628W        W21028   1.859   5.800  27.176  0.1379 -0.0601 -0.0184
16629W        W21029   0.202   3.493  11.357  0.2765  0.1504  0.0473
16630W        W21030   7.465   5.726   4.266  0.4690 -0.2482  0.2790
16631W        W21031  11.618   3.725  18.682  0.0453 -0.0659  0.2465
16632W        W21032  17.784   2.515   5.503 -0.0781 -0.0146 -0.0233
16633W        W21033  13.322   2.333  22.714  0.2051 -0.3196  0.3528
16634W        W21034  18.855   7.500   9.149 -0.1355  0.0648 -0.0267
16635W        W21035   1.075   6.387   6.724 -0.1225 -0.3658 -0.0722
16636W        W21036  22.753   6.682  25.499 -0.1673 -0.3255  0.0071
16637W        W21037   5.247   2.636  22.552  0.1937 -0.0397  0.0295
16638W        W21038  18.268   4.538  31.606  0.2013 -0.3052 -0.1106
16639W        W21039   9.801   2.582  19.812 -0.1009 -0.0264  0.0896
16640W        W21040  22.563   6.167   4.739  0.0683  0.1251  0.1357
16641W        W21041  12.952   2.954  11.563 -0.1179  0.1631 -0.0600
16642W        W21042  21.840   5.906  23.316  0.1021  0.2275  0.0877
16643W        W21043  11.620   7.653  24.744 -0.1145  0.2691  0.0443
16644W        W21044   6.663   7.053   7.218 -0.0252 -0.0473  0.1948
16645W        W21045   8.541   4.900  25.151 -0.3569 -0.2551 -0.0671
16646W        W21046  12.174   7.597   9.885 -0.2435 -0.1622  0.0068
16647W        W21047  11.453   2.362  31.468  0.3332 -0.2741 -0.1136
16648W        W21048  21.160   5.564   9.795  0.0348  0.0129 -0.1143
16649W        W21049  13.446   7.562   9.600  0.0134  0.0274  0.1376
16650W        W21050  17.270   0.374   6.246 -0.1492  0.1294  0.1320
16651W        W21051   7.459   1.314   7.094  0.2042 -0.0981  0.3994
16652W        W21052   6.110   7.341  26.886 -0.2126  0.0284  0.1781
16653W        W21053   3.336   3.221   0.471 -0.0943 -0.0028  0.2353
16654W        W21054  14.495   2.514  12.998 -0.2313  0.0717  0.0085
16655W        W21055  14.503   3.359  28.264 -0.1644  0.0730  0.1495
16656W        W21056   5.836   1.461   2.756 -0.1635  0.0202  0.1234
16657W        W21057   5.999   1.858   9.818  0.1427  0.0627  0.0063
16658W        W21058   5.795   1.124  15.073  0.0456  0.1621 -0.1971
16659W        W21059   1.344   6.546  10.202 -0.3639 -0.0206 -0.1306
16660W        W21060  19.880   4.921  28.453  0.1223  0.0383 -0.1048
16661W        W21061  19.917   2.010  28.222 -0.2686  0.2918  0.2096
16662W        W21062  20.115   0.227  29.121  0.2058  0.4112 -0.0731
16663W        W21063   2.165   3.365  28.388  0.4922 -0.0820 -0.1326
16664W        W21064   6.172   2.612  22.907 -0.0597  0.2434  0.1140
16665W        W21065   9.918   0.310  31.130 -0.0484  0.0983 -0.0280
16666W        W21066  16.131   2.232  27.479  0.4122  0.0199 -0.1428
16667W        W21067  23.338   2.793   4.348  0.3866  0.0411  0.0438
16668W        W21068  14.036   3.621   4.422 -0.1217  0.3812 -0.0708
16669W        W21069  13.762   4.452  22.079  0.2339 -0.0499 -0.2552
16670W        W21070   1.240   6.061  24.153 -0.3459  0.0942 -0.0144
16671W        W21071  10.390   4.079  32.300 -0.1822  0.1380  0.3762
16672W        W21072  15.369   7.225   7.424  0.1897  0.0696 -0.0497
16673W        W21073   8.123   7.619  30.183  0.0465 -0.1421 -0.0106
16674W        W21074  20.971   1.402  26.917  0.1856 -0.1401  0.0524
16675W        W21075   5.707   2.696  16.103  0.1582  0.1997  0.1080
16676W        W21076   6.554   5.620  28.782  0.1222 -0.0740  0.0101
16677W        W21077  16.175   2.871  15.451  0.2577  0.4479 -0.0020
16678W        W21078  22.337   1.000  12.097  0.1718 -0.2734 -0.1896
16679W        W21079  15.036   0.560  25.566  0.0137 -0.1035 -0.1556
16680W        W21080  18.422   3.790  17.022  0.1457  0.1529  0.3164
16681W        W21081   6.601   2.184  23.747  0.4532  0.2947 -0.0952
16682W        W21082  23.627   1.007  28.133 -0.1397  0.0311 -0.3566
16683W        W21083  24.721   6.642  29.080  0.1163  0.0386  0.2123
16684W        W21084   5.689   1.295  19.123 -0.2916 -0.4052  0.0066
16685W        W21085   7.749   5.818   7.203  0.0023 -0.1683 -0.1055
16686W        W21086   0.508   0.078   7.442 -0.2642 -0.4370  0.2557
16687W        W21087   6.776   5.871   0.605 -0.0014  0.1124 -0.2563
16688W        W21088   0.148   7.038  22.865  0.2091 -0.0115 -0.0316
16689W        W21089   7.681   1.639  30.218  0.1052  0.1103 -0.1048
16690W        W21090  23.361   4.200  24.362 -0.1598 -0.0141 -0.2153
16691W        W21091   0.413   5.267  29.181 -0.1533 -0.1965  0.1106
16692W        W21092   1.616   7.354  20.501 -0.1092 -0.0160 -0.0079
16693W        W21093  20.345   1.351  30.391 -0.3502  0.1269 -0.1428
16694W        W21094   3.484   0.930  18.213  0.3062 -0.0954  0.2610
16695W        W21095  11.310   0.596  18.856 -0.0018  0.3777 -0.0502
16696W        W21096  25.089   4.042   5.138 -0.0165 -0.0921 -0.0445
16697W        W21097  22.524   1.608  15.086 -0.5074 -0.2001 -0.1166
16698W        W21098  18.211   0.549   8.415 -0.2651 -0.0037  0.0187
16699W        W21099  16.202   0.169  15.007  0.0482  0.2883  0.1107
16700W        W21100   7.784   0.697  17.434 -0.1303  0.0237 -0.1286
16701W        W21101  16.490   1.110  25.614  0.0990 -0.1574 -0.2910
16702W        W21102  19.388   5.922  23.418  0.1646 -0.0495 -0.0863
16703W        W21103  19.481   6.482  13.816  0.2827  0.2662  0.0330
16704W        W21104   6.209   5.044  15.781  0.2065  0.0649 -0.3161
16705W        W21105  13.328   2.838   9.901  0.1384  0.3026 -0.1429
16706W        W21106   5.873   7.831  20.746 -0.0947 -0.0144 -0.1658
16707W        W21107   4.725   1.540   4.805 -0.1048  0.2293 -0.1379
16708W        W21108  11.409   7.645  29.936  0.0829  0.1728  0.1102
16709W        W21109   1.627   0.139   8.182 -0.1603  0.1004  0.0160
16710W        W21110   5.055   7.108  24.032  0.2589 -0.0075  0.3473
16711W        W21111  25.118   4.957   7.618 -0.1267 -0.2651 -0.0524
16712W        W21112   1.914   0.429   7.938  0.1002  0.3446 -0.3008
16713W        W21113  22.531   5.042  12.644 -0.1882  0.0315 -0.1274
16714W        W21114  18.214   1.599  16.639  0.1122 -0.2747 -0.0112
16715W        W21115  13.262   6.246  27.174 -0.0347  0.2246  0.0164
16716W        W21116  22.881   0.921  21.703  0.3632 -0.2848  0.1149
16717W        W21117  11.773   2.415  10.479 -0.0471 -0.1358  0.0520
16718W        W21118  14.913   6.176   1.392  0.1097 -0.2157 -0.2259
16719W        W21119  12.483   2.793  31.570 -0.1198  0.6233 -0.3945
16720W        W21120  24.775   1.009   4.586  0.1040  0.2234 -0.0202
16721W        W21121   5.822   5.761  14.075  0.1390 -0.2125 -0.1399
16722W        W21122  11.120   5.154  25.654  0.0834 -0.0393  0.1619
16723W        W21123  15.082   4.893  30.660 -0.1730 -0.1460 -0.0825
16724W        W21124   3.285   4.029   0.532  0.0046  0.2222 -0.1470
16725W        W21125  12.262   4.267   7.769  0.0683  0.2662  0.0048
16726W        W21126   5.211   7.325  21.264  0.4032  0.0141  0.0725
16727W        W21127  17.978   5.172  29.733  0.2069 -0.1501 -0.2019
16728W        W21128  21.486   1.185  24.240 -0.1988 -0.1610  0.0180
16729W        W21129  17.049   0.177  24.135  0.0303  0.2697 -0.1242
16730W        W21130   6.894   7.760   9.400  0.2521 -0.1821 -0.0292
16731W        W21131   6.439   1.183  16.052 -0.0628 -0.1919  0.0352
16732W        W21132  10.045   0.347  27.462 -0.0611 -0.1805 -0.1974
16733W        W21133   2.437   7.786  29.073 -0.4020  0.0601  0.1005
16734W        W21134   2.329   0.353  28.642 -0.0368  0.0615 -0.2298
16735W        W21135   1.986   3.736  30.451 -0.4067 -0.2489 -0.0103
16736W        W21136   6.616   0.625   7.633 -0.3419  0.1828  0.0271
16737W        W21137  13.291   2.234   5.903  0.1352 -0.2525  0.0366
16738W        W21138   4.301   0.102   4.894 -0.1939 -0.1023 -0.0476
16739W        W21139  19.767   6.844   3.588  0.2509  0.1798 -0.3121
16740W        W21140  17.423   4.799  29.449  0.2426 -0.1622 -0.0261
16741W        W21141  16.069   2.566  11.366  0.1543 -0.1741  0.0853
16742W        W21142  23.530   2.653   9.809 -0.1339  0.0865 -0.1024
16743W        W21143   9.914   3.972  28.684 -0.0499 -0.2066 -0.1340
16744W        W21144   6.660   4.165   0.632 -0.1838  0.1348 -0.2793
16745W        W21145   4.687   0.349   5.713 -0.0940  0.4735  0.0592
16746W        W21146   5.924   3.971  29.999 -0.0260 -0.2473 -0.0078
16747W        W21147   6.601   4.806   2.253  0.2371  0.1847  0.3659
16748W        W21148  19.759   2.129  11.342 -0.2438  0.1475 -0.1416
16749W        W21149  24.186   0.947  11.981 -0.0955 -0.1285  0.1089
16750W        W21150  24.378   1.772  10.845 -0.0730 -0.1218  0.0282
16751W        W21151  22.041   0.773   4.518 -0.1696 -0.0837 -0.1653
16752W        W21152  22.293   3.581  15.851 -0.2605 -0.0692  0.0756
16753W        W21153  16.922   0.140  28.201 -0.1773  0.4975  0.1343
16754W        W21154  24.895   5.947   0.112  0.0714  0.0133  0.3055
16755W        W21155   4.542   3.228  22.822 -0.2361 -0.2453  0.0449
16756W        W21156  14.454   2.143   5.400 -0.3343  0.0626 -0.2080
16757W        W21157  14.743   7.443  23.061 -0.0183  0.0585  0.2735
16758W        W21158   8.814   6.453   4.447 -0.3989  0.1328 -0.0374
16759W        W21159   7.568   4.605  18.546 -0.0366 -0.0394  0.0190
16760W        W21160  15.687   6.932  31.282  0.0890  0.1520 -0.0975
16761W        W21161  17.537   6.935   4.613  0.1662 -0.4752  0.1170
16762W        W21162  15.455   7.197  23.064  0.0316 -0.1330 -0.0423
16763W        W21163   6.607   5.129  31.291 -0.3204 -0.1568  0.1420
16764W        W21164  24.086   2.707  12.741  0.0545  0.3320 -0.2109
16765W        W21165  24.786   7.329   6.125 -0.1147  0.0379  0.1297
16766W        W21166  15.900   7.165   4.013 -0.0671 -0.2383 -0.0108
16767W        W21167  14.317   6.710  32.011  0.4448 -0.0404  0.0460
16768W        W21168   3.362   4.358  25.509  0.2126  0.0799 -0.1701
16769W        W21169  23.186   1.985  26.505  0.2297  0.0487 -0.3609
16770W        W21170   0.743   0.004  27.956 -0.0841 -0.0325  0.2099
16771W        W21171   4.902   0.103  19.596 -0.0914 -0.1354 -0.2028
16772W        W21172   8.246   1.169   7.626  0.4138  0.0984 -0.2084
16773W        W21173  23.583   6.750   0.466  0.1166  0.0848  0.0183
16774W        W21174  14.061   5.486  25.786 -0.0430 -0.0053  0.2319
16775W        W21175  17.711   3.713  31.715  0.1122 -0.0479 -0.0895
16776W        W21176   0.132   7.106  26.018 -0.6053  0.3153 -0.0101
16777W        W21177   6.152   1.358  31.961  0.1166 -0.2797 -0.0589
16778W        W21178   7.161   6.371  26.750 -0.0863  0.2662  0.0216
16779W        W21179   6.826   0.495  30.293  0.4580  0.0267 -0.1005
16780W        W21180  15.697   4.815  31.273 -0.0903  0.2360  0.2255
16781W        W21181   8.255   2.001  24.096  0.2538 -0.2196 -0.0020
16782W        W21182   4.422   0.708  22.227 -0.2671 -0.2822 -0.3446
16783W        W21183   3.528   1.208  28.130 -0.0057 -0.0919  0.0981
16784W        W21184  24.741   5.538  31.146  0.1357 -0.1658  0.0310
16785W        W21185  16.124   0.632   5.329  0.2867  0.2464  0.0653
16786W        W21186  12.909   1.972   6.949 -0.0035  0.1869  0.1134
16787W        W21187  23.338   4.967  29.705 -0.2888 -0.1221  0.2628
16788W        W21188   6.107   0.495   6.166  0.0826 -0.0939  0.0319
16789W        W21189   6.814   2.246   9.650  0.4126  0.1650 -0.1195
16790W        W21190  16.176   0.188  30.830  0.2848 -0.0431  0.2046
16791W        W21191   2.329   4.420  29.990 -0.2288  0.2047 -0.2503
16792W        W21192  19.865   0.648  17.459 -0.2102 -0.3308 -0.0674
16793W        W21193   8.793   6.612  32.398  0.0882  0.0811 -0.1183
16794W        W21194  17.077   6.311  10.015 -0.1639 -0.1329  0.0357
16795W        W21195  20.653   7.777  29.982 -0.1045 -0.0471  0.0628
16796W        W21196  19.887   6.656  24.035  0.1600  0.3986  0.0214
16797W        W21197  11.155   2.274  11.463  0.0229 -0.0116 -0.3492
16798W        W21198  17.240   3.520  24.595  0.2867 -0.1920 -0.1555
16799W        W21199  21.784   0.791   5.960  0.0602  0.4689  0.1556
16800W        W21200   4.108   0.276  28.291  0.0350  0.0770  0.3511
16801W        W21201   0.648   7.671   6.208  0.0144 -0.0352  0.0961
16802W        W21202  14.691   5.850  21.817  0.1628  0.0503 -0.0013
16803W        W21203  10.323   6.044   6.775 -0.0480  0.2843  0.2895
16804W        W21204  17.842   2.745  11.388  0.3450  0.2487 -0.1760
16805W        W21205   4.175   6.118  24.589 -0.0874  0.2171  0.0849
16806W        W21206  17.631   4.088   8.483 -0.2574 -0.3776 -0.1337
16807W        W21207  22.938   3.159  15.306 -0.1848 -0.1362 -0.0134
16808W        W21208  18.006   5.761   7.816 -0.0806 -0.0131  0.0409
16809W        W21209   5.236   6.144  14.878 -0.3039  0.0791 -0.0315
16810W        W21210   7.589   1.245  30.571  0.2461 -0.1257  0.1013
16811W        W21211   8.524   5.538   8.840  0.2515  0.0402 -0.1796
16812W        W21212   9.852   5.460  30.389 -0.1221 -0.0818  0.0667
16813W        W21213   3.918   5.262  11.494  0.0141 -0.2307 -0.3921
16814W        W21214  15.328   0.851  26.812  0.1134 -0.0248 -0.0205
16815W        W21215  12.269   4.793  21.258  0.3969 -0.0560  0.0957
16816W        W21216  21.471   3.093   6.042 -0.0644  0.2884  0.4726
16817W        W21217  17.894   1.947  17.486 -0.0463  0.1596 -0.3034
16818W        W21218  11.613   3.009   0.759 -0.1582  0.0052 -0.0683
16819W        W21219  13.213   3.196  10.223 -0.1244 -0.1827 -0.1353
16820W        W21220  21.049   0.356  13.832 -0.1218  0.0308  0.2161
16821W        W21221  23.959   1.025   6.269  0.0592  0.2364 -0.2414
16822W        W21222  19.732   7.655  31.270  0.0730  0.0932 -0.3833
16823W        W21223  12.764   3.656   9.408  0.1846 -0.1061  0.0337
16824W        W21224   0.186   6.819   7.587 -0.2333 -0.1283 -0.2530
16825W        W21225  18.094   2.358  14.733  0.0881  0.1681  0.0369
16826W        W21226   3.359   4.237   2.303  0.2093 -0.1077 -0.3723
16827W        W21227   6.972   0.500   2.176 -0.0987 -0.0787 -0.1093
16828W        W21228   7.999   5.551  26.640  0.1385 -0.0941 -0.0173
16829W        W21229  11.833   5.515  25.766 -0.0408 -0.0812  0.0947
16830W        W21230  10.294   0.543  24.072  0.3321  0.1003  0.1582
16831W        W21231   7.545   6.852   2.801  0.1132  0.2937  0.0081
16832W        W21232   2.991   0.194  27.091 -0.0101  0.2846 -0.1581
16833W        W21233   8.020   1.054  25.030  0.0716  0.0495  0.1354
16834W        W21234   0.669   1.514   9.250 -0.0388 -0.2031  0.0382
16835W        W21235   0.492   0.215  21.720  0.0576 -0.0784 -0.1440
16836W        W21236  16.304   2.495   2.530 -0.0947 -0.2983 -0.0085
16837W        W21237  13.702   6.306  25.380 -0.2544  0.0445 -0.1045
16838W        W21238   4.777   6.252  15.184 -0.0936 -0.2164  0.1463
16839W        W21239  22.591   7.512   6.253 -0.0539 -0.0410 -0.0741
16840W        W21240   9.615   4.590  32.160 -0.0116  0.1177  0.2643
16841W        W21241   5.407   0.451  25.872  0.2607 -0.2184  0.3121
16842W        W21242  11.790   5.744  19.868 -0.0443 -0.1109 -0.4027
16843W        W21243  16.876   4.721   4.711 -0.1460  0.0369  0.3853
16844W        W21244  20.912   2.225  13.561 -0.0242  0.0956  0.1763
16845W        W21245  22.581   6.510   0.824  0.1303 -0.0897 -0.4244
16846W        W21246  15.179   1.876  14.730 -0.0979 -0.1348  0.0712
16847W        W21247  22.684   7.646   0.438  0.1823 -0.0653 -0.1794
16848W        W21248  22.136   6.324  12.145 -0.3514 -0.2085 -0.2224
16849W        W21249  20.555   3.813  24.805 -0.3004  0.1603  0.0046
16850W        W21250  22.925   5.041  10.442  0.2698 -0.1198 -0.1305
16851W        W21251   4.778   1.319  31.270  0.0703 -0.0421 -0.1383
16852W        W21252   1.251   4.544  21.876 -0.0998  0.1172  0.1702
16853W        W21253  18.634   3.857  30.937 -0.2518 -0.0873 -0.1402
16854W        W21254  16.489   3.413  16.936  0.0677 -0.1108  0.4185
16855W        W21255  11.815   1.397  28.546 -0.1544 -0.1473  0.1512
16856W        W21256  23.217   2.042  23.201 -0.0180 -0.0757  0.0691
16857W        W21257  19.991   0.285   5.120 -0.1695  0.0613 -0.0728
16858W        W21258  21.218   7.375   4.621 -0.1446 -0.0920 -0.0993
16859W        W21259  16.095   2.145  24.935 -0.1334  0.2594  0.1042
16860W        W21260  13.431   3.077  13.367  0.1210  0.0175 -0.3100
16861W        W21261   4.843   0.173  17.153 -0.1333  0.1037 -0.0523
16862W        W21262  13.093   1.660   0.999  0.1852 -0.2444 -0.2361
16863W        W21263  24.349   3.848   9.133  0.0012  0.1641  0.1653
16864W        W21264   2.607   7.435  25.907 -0.0382  0.1634  0.0567
16865W        W21265   7.695   6.351   0.674 -0.2040 -0.2406  0.2121
16866W        W21266  20.842   2.774  17.480  0.3209 -0.1702 -0.1065
16867W        W21267   9.128   2.283  26.009 -0.4725  0.0919  0.2272
16868W        W21268  16.397   3.237   3.022 -0.0305 -0.1690 -0.1850
16869W        W21269   2.828   5.041  30.945  0.0105  0.1055 -0.1580
16870W        W21270  21.116   0.144  26.202  0.0004  0.0158  0.0024
16871W        W21271  25.077   0.535   6.274  0.0247  0.0198 -0.0602
16872W        W21272   0.028   2.961  19.999  0.1030 -0.1160 -0.0084
16873W        W21273  20.654   5.033   5.659  0.2680 -0.2268  0.0281
16874W        W21274   8.862   4.978  21.132 -0.2016 -0.1772 -0.2409
16875W        W21275  20.422   7.815  23.669 -0.0593  0.1462 -0.0695
16876W        W21276  17.772   2.091  26.650 -0.3489 -0.3747 -0.2811
16877W        W21277  19.182   2.202  29.556  0.2761 -0.0509  0.0064
16878W        W21278  21.915   1.587   4.808  0.3417  0.0057 -0.0156
16879W        W21279  23.759   6.247  14.015  0.2417  0.2139  0.2407
16880W        W21280  16.034   2.576  14.140  0.3287  0.1522 -0.0567
16881W        W21281  12.013   3.607   5.946 -0.0195  0.2862 -0.0200
16882W        W21282  23.050   2.428  21.957 -0.1040  0.0285  0.0998
16883W        W21283  15.842   5.776  13.985 -0.2346 -0.2041 -0.0027
16884W        W21284  16.768   3.772   9.396 -0.0723  0.0785  0.2621
16885W        W21285   5.781   6.402   8.046 -0.1182  0.1359  0.3895
16886W        W21286  17.762   3.225   7.113  0.2539 -0.1606 -0.1020
16887W        W21287  12.829   2.276   1.503  0.0126  0.1713 -0.1842
16888W        W21288   6.861   4.903   7.915 -0.2813 -0.0256  0.1337
16889W        W21289  13.093   6.971   0.232 -0.1086  0.4469 -0.2494
16890W        W21290  13.475   0.654  30.131  0.1414  0.1658 -0.1436
16891W        W21291  13.654   5.183   3.688  0.2136 -0.2756  0.0173
16892W        W21292  18.092   4.499  15.438 -0.2026  0.4886  0.2396
16893W        W21293  10.020   4.094   8.802 -0.1281  0.0153 -0.0628
16894W        W21294   0.337   4.323  21.936  0.2319 -0.0208 -0.2072
16895W        W21295   7.311   7.675  30.445  0.0781  0.0157  0.0923
16896W        W21296  19.667   7.607   9.639 -0.1490  0.0696 -0.0453
16897W        W21297  25.069   5.410  29.340  0.1494  0.1143  0.0828
16898W        W21298   4.046   1.774  25.226 -0.2507  0.0657  0.2009
16899W        W21299   7.404   3.581  21.817  0.2344 -0.0648  0.2716
16900W        W21300   3.368   2.388   1.938 -0.0692  0.0526  0.2556
16901W        W21301  15.383   1.755  10.353  0.0488  0.3860 -0.0782
16902W        W21302  15.356   0.022   7.024  0.2662 -0.0301  0.4130
16903W        W21303  24.562   7.504   0.759 -0.0130  0.0582  0.1738
16904W        W21304  23.982   3.871  10.343 -0.0110  0.0644  0.2460
16905W        W21305  18.800   4.340  22.795  0.0033  0.1535 -0.3787
16906W        W21306  18.355   7.581  13.667  0.1600  0.0087 -0.2554
16907W        W21307  15.923   1.504  31.399  0.0585 -0.0470 -0.0202
16908W        W21308   3.452   3.592   5.254  0.0929 -0.0562 -0.0789
16909W        W21309  18.469   6.234  11.928 -0.0637  0.1081 -0.1527
16910W        W21310   5.534   4.064  28.661 -0.1922  0.1905 -0.1873
16911W        W21311   3.049   6.901  19.305 -0.0227 -0.0335 -0.2039
16912W        W21312  24.626   2.461  12.904 -0.5386  0.0706  0.0330
16913W        W21313  10.377   0.173  26.692  0.0357 -0.1701 -0.2245
16914W        W21314  11.675   4.226   5.377  0.2714 -0.0364 -0.2384
16915W        W21315   3.552   3.588  17.150  0.0772  0.1570  0.2004
16916W        W21316  22.944   4.757   7.946  0.0668  0.0459 -0.1602
16917W        W21317  23.800   1.793   5.064  0.0410  0.0151 -0.2616
16918W        W21318  13.411   7.321   3.796  0.1955  0.2929 -0.0149
16919W        W21319   3.276   2.754   2.680 -0.0731 -0.0310 -0.1374
16920W        W21320  20.910   7.266  10.193 -0.0814  0.0376 -0.0537
16921W        W21321  13.042   4.753   4.881  0.0313 -0.0219 -0.0738
16922W        W21322  18.906   3.953  23.630 -0.0764 -0.3119 -0.1444
16923W        W21323  10.666   1.870  24.725  0.0856  0.1292 -0.0403
16924W        W21324   1.273   7.844   0.671 -0.0968  0.0426  0.2203
16925W        W21325  23.912   1.982   0.338  0.0125  0.1714  0.3394
16926W        W21326  18.201   0.606   6.119 -0.0209  0.0509  0.2044
16927W        W21327   1.458   7.164  32.283 -0.4105  0.0462  0.1247
16928W        W21328  24.801   6.876  11.859 -0.1240  0.1943 -0.0117
16929W        W21329  15.263   2.793  25.114  0.0809  0.0645  0.2051
16930W        W21330   7.227   2.240   7.590  0.3316  0.0621  0.0209
16931W        W21331  15.725   7.516  31.718 -0.0481 -0.1945 -0.0907
16932W        W21332  22.225   5.744  27.394  0.0006 -0.3907 -0.3309
16933W        W21333  20.530   3.749  14.104 -0.0180  0.1823  0.0215
16934W        W21334   2.018   3.810  28.207  0.0323 -0.0258 -0.0691
16935W        W21335   0.210   7.803  31.681 -0.0898 -0.1558 -0.2127
16936W        W21336  11.121   5.957  25.825  0.1044  0.0900 -0.0829
16937W        W21337   8.403   0.992  24.029 -0.0222  0.0879 -0.0004
16938W        W21338  11.759   2.788   5.230 -0.1522 -0.0877 -0.0118
16939W        W21339  23.447   2.922   5.159 -0.2610 -0.1093 -0.3197
16940W        W21340  17.446   7.678   5.347  0.1991  0.3294  0.1053
16941W        W21341   8.584   1.489   5.513  0.2462 -0.1600  0.1177
16942W        W21342  16.572   0.753   0.108  0.2096 -0.0922  0.0207
16943W        W21343  20.267   0.584  31.035 -0.2360 -0.0573 -0.1076
16944W        W21344  18.965   7.101   6.904  0.0025  0.0243  0.3419
16945W        W21345  24.793   3.286  12.333  0.0546  0.1159 -0.1659
16946W        W21346  20.757   2.523  30.771 -0.0648  0.2408  0.1875
16947W        W21347   4.581   7.580   6.647 -0.1795 -0.0678 -0.2260
16948W        W21348  17.143   3.354  28.138 -0.1194  0.1498  0.3315
16949W        W21349  22.298   0.730   2.954  0.1410 -0.0092  0.1899
16950W        W21350   0.739   6.469   2.472  0.0911  0.1605  0.3384
16951W        W21351  12.508   4.428  26.416 -0.1649  0.0489 -0.0567
16952W        W21352  20.607   3.609  14.728  0.0823  0.1600 -0.0717
16953W        W21353  16.972   7.250  11.177 -0.2811 -0.0713  0.0800
16954W        W21354  14.392   4.499  30.886 -0.0868 -0.0565  0.2311
16955W        W21355  10.334   0.767  19.058  0.0382  0.3452  0.0425
16956W        W21356   4.335   2.037  25.617 -0.0245 -0.0883  0.1544
16957W        W21357   4.867   2.953   7.270 -0.1211  0.2504  0.0635
16958W        W21358  19.407   6.950   7.956 -0.0795  0.0982  0.1156
16959W        W21359   0.302   7.716   5.567  0.0235  0.1476 -0.1041
16960W        W21360   9.784   1.638   1.257  0.0323 -0.1767 -0.0865
16961W        W21361  25.125   0.272  28.538  0.2155 -0.1399 -0.0681
16962W        W21362  20.300   7.242   5.109  0.0502 -0.1343 -0.3701
16963W        W21363   3.653   2.357   2.375 -0.0853 -0.0471 -0.0384
16964W        W21364  14.153   5.050  10.103 -0.0462  0.0973  0.1501
16965W        W21365  10.467   0.326  18.764 -0.1525  0.2220 -0.0876
16966W        W21366  11.531   4.052  27.982  0.1596  0.1574  0.0978
16967W        W21367  23.119   5.103   9.751  0.1507 -0.1219 -0.1502
16968W        W21368  10.503   5.229   4.900 -0.0234 -0.2141  0.2196
16969W        W21369   5.263   6.488  22.999 -0.1069 -0.0174  0.0946
16970W        W21370  14.001   0.197  25.889  0.0301 -0.1658 -0.1808
16971W        W21371   2.628   7.059  32.246 -0.0248 -0.0330  0.3084
16972W        W21372  11.015   3.746   5.107 -0.0232 -0.2071 -0.0109
16973W        W21373   0.392   7.173  30.346 -0.1786 -0.0403 -0.1022
16974W        W21374  11.729   2.527  24.627  0.2324  0.1019  0.0994
16975W        W21375  14.915   6.874  26.367  0.1251  0.0402  0.1497
16976W        W21376  20.784   6.846   1.005 -0.0349 -0.1041 -0.0061
16977W        W21377   3.277   5.932  16.904 -0.0271  0.1006  0.3939
16978W        W21378  16.051   0.175  16.113  0.3193  0.3112  0.0019
16979W        W21379   0.299   0.690  21.196  0.0379 -0.0938  0.3077
16980W        W21380  23.546   7.655  12.320  0.0147 -0.0859  0.2871
16981W        W21381  18.069   1.648  17.973 -0.0978 -0.2385  0.1117
16982W        W21382   8.646   4.177  20.074 -0.1341 -0.2059 -0.2370
16983W        W21383  17.039   7.298  26.384 -0.3926  0.0632 -0.2378
16984W        W21384   5.053   2.330   7.889  0.1911 -0.4929 -0.0439
16985W        W21385   9.004   1.153  31.684  0.0115 -0.0131 -0.3562
16986W        W21386  17.671   4.471  31.529  0.3733 -0.0521  0.2161
16987W        W21387  24.531   7.450  28.416 -0.1996 -0.2293 -0.2780
16988W        W21388  11.879   2.163  31.183  0.3534  0.1655  0.1735
16989W        W21389   6.545   4.981  20.179 -0.0532 -0.1437 -0.0825
16990W        W21390  21.410   2.686   8.874  0.0880  0.0161  0.2249
16991W        W21391  20.306   6.402   6.501 -0.2625 -0.0861 -0.0509
16992W        W21392   8.889   1.107  32.211 -0.0932  0.0038 -0.0438
16993W        W21393  11.222   5.989   8.392 -0.1176  0.0879  0.1002
16994W        W21394   1.846   2.948  31.031 -0.1178  0.1925 -0.2090
16995W        W21395   1.221   6.671  10.699  0.0281 -0.1509 -0.1043
16996W        W21396  16.404   3.683   0.866 -0.0666  0.0899 -0.0055
16997W        W21397   0.810   2.613   5.938 -0.1853  0.0899  0.0959
16998W        W21398   9.366   2.818  22.055 -0.0739  0.0800 -0.0756
16999W        W21399   7.797   1.533   5.161 -0.1028 -0.0166 -0.1511
17000W        W21400   1.800   2.872   2.845  0.0207 -0.1480 -0.1779
17001W        W21401   3.130   0.182  20.266 -0.0386 -0.0740  0.2158
17002W        W21402   6.882   0.706  28.540 -0.1446 -0.1043 -0.0905
17003W        W21403  21.762   7.291  27.041 -0.0627  0.1589 -0.0318
17004W        W21404  15.546   5.011  13.402 -0.1958 -0.0143 -0.0006
17005W        W21405  11.724   3.315   5.261 -0.1455  0.2043  0.1093
17006W        W21406  10.990   4.492  10.229  0.1634 -0.0858  0.1392
17007W        W21407  23.153   3.545  14.899  0.0075  0.0134 -0.0694
17008W        W21408  19.527   4.453  11.312 -0.2456 -0.0499 -0.1060
17009W        W21409   0.383   6.496  24.798 -0.1302 -0.1010  0.1493
17010W        W21410   0.377   5.809   3.306  0.1227 -0.0202  0.0958
17011W        W21411  18.669   5.661  29.914 -0.0528 -0.0964 -0.0943
17012W        W21412   6.097   3.616   3.867 -0.0802 -0.2534 -0.1149
17013W        W21413   1.826   2.567   5.093  0.0442  0.3129 -0.0866
17014W        W21414  11.933   6.313  29.335  0.0602  0.0694 -0.0945
17015W        W21415   9.612   1.521  10.699  0.0763  0.1164  0.0357
17016W        W21416   5.913   3.661  22.295 -0.2626 -0.0522 -0.3210
17017W        W21417   7.351   0.761  28.808 -0.0634 -0.1729  0.0547
17018W        W21418  18.597   2.640  17.580 -0.1152  0.1695 -0.0534
17019W        W21419   2.521   5.873   4.197 -0.3110  0.0256 -0.0635
17020W        W21420  22.439   7.805  32.573  0.2869  0.2342 -0.3552
17021W        W21421  13.611   4.795   5.488 -0.2454 -0.1182  0.1449
17022W        W21422  10.486   4.668  23.881  0.0069  0.0297 -0.3300
17023W        W21423  13.692   1.159  25.800 -0.1318  0.2652  0.0426
17024W        W21424   7.156   2.982   6.177  0.0797  0.0191  0.0472
17025W        W21425  22.514   5.508  31.629  0.1054 -0.2466 -0.1344
17026W        W21426  17.242   2.729  15.346 -0.0115  0.1161 -0.0574
17027W        W21427  16.850   0.515  24.437  0.3899 -0.0700  0.0330
17028W        W21428  22.025   7.134   0.618  0.2012 -0.1161 -0.1301
17029W        W21429   6.343   5.687   9.590  0.1279 -0.0014 -0.0321
17030W        W21430   5.880   4.077  25.568 -0.0449 -0.0145 -0.1226
17031W        W21431   7.998   3.795   3.277  0.0532 -0.3631 -0.0692
17032W        W21432  14.226   1.845   8.205 -0.1122 -0.3425 -0.3219
17033W        W21433  21.903   6.711  15.969 -0.0165  0.1804  0.0034
17034W        W21434  17.261   4.740   5.049 -0.0083 -0.1508  0.4324
17035W        W21435   0.372   0.086   4.890 -0.1163  0.0529  0.1980
17036W        W21436   0.539   2.494  11.082 -0.0015 -0.0092 -0.2229
17037W        W21437  15.911   5.613  24.487  0.2370 -0.0672  0.0927
17038W        W21438   9.965   6.342  23.238  0.0871 -0.1998  0.2615
17039W        W21439   1.105   7.037  12.700  0.0073  0.0473 -0.0540
17040W        W21440  10.195   4.827   4.922 -0.0499  0.0293 -0.0975
17041W        W21441  20.494   6.949  30.587  0.4274  0.1238  0.0854
17042W        W21442  11.084   6.015   1.119 -0.1167 -0.0342 -0.0051
17043W        W21443   7.183   5.312  18.934  0.2505 -0.0003 -0.2014
17044W        W21444  20.652   6.652  10.768 -0.2628  0.0588 -0.0681
17045W        W21445  12.518   6.292  27.667  0.0675 -0.1702  0.3059
17046W        W21446  10.363   4.981  20.827 -0.1008 -0.2880 -0.2604
17047W        W21447   6.795   2.761   4.471  0.2033 -0.5758  0.0438
17048W        W21448   1.867   0.077   3.771 -0.0243  0.1378 -0.0507
17049W        W21449  12.187   1.780  10.615  0.0161 -0.0913 -0.3960
17050W        W21450  22.633   0.696  25.344 -0.0471  0.2002 -0.0652
17051W        W21451  22.770   3.954   2.190 -0.0146  0.1918  0.1846
17052W        W21452   0.939   3.361  29.684 -0.0856  0.1218  0.1770
17053W        W21453  24.491   7.176   3.776  0.0615  0.0475  0.2378
17054W        W21454  13.534   1.133  20.046 -0.0951 -0.2782  0.0806
17055W        W21455   3.895   4.668  16.606 -0.1925  0.0209  0.2446
17056W        W21456   0.773   6.411  21.680  0.2747 -0.0221 -0.3674
17057W        W21457  23.486   2.021  31.061 -0.0511  0.2055 -0.0546
17058W        W21458   8.594   7.724  16.700 -0.0918  0.0153  0.0816
17059W        W21459   2.268   2.707  25.633  0.0876 -0.2775 -0.0359
17060W        W21460  17.684   0.079  23.211 -0.0661  0.1616  0.1903
17061W        W21461  24.973   5.578  25.615 -0.2673 -0.4171  0.3886
17062W        W21462  22.822   0.173  23.480 -0.3264 -0.0125  0.1055
17063W        W21463  20.363   6.738   2.354  0.1447  0.2069 -0.2952
17064W        W21464  15.776   4.619  11.805  0.1687 -0.0919 -0.0940
17065W        W21465  14.526   5.078  29.512  0.0813  0.1674  0.0077
17066W        W21466   2.672   3.667  25.327 -0.1933 -0.1132  0.1379
17067W        W21467  17.049   2.018   7.948  0.0922 -0.0822  0.0821
17068W        W21468  11.674   3.329  22.505 -0.3698  0.0451  0.1774
17069W        W21469   7.500   6.496   0.234  0.2770 -0.3215 -0.1116
17070W        W21470   2.105   1.279  16.783 -0.4629 -0.4503 -0.2294
17071W        W21471  16.693   7.375  10.514  0.0412 -0.0750 -0.0144
17072W        W21472   1.277   3.976  22.620  0.2725 -0.1468 -0.0468
17073W        W21473  16.745   6.650  29.768 -0.1473 -0.2859  0.0907
17074W        W21474   7.027   4.056   3.404 -0.5965 -0.0057  0.3045
17075W        W21475   1.146   5.653   7.266 -0.2856  0.2524  0.1586
17076W        W21476   6.350   5.066  29.505 -0.0168 -0.0215 -0.0717
17077W        W21477   7.414   5.868   5.461 -0.3186 -0.1417  0.0179
17078W        W21478  17.240   7.327  14.079  0.0779 -0.1439 -0.1889
17079W        W21479   7.289   2.281  29.760 -0.1319  0.1939  0.1333
17080W        W21480   6.731   4.345  25.803  0.3855 -0.1896  0.0779
17081W        W21481   0.017   6.575   9.926  0.2321 -0.2037  0.0782
17082W        W21482  17.783   6.675  32.536  0.0177 -0.0931  0.0538
17083W        W21483   7.377   2.563   1.120  0.0469  0.5040 -0.1870
17084W        W21484  16.986   1.998  10.391 -0.1399 -0.2068 -0.0402
17085W        W21485   3.121   6.342   0.313  0.0276 -0.0360 -0.0362
17086W        W21486  23.721   5.688  23.338  0.2238  0.1890  0.1039
17087W        W21487   6.565   4.686  24.816 -0.3168 -0.3484 -0.1160
17088W        W21488   4.421   1.117  16.649  0.2021  0.1923 -0.3008
17089W        W21489  14.389   5.515   3.945  0.2778  0.0247  0.0466
17090W        W21490  23.848   3.377  11.096  0.2037 -0.0415  0.3268
17091W        W21491  10.382   0.214  18.280 -0.0265 -0.1822  0.2333
17092W        W21492  17.108   5.932   7.908 -0.0653  0.1646  0.0240
17093W        W21493  19.932   0.089   7.615 -0.1848  0.1425 -0.0793
17094W        W21494   3.310   4.949   6.392  0.0325  0.0694 -0.1902
17095W        W21495   1.152   0.089  10.963 -0.4383 -0.1106  0.1699
17096W        W21496   1.043   1.203  19.921  0.0686  0.0324 -0.2397
17097W        W21497   4.423   4.897  29.224 -0.0581  0.0018  0.1615
17098W        W21498  12.473   5.448   1.256 -0.1105 -0.2781 -0.0075
17099W        W21499  22.037   2.800   8.233 -0.1482 -0.2907 -0.0244
17100W        W21500  15.880   0.187   7.727 -0.2153 -0.0766  0.2120
17101W        W21501  23.870   0.561  21.779  0.0649 -0.2139 -0.1780
17102W        W21502   1.159   7.401  25.996 -0.0146 -0.0551  0.1037
17103W        W21503  12.451   7.767  20.258 -0.1782  0.0021 -0.0573
17104W        W21504  10.061   7.816   2.737 -0.2050  0.2335  0.2396
17105W        W21505  10.602   7.564   7.492  0.1644 -0.2089  0.2020
17106W        W21506  12.945   0.475   1.897  0.0426  0.0545 -0.3517
17107W        W21507   4.033   5.280  27.140 -0.1510  0.1292 -0.4037
17108W        W21508   3.711   3.043  20.782 -0.2235 -0.0360 -0.0991
17109W        W21509  11.619   6.103  21.075 -0.0245 -0.0720  0.0621
17110W        W21510  15.537   6.782  10.728  0.4455 -0.5294 -0.0015
17111W        W21511  12.408   4.539   6.828  0.0542  0.4009  0.0414
17112W        W21512  16.468   5.957  10.114 -0.3074 -0.2937 -0.0539
17113W        W21513  15.224   5.823  13.668  0.0480  0.1742  0.0398
17114W        W21514   4.122   0.623  25.526  0.1649  0.3916 -0.4681
17115W        W21515  23.436   1.674  30.669 -0.0316  0.1125 -0.0014
17116W        W21516  21.461   7.700  23.316 -0.2580  0.0990  0.1021
17117W        W21517   9.804   0.615  19.763  0.0238  0.3298  0.0449
17118W        W21518   9.972   5.238  27.756  0.2105  0.0472 -0.0202
17119W        W21519   2.994   2.880   9.146  0.1698  0.1984 -0.1490
17120W        W21520  11.024   4.789   0.849  0.2306 -0.3964  0.0842
17121W        W21521   2.446   5.827  26.245  0.3014 -0.3058  0.0325
17122W        W21522   1.890   7.779  29.677 -0.1171  0.0795 -0.0306
17123W        W21523   9.071   5.563   6.554  0.0276 -0.1739  0.1045
17124W        W21524  18.476   7.782   9.279  0.1222 -0.0775 -0.0487
17125W        W21525  17.595   3.492   4.953 -0.1815  0.1268 -0.2377
17126W        W21526   4.697   0.832   1.134 -0.1155 -0.0592 -0.0842
17127W        W21527  16.049   3.360  14.797 -0.2600  0.0552 -0.1505
17128W        W21528   6.956   3.188  26.200  0.0758  0.0062 -0.1419
17129W        W21529  25.020   3.529  26.154 -0.5166 -0.1200 -0.1075
17130W        W21530   8.385   1.847   9.652  0.0071 -0.0645 -0.1854
17131W        W21531  11.828   3.124   6.919  0.1873 -0.1128 -0.1051
17132W        W21532  10.305   6.777   5.990 -0.0330 -0.1500 -0.0537
17133W        W21533  21.599   3.426  29.061 -0.2237 -0.1827  0.2125
17134W        W21534  23.608   7.263   0.584 -0.0338  0.2033  0.1115
17135W        W21535  24.793   0.021   2.387  0.0589 -0.2242 -0.0701
17136W        W21536  15.559   3.395   6.635  0.1910 -0.3676  0.1163
17137W        W21537   3.703   2.965   9.483  0.1514 -0.2144  0.0316
17138W        W21538   5.451   5.489   5.773 -0.2762  0.0856  0.0188
17139W        W21539   4.727   4.823  16.788 -0.0924 -0.0250  0.1514
17140W        W21540  17.867   5.735  28.069  0.1184  0.0815 -0.0256
17141W        W21541   2.814   0.320  20.632 -0.0124 -0.4632 -0.1491
17142W        W21542  21.908   1.470  31.311  0.0371  0.0676  0.1205
17143W        W21543  13.121   2.698   1.552 -0.3541 -0.3322 -0.1641
17144W        W21544  22.104   4.545  28.848 -0.0399 -0.2604  0.0702
17145W        W21545  21.755   0.165  28.686  0.3009  0.1288  0.3321
17146W        W21546   6.492   1.312   4.234 -0.1509 -0.0576  0.0391
17147W        W21547  20.495   1.102  14.759 -0.0562 -0.0566  0.3193
17148W        W21548  20.038   2.484  12.187 -0.1321  0.3482 -0.0654
17149W        W21549  24.354   4.822  20.866  0.1068  0.2541 -0.0057
17150W        W21550  23.690   6.815  12.040  0.4622  0.2440 -0.2267
17151W        W21551   9.891   4.848  15.885 -0.3157 -0.0646  0.1526
17152W        W21552  10.439   2.487  31.155 -0.0829 -0.2280  0.1643
17153W        W21553   5.956   1.483  26.131 -0.1007 -0.3571  0.0366
17154W        W21554   3.972   3.052   3.125 -0.0138 -0.2768 -0.0712
17155W        W21555  20.829   1.012  12.499  0.1874 -0.1860 -0.0816
17156W        W21556   6.798   6.661  26.197 -0.1679  0.2118 -0.4249
17157W        W21557   9.118   2.715  26.238  0.2069 -0.3867 -0.2536
17158W        W21558  12.383   5.817  28.793  0.2743 -0.2818 -0.1680
17159W        W21559   2.831   1.365  27.076  0.0319  0.1286  0.0042
17160W        W21560  22.299   1.338   7.110 -0.1023  0.0385  0.4573
17161W        W21561  15.131   0.341  31.648 -0.2701 -0.0365  0.0851
17162W        W21562   5.886   7.434  21.155  0.0366  0.0610 -0.0027
17163W        W21563   0.326   5.765  12.169 -0.0401 -0.2612 -0.0524
17164W        W21564   5.030   4.086   7.824 -0.2648 -0.4082  0.1681
17165W        W21565  10.660   6.479  16.451  0.3103  0.2709 -0.0990
17166W        W21566   8.806   1.995  29.145 -0.1318 -0.0550  0.1462
17167W        W21567  15.480   3.839   7.474 -0.2717  0.2004 -0.2611
17168W        W21568   6.337   5.499   3.989  0.0958 -0.2057 -0.0329
17169W        W21569  12.046   0.424   2.295  0.0976 -0.1011  0.1354
17170W        W21570  21.718   7.581  11.893 -0.1793 -0.0292 -0.2525
17171W        W21571  17.801   2.833   6.166  0.4333  0.0846 -0.0172
17172W        W21572  19.685   3.243  10.533 -0.2069  0.2067  0.1138
17173W        W21573  14.968   0.935  28.879  0.2183  0.3743 -0.2177
17174W        W21574  11.925   1.458  17.622 -0.0082 -0.1757  0.0170
17175W        W21575  16.471   1.339   8.116  0.1879  0.1926  0.0725
17176W        W21576   5.456   5.524  23.207 -0.1521  0.1225  0.2433
17177W        W21577   9.408   1.306   1.303  0.0289  0.4117  0.0047
17178W        W21578  18.654   3.367   4.975 -0.0236 -0.1966  0.2190
17179W        W21579  17.707   5.877  15.192  0.2707  0.2011 -0.1794
17180W        W21580   7.339   2.411  19.624 -0.1233 -0.2684 -0.1644
17181W        W21581  19.075   1.594   4.776  0.1316 -0.1914  0.0214
17182W        W21582  10.995   7.805  31.834  0.0527 -0.2905  0.0066
17183W        W21583  15.479   1.434  21.917  0.4130 -0.0212 -0.1056
17184W        W21584  18.133   2.924  16.717  0.1735 -0.1609 -0.3179
17185W        W21585  23.554   1.574  28.030  0.0330 -0.0564  0.0716
17186W        W21586  24.448   0.630   8.451 -0.1607  0.2403 -0.0034
17187W        W21587  13.873   6.160  13.982  0.3083  0.1284  0.1615
17188W        W21588  22.812   1.455   4.697  0.1242 -0.1981 -0.0002
17189W        W21589  12.243   6.514   2.057  0.0582  0.0469  0.2135
17190W        W21590  16.419   6.878  30.092 -0.1483  0.0228  0.1230
17191W        W21591   1.201   5.664  12.564  0.4208 -0.4563 -0.3549
17192W        W21592   8.876   2.006   8.515 -0.0955 -0.0831  0.1421
17193W        W21593   6.014   6.299  23.279 -0.0295 -0.2878  0.1159
17194W        W21594   8.783   4.552   7.033  0.0473  0.0269  0.1151
17195W        W21595   2.472   5.911  28.902  0.1742 -0.3129  0.1321
17196W        W21596   7.423   2.143  28.345 -0.2149 -0.1440 -0.1397
17197W        W21597   0.248   5.007   8.735 -0.0866  0.1293  0.0280
17198W        W21598   8.779   6.770  22.282 -0.0613  0.2132 -0.2600
17199W        W21599  13.280   3.501  30.531 -0.2439  0.1671 -0.3326
17200W        W21600  17.660   2.674  29.459 -0.0819 -0.0749 -0.1041
17201W        W21601  24.898   5.630  21.048 -0.1041  0.0286  0.0885
17202W        W21602  18.356   2.492   7.034  0.3545 -0.1253 -0.2771
17203W        W21603  10.268   4.432  28.846 -0.0346  0.1708  0.1273
17204W        W21604  16.103   3.214   0.129  0.1580  0.0674  0.0534
17205W        W21605   3.280   1.042  28.934 -0.0170 -0.1129 -0.0095
17206W        W21606   1.030   4.476   5.161  0.0768  0.2111 -0.0577
17207W        W21607   9.977   5.908  19.752 -0.2908 -0.0037  0.0393
17208W        W21608  12.969   5.751  10.556 -0.3771  0.1705  0.1421
17209W        W21609  13.241   7.013   7.545  0.1195  0.0421  0.0500
17210W        W21610  16.822   6.280  24.296 -0.0356 -0.2873 -0.2232
17211W        W21611  12.052   2.066   5.799  0.2980  0.0744  0.1726
17212W        W21612  15.257   4.977   3.436 -0.2572 -0.1503  0.1458
17213W        W21613  21.222   6.327  12.355 -0.1496  0.0257  0.2240
17214W        W21614  16.758   0.196   1.321  0.0504 -0.0265  0.2737
17215W        W21615  10.522   0.232   4.812  0.1758  0.0117 -0.0555
17216W        W21616  12.787   5.286   5.695  0.0070 -0.1000 -0.0738
17217W        W21617   9.563   0.469  26.290 -0.1651  0.0487 -0.0530
17218W        W21618  12.514   6.972  11.932 -0.1068  0.1125  0.1205
17219W        W21619   1.442   0.265  30.466  0.0471  0.0646 -0.0344
17220W        W21620  24.330   5.710   9.473 -0.0088 -0.0534 -0.1442
17221W        W21621   2.008   5.982   4.881  0.2677 -0.3469 -0.0127
17222W        W21622   3.184   4.890   3.533 -0.2278 -0.2268  0.0135
17223W        W21623  20.070   3.899  12.270 -0.2755 -0.1978 -0.0426
17224W        W21624  15.407   2.481  25.812  0.2547  0.1980 -0.0808
17225W        W21625  22.500   3.862  11.627 -0.1008  0.2413 -0.1439
17226W        W21626   8.185   0.175  18.471 -0.2163  0.1211  0.1582
17227W        W21627  10.540   7.480  23.520 -0.0849  0.3081  0.0840
17228W        W21628   9.052   2.242   9.042 -0.0835  0.1923  0.1421
17229W        W21629  11.738   3.908   3.851 -0.3667  0.0549  0.1754
17230W        W21630   0.537   1.068  28.603  0.0523 -0.1251  0.0563
17231W        W21631   6.460   1.506  24.332  0.1897 -0.1925 -0.0459
17232W        W21632   9.340   6.800   7.651 -0.1293 -0.1760 -0.3275
17233W        W21633  11.707   2.936  31.486 -0.0224  0.0254 -0.2109
17234W        W21634  15.437   7.218  23.607 -0.2563 -0.0089 -0.1763
17235W        W21635  19.519   6.575  16.604  0.0018 -0.1326 -0.2622
17236W        W21636  20.906   7.165  25.881  0.0782 -0.0390 -0.1694
17237W        W21637  22.755   6.076  25.933  0.0129  0.1910 -0.2093
17238W        W21638   0.599   0.395   4.567 -0.1145  0.3079 -0.2340
17239W        W21639  24.675   2.577  24.251 -0.1021  0.3911 -0.1187
17240W        W21640  15.158   7.039   5.914 -0.1944  0.1033 -0.1403
17241W        W21641  16.917   6.433   1.705 -0.1574 -0.1984 -0.5152
17242W        W21642  12.777   3.975  27.399 -0.2980 -0.1034  0.1273
17243W        W21643   1.429   7.592  29.671 -0.4477  0.0487 -0.1938
17244W        W21644  10.211   4.169   3.835  0.2182  0.1241  0.1226
17245W        W21645   6.382   3.936   6.006  0.0783  0.0614 -0.0556
17246W        W21646  18.951   2.467   1.761  0.0386 -0.0326 -0.0817
17247W        W21647   3.481   0.020  19.903 -0.1551 -0.2713 -0.1009
17248W        W21648  16.148   7.586  24.597 -0.0061 -0.2221  0.0107
17249W        W21649   6.540   3.807  28.225  0.0014 -0.0923 -0.2199
17250W        W21650  16.266   3.738   9.276  0.1485  0.1923 -0.2414
17251W        W21651  19.087   1.748  16.313 -0.1247  0.1065 -0.0955
17252W        W21652  22.176   0.533  31.066 -0.1351 -0.2333 -0.2779
17253W        W21653   1.481   2.513  24.355  0.0336  0.0133 -0.1604
17254W        W21654  15.930   1.878  31.778 -0.0104 -0.0555 -0.0643
17255W        W21655  12.889   1.684   3.115 -0.0630  0.0818 -0.2100
17256W        W21656   9.999   3.858  18.292  0.0996 -0.0561  0.2985
17257W        W21657  12.087   0.959  10.912  0.2126 -0.1517  0.1045
17258W        W21658  19.534   6.870  13.154  0.1105 -0.1515  0.1034
17259W        W21659   4.847   1.212  26.553 -0.3188 -0.4781 -0.0723
17260W        W21660   6.791   1.413  14.906  0.1072 -0.1871  0.1075
17261W        W21661  16.335   3.203  14.434 -0.2142 -0.0996 -0.0308
17262W        W21662  23.950   4.423  30.706  0.0259 -0.3935 -0.0031
17263W        W21663   7.515   2.669  31.354  0.0668  0.0745  0.0036
17264W        W21664  10.001   2.472  21.626 -0.2725 -0.1116  0.2767
17265W        W21665   7.769   5.039   2.819  0.1216  0.0423 -0.2468
17266W        W21666   1.960   6.062   1.024  0.0913 -0.0986  0.0457
17267W        W21667  15.338   3.880   6.462 -0.1484  0.1987 -0.1879
17268W        W21668   1.648   4.993   9.998  0.0129 -0.0302  0.2149
17269W        W21669   3.242   5.363  26.882  0.1035  0.1166 -0.1027
17270W        W21670  14.617   6.166  12.464 -0.1627  0.2657 -0.1692
17271W        W21671   5.881   1.650   6.879 -0.2088 -0.1818  0.0538
17272W        W21672  16.764   3.643   3.061 -0.0484  0.0090 -0.0140
17273W        W21673  22.581   7.125   4.365  0.1912  0.1274 -0.0198
17274W        W21674  17.425   6.629   1.672 -0.2186 -0.1337 -0.0212
17275W        W21675  17.316   5.318   7.639 -0.1613  0.2535 -0.2411
17276W        W21676  22.694   0.908   3.884 -0.0525 -0.4992 -0.2329
17277W        W21677  10.828   1.181  21.889  0.1130 -0.2151  0.1366
17278W        W21678  13.073   3.577  25.421 -0.1627 -0.0025  0.0268
17279W        W21679   2.692   1.832   2.641 -0.0805 -0.1189  0.0734
17280W        W21680  25.084   3.258   4.594 -0.3360  0.0743 -0.3053
17281W        W21681  18.478   7.497  25.126  0.1227  0.0492 -0.0836
17282W        W21682   7.776   3.390  27.087  0.1705  0.1125  0.0669
17283W        W21683  21.445   2.804  24.781 -0.3961  0.0038 -0.1418
17284W        W21684  11.710   3.014   4.807  0.0837 -0.0997 -0.0368
17285W        W21685  10.944   2.541  31.791  0.0591  0.0856  0.2222
17286W        W21686   9.203   5.725   5.072 -0.2666  0.0688 -0.1124
17287W        W21687  23.024   4.258  23.346 -0.1809 -0.1820  0.0209
17288W        W21688  20.939   6.079  23.129  0.4181  0.0614 -0.0217
17289W        W21689   5.518   2.690  27.311  0.1638  0.1364 -0.2225
17290W        W21690  12.584   4.463  28.639  0.2362 -0.1617 -0.0271
17291W        W21691  11.838   2.055   5.247  0.2376  0.0844 -0.0683
17292W        W21692   1.567   3.622   3.860  0.0844  0.2089 -0.1770
17293W        W21693  18.751   3.644  28.557  0.0424  0.2156 -0.1784
17294W        W21694   7.143   4.213  24.267 -0.0409  0.1531 -0.3786
17295W        W21695  16.596   4.696  31.657 -0.0879  0.0990  0.2545
17296W        W21696   2.487   4.093  25.497 -0.1523 -0.1972  0.1683
17297W        W21697  22.751   1.908   2.098  0.2241 -0.3002  0.1583
17298W        W21698  14.160   4.496  31.397 -0.2046  0.0983 -0.0157
17299W        W21699   6.442   5.715   1.769 -0.2199 -0.1809 -0.3051
17300W        W21700   5.469   0.701  27.821  0.1003  0.0081  0.0620
17301W        W21701   3.728   6.438  30.467 -0.1818 -0.1277  0.2123
17302W        W21702  14.263   6.820   6.266 -0.2030  0.2087  0.0032
17303W        W21703  19.492   5.646  23.961 -0.0008  0.0581  0.0910
17304W        W21704  10.959   7.329  30.871 -0.0461 -0.1374  0.2454
17305W        W21705  19.843   1.391  15.263 -0.3417 -0.0241 -0.4342
17306W        W21706  14.729   4.559   9.030  0.3795  0.2550  0.0061
17307W        W21707  24.579   2.114  24.291  0.1230  0.2211  0.0672
17308W        W21708  23.482   0.685  25.567 -0.1435  0.0313 -0.0818
17309W        W21709  10.698   3.577   9.713  0.1515 -0.2061 -0.1730
17310W        W21710  17.093   2.256   4.650  0.2133 -0.0557  0.2674
17311W        W21711   3.992   0.863  21.227 -0.5303 -0.2351 -0.1790
17312W        W21712  20.836   5.127   9.544 -0.1596 -0.1414  0.1289
17313W        W21713  11.156   0.950  27.732 -0.1736  0.1724  0.0586
17314W        W21714   3.677   1.426   0.310 -0.1186  0.2705  0.2469
17315W        W21715   7.467   1.680  29.096  0.0311 -0.0814  0.1271
17316W        W21716  14.370   4.385   1.528 -0.2015  0.2703  0.1532
17317W        W21717   7.434   5.812   3.284  0.0858 -0.0910  0.0811
17318W        W21718   8.067   0.879  14.449 -0.1231 -0.3033 -0.2073
17319W        W21719   4.612   5.529  20.546  0.1109 -0.1450  0.2023
17320W        W21720  21.596   7.134  11.583  0.0749 -0.0192 -0.0279
17321W        W21721   9.177   6.488  23.519  0.0617  0.1464 -0.1416
17322W        W21722  12.935   4.143   1.339  0.1179 -0.1699 -0.1358
17323W        W21723   5.772   3.874  15.339 -0.0867 -0.0622  0.3649
17324W        W21724  20.518   7.347   9.911 -0.0524  0.1967  0.0254
17325W        W21725  15.835   3.364  10.013 -0.0120  0.0231  0.1722
17326W        W21726   7.118   2.205  23.756 -0.2706 -0.1272  0.2012
17327W        W21727   0.979   3.906  31.298  0.0791 -0.1791  0.1002
17328W        W21728  17.219   6.656  27.217 -0.0367  0.0742  0.0471
17329W        W21729  15.016   7.560  11.249 -0.3436 -0.2913  0.1134
17330W        W21730  11.178   4.424  29.225  0.0618  0.1344 -0.0382
17331W        W21731   2.762   0.062   0.704  0.0613  0.1826 -0.1912
17332W        W21732  24.272   3.562   0.007 -0.1866  0.1639  0.1468
17333W        W21733   1.099   6.081  18.709 -0.1122 -0.0222 -0.0570
17334W        W21734  15.112   1.356  11.625 -0.1456  0.3234  0.0069
17335W        W21735   2.475   2.629  17.914 -0.3083  0.1865  0.0865
17336W        W21736  21.744   7.174  29.077 -0.0825 -0.3019  0.2877
17337W        W21737   4.825   5.367   7.743  0.3515  0.2144  0.1787
17338W        W21738   1.230   3.982  25.359 -0.0259 -0.0161 -0.0139
17339W        W21739   7.601   3.099  25.499  0.2708 -0.0611 -0.1137
17340W        W21740   7.346   1.809   6.751  0.1398 -0.3454  0.1914
17341W        W21741   6.970   3.862  32.025  0.0543  0.2821 -0.2516
17342W        W21742  12.392   6.565   3.535 -0.0198 -0.3236 -0.0375
17343W        W21743  11.569   7.194  26.957 -0.0206  0.0702 -0.2853
17344W        W21744  23.143   5.898  21.946  0.0921 -0.0868 -0.0268
17345W        W21745   9.154   1.820  16.094 -0.2881  0.0739  0.3356
17346W        W21746  17.214   4.040  13.886  0.0908  0.0068  0.2044
17347W        W21747   4.820   5.395   7.108 -0.0220  0.1281 -0.0940
17348W        W21748  14.210   0.474   9.077  0.4953  0.0359 -0.0770
17349W        W21749   9.566   5.665  25.317  0.3352  0.1221 -0.0801
17350W        W21750  10.756   4.540   1.301  0.0229  0.0447  0.1860
17351W        W21751  16.945   6.470  22.852 -0.2284  0.0838 -0.1926
17352W        W21752   4.844   1.508   1.740 -0.1639  0.0272 -0.0997
17353W        W21753  23.068   1.675  10.824 -0.2518  0.1442  0.0371
17354W        W21754   7.665   5.722  23.106 -0.1124 -0.2870 -0.2057
17355W        W21755   6.991   4.089   6.742  0.0207  0.1945  0.0722
17356W        W21756  10.335   2.539  29.729  0.0240 -0.0610 -0.1024
17357W        W21757   5.436   1.262  21.965 -0.1023  0.0382 -0.2356
17358W        W21758  21.183   1.722  28.483 -0.2209  0.0145  0.4678
17359W        W21759  16.188   0.685  26.621  0.3763  0.2876  0.1887
17360W        W21760  14.102   5.657  23.550  0.0891 -0.1175  0.2787
17361W        W21761  11.368   7.423  31.506 -0.0109  0.0989 -0.3361
17362W        W21762  24.251   0.191  21.816 -0.0631  0.2592  0.1158
17363W        W21763  15.482   7.670  26.393  0.4995 -0.2690 -0.0811
17364W        W21764   9.968   4.769  21.505  0.0733  0.4212 -0.0620
17365W        W21765   1.454   0.274   3.501 -0.1485 -0.1373  0.3195
17366W        W21766   9.918   2.421   6.197  0.0884  0.1150  0.3564
17367W        W21767  23.661   4.593  11.424  0.1827  0.1080 -0.0758
17368W        W21768  19.549   3.632  12.249  0.0379  0.1472 -0.2235
17369W        W21769  13.756   0.115  14.394  0.3590 -0.0656 -0.2147
17370W        W21770   1.972   2.646  23.921 -0.1715  0.1800  0.1776
17371W        W21771   5.059   0.551  29.468  0.2054 -0.2514 -0.2691
17372W        W21772  17.358   3.352  16.860 -0.0081 -0.2270 -0.3660
17373W        W21773  14.100   7.530  24.338 -0.3546 -0.0021 -0.0863
17374W        W21774   5.692   4.776  24.298 -0.1550 -0.2714  0.0105
17375W        W21775  21.356   1.529  17.082  0.0888  0.1008 -0.0512
17376W        W21776  23.688   2.303   4.801  0.1856  0.0637 -0.1447
17377W        W21777   4.952   5.104  20.555  0.1074 -0.3417 -0.0556
17378W        W21778  24.764   6.817   8.400 -0.0756  0.2775 -0.2275
17379W        W21779   6.925   5.329  19.407  0.0072 -0.1999  0.0331
17380W        W21780  24.208   5.325   5.692  0.1801 -0.0045 -0.3986
17381W        W21781  22.861   2.211   7.206  0.1706 -0.0478  0.2285
17382W        W21782  18.908   2.751  23.159  0.0379  0.2212  0.0903
17383W        W21783  20.206   0.513   7.271 -0.2830  0.1318  0.0469
17384W        W21784  15.729   5.565  15.853 -0.0401 -0.2337  0.0868
17385W        W21785   0.309   1.861   3.049  0.2097  0.0726  0.1415
17386W        W21786  14.489   4.360  27.245 -0.0187  0.0033 -0.2110
17387W        W21787  20.230   6.641  24.922  0.0440 -0.1522 -0.3554
17388W        W21788  24.307   6.551   9.866 -0.0338 -0.0502 -0.3201
17389W        W21789   0.552   1.072  32.031 -0.0909 -0.2257 -0.2235
17390W        W21790   6.723   4.947  29.949 -0.1846  0.1663  0.2754
17391W        W21791   3.837   4.190   2.070 -0.0238 -0.3518  0.1064
17392W        W21792   8.186   5.474  15.584 -0.1425  0.3978  0.2358
17393W        W21793  23.532   4.383   2.011 -0.3692  0.1024 -0.1882
17394W        W21794  19.992   1.913   5.695  0.1511 -0.2531 -0.0730
17395W        W21795  24.345   3.703   6.363 -0.0287 -0.1268  0.2687
17396W        W21796  18.590   2.845   7.914  0.1726  0.1464  0.0550
17397W        W21797  22.369   0.695   9.043  0.2330 -0.1393  0.1581
17398W        W21798   0.862   7.289  26.768 -0.0435  0.3355 -0.1548
17399W        W21799  14.634   1.741   6.718  0.0455 -0.1334 -0.2863
17400W        W21800  23.663   2.497   6.326  0.0489  0.2279  0.0412
17401W        W21801  13.728   7.492   4.124 -0.4331 -0.0673 -0.1840
17402W        W21802  14.293   1.406  31.169 -0.0689 -0.1669  0.0551
17403W        W21803  13.568   6.328   2.068  0.2276 -0.2696  0.0691
17404W        W21804  20.896   7.712  22.489 -0.0369 -0.0487 -0.1690
17405W        W21805  20.074   6.691  11.518  0.0597 -0.3910 -0.1898
17406W        W21806   0.831   6.705  23.991  0.2091  0.2670 -0.0988
17407W        W21807   6.577   2.302  22.603  0.2456 -0.1057  0.1085
17408W        W21808  10.877   5.313  17.621  0.2958  0.0995  0.1106
17409W        W21809  23.973   1.911  10.573 -0.0938 -0.0132 -0.0021
17410W        W21810  19.204   2.795  28.280  0.1672  0.2168 -0.2022
17411W        W21811  21.704   1.024   4.214 -0.0026 -0.2634  0.0609
17412W        W21812  15.897   2.453  27.016 -0.0763 -0.2297  0.0735
17413W        W21813  11.915   2.409  21.035 -0.0038  0.3695  0.1309
17414W        W21814  10.003   2.016  21.910 -0.0298  0.3978  0.0789
17415W        W21815   9.806   3.897  21.265  0.1195 -0.0494 -0.2213
17416W        W21816   4.139   0.698  32.337 -0.4109 -0.1969  0.2153
17417W        W21817  22.166   3.904   8.783  0.0832  0.0927 -0.1775
17418W        W21818  10.812   7.827  21.026  0.1539 -0.3469 -0.1368
17419W        W21819   0.804   0.654   8.850  0.2944  0.0166 -0.3779
17420W        W21820  19.654   5.741  28.301  0.1426  0.1576 -0.1141
17421W        W21821   5.442   6.097  27.041  0.0154 -0.1053  0.0768
17422W        W21822  16.811   0.186  16.894  0.0298 -0.0763  0.1379
17423W        W21823  24.540   1.582  21.963 -0.0835  0.0278 -0.0808
17424W        W21824   8.944   5.995  21.819  0.0307  0.0061  0.0767
17425W        W21825   4.552   2.063  27.986 -0.1083 -0.3563  0.1903
17426W        W21826  12.276   1.774  20.380  0.1872 -0.1262 -0.1960
17427W        W21827  14.154   5.373  12.318  0.3136  0.1620  0.2062
17428W        W21828  18.802   4.928  15.178 -0.0872 -0.2244 -0.2485
17429W        W21829   4.209   3.494  24.616  0.2851 -0.0701 -0.0901
17430W        W21830  11.644   7.307   3.551  0.0621  0.0208  0.0364
17431W        W21831  10.247   1.715  16.655  0.0115  0.1573  0.0849
17432W        W21832  21.658   4.792   5.442  0.0196  0.4864  0.4218
17433W        W21833   5.810   4.705  22.766  0.0381  0.0680 -0.1810
17434W        W21834  20.144   5.643  23.135  0.0562 -0.2055 -0.1275
17435W        W21835  15.428   7.791   5.059  0.2836  0.2506  0.0168
17436W        W21836  19.879   4.551  12.024  0.2171  0.1294  0.1156
17437W        W21837  20.494   4.703   5.994  0.0219 -0.3920 -0.2465
17438W        W21838   0.816   4.103  32.097 -0.1423  0.4040  0.1702
17439W        W21839  24.276   1.137  11.126  0.1364 -0.1179 -0.0185
17440W        W21840  12.274   3.593  21.275 -0.1157  0.0858 -0.3057
17441W        W21841  23.855   3.954   4.378  0.0632  0.1526  0.1477
17442W        W21842  15.173   0.128   4.157 -0.1905 -0.2081  0.2296
17443W        W21843   1.854   3.075  23.694  0.1782  0.0613  0.2209
17444W        W21844   4.625   1.789   2.973 -0.1217 -0.3322  0.0155
17445W        W21845  10.456   4.213   4.267 -0.2548 -0.0287  0.0240
17446W        W21846   4.415   3.369   4.479 -0.2186 -0.0242  0.1182
17447W        W21847  22.648   2.346  25.642 -0.0715  0.3118 -0.1479
17448W        W21848  23.446   6.388   5.111 -0.1355 -0.0884 -0.1272
17449W        W21849  18.122   0.006  31.998 -0.0663  0.1678  0.3156
17450W        W21850  12.711   6.724  11.440  0.0565  0.3642  0.3101
17451W        W21851   9.780   2.908   8.845 -0.0155 -0.5522 -0.1267
17452W        W21852  20.900   1.468   5.902 -0.2471 -0.0889 -0.0428
17453W        W21853  17.054   3.199  15.102 -0.2762  0.0180  0.0706
17454W        W21854   9.251   2.827  24.788 -0.1393  0.0188 -0.1478
17455W        W21855  15.007   4.168  26.389  0.0206  0.3541 -0.3284
17456W        W21856   3.291   2.865   7.357  0.1574 -0.1529  0.0342
17457W        W21857   5.364   4.235   2.956  0.1888  0.0766 -0.1768
17458W        W21858  19.549   5.534  23.115  0.1607 -0.3170  0.3366
17459W        W21859   4.530   4.070   8.565 -0.1899 -0.1201  0.0284
17460W        W21860   7.666   7.616   2.030 -0.2306  0.3035  0.0170
17461W        W21861  11.761   2.674  27.481 -0.2066  0.1685  0.2102
17462W        W21862  15.443   1.879  15.222  0.3963 -0.0735  0.0974
17463W        W21863  11.118   6.454  21.576  0.0014  0.1705  0.1386
17464W        W21864  22.352   3.582   8.479 -0.1379 -0.2692 -0.0771
17465W        W21865   2.856   1.017   5.426  0.1795  0.2296  0.0137
17466W        W21866   6.465   3.280  22.331 -0.0194 -0.1835  0.3999
17467W        W21867   8.501   4.111   5.570  0.1015  0.1344  0.0757
17468W        W21868   5.346   5.899   2.288  0.0285  0.0265  0.0600
17469W        W21869   4.446   4.064  21.467  0.3313  0.0011  0.1284
17470W        W21870   0.752   5.532  25.556 -0.1410  0.2957  0.0415
17471W        W21871  20.556   6.275  12.573 -0.2435  0.2148  0.1820
17472W        W21872  17.365   6.351  31.181  0.0696  0.0063  0.0582
17473W        W21873  19.597   1.380  24.599 -0.1044  0.0119  0.1777
17474W        W21874   8.004   6.208  18.092  0.1104 -0.3069 -0.1664
17475W        W21875  15.515   7.387  11.672 -0.1814  0.0829 -0.2049
17476W        W21876   5.036   5.419  32.327  0.1669 -0.0508 -0.0775
17477W        W21877   3.395   2.228  30.344 -0.0487  0.0684  0.1738
17478W        W21878   9.500   6.021  28.053  0.0309 -0.0148  0.2064
17479W        W21879  17.347   6.438   3.933 -0.0448 -0.2775 -0.1339
17480W        W21880  15.677   3.598   8.416 -0.1703 -0.2087 -0.1624
17481W        W21881  19.348   3.688  32.290 -0.0537 -0.1756 -0.3001
17482W        W21882  23.493   5.323  23.857 -0.1726 -0.0421  0.0216
17483W        W21883   4.812   1.123  22.023 -0.2342  0.0933 -0.0060
17484W        W21884   2.219   3.287   5.070  0.1210  0.0103 -0.0593
17485W        W21885  10.974   5.099  21.599 -0.3288 -0.0551  0.1231
17486W        W21886   6.113   4.049  15.905  0.0160  0.0336  0.0351
17487W        W21887   6.149   4.591  14.561 -0.3230 -0.1289 -0.0369
17488W        W21888  15.220   3.189  13.218  0.0645  0.3189 -0.1964
17489W        W21889   5.923   3.944  16.817 -0.0115  0.4828  0.0752
17490W        W21890   1.302   4.343  17.931 -0.0695 -0.0415 -0.0118
17491W        W21891  16.115   5.068  13.041  0.0561  0.1295 -0.1828
17492W        W21892  25.064   2.984   3.892  0.3828  0.0649  0.0390
17493W        W21893  22.787   0.851   5.945 -0.0598  0.0845 -0.2461
17494W        W21894  20.355   6.656  28.989 -0.1939  0.3321 -0.2698
17495W        W21895  13.224   5.747  28.186 -0.0206  0.0547 -0.2363
17496W        W21896   8.916   2.849  18.416 -0.2447  0.2189  0.1666
17497W        W21897  12.450   6.361  23.687 -0.0361  0.3528  0.3507
17498W        W21898   5.272   6.398  17.551  0.2911 -0.1078  0.0654
17499W        W21899  10.962   4.191  19.399 -0.0133  0.0295  0.1722
17500W        W21900   4.042   7.133  27.185 -0.0025  0.0137 -0.1617
17501W        W21901  11.429   3.951   5.834  0.4687 -0.1727 -0.1444
17502W        W21902  17.326   0.397  11.954 -0.2946  0.1447  0.1096
17503W        W21903   6.263   3.451  16.654  0.0888 -0.1101 -0.1183
17504W        W21904   2.478   4.755  10.097 -0.0229 -0.0022  0.0950
17505W        W21905   6.329   1.020  27.966  0.1711  0.1017 -0.0944
17506W        W21906   9.802   3.412  29.902 -0.2800  0.1082  0.0560
17507W        W21907   3.158   4.722   2.108  0.1318  0.0790 -0.0014
17508W        W21908  20.766   5.129   3.205 -0.0560 -0.1599  0.0602
17509W        W21909   3.004   4.816  32.353 -0.0352  0.0947 -0.1975
17510W        W21910   8.780   2.026   2.997  0.1326 -0.1433  0.5898
17511W        W21911  14.074   0.680  25.229 -0.1211 -0.2462  0.0725
17512W        W21912   0.536   0.195   5.890 -0.1588 -0.2728 -0.1149
17513W        W21913  15.024   5.412  12.262  0.0755  0.0026 -0.1218
17514W        W21914  20.862   5.323   7.080  0.1218 -0.1019 -0.3075
17515W        W21915  13.466   2.510  30.504 -0.2075  0.3146 -0.0179
17516W        W21916  13.881   2.963  29.314 -0.0609  0.0153  0.0217
17517W        W21917   5.858   5.734   1.424 -0.0205 -0.0257 -0.2987
17518W        W21918   2.583   7.192  20.648  0.1332 -0.1058 -0.2942
17519W        W21919  20.053   0.284  28.636  0.3485 -0.2202 -0.0952
17520W        W21920   2.982   7.273   6.214  0.0520  0.0741 -0.2313
17521W        W21921  24.719   0.625  28.552 -0.4841  0.2749 -0.0635
17522W        W21922  16.333   6.866  25.576  0.0927  0.0571  0.2021
17523W        W21923  24.258   5.372  30.977 -0.3126 -0.1569 -0.0070
17524W        W21924  11.496   1.837   4.281 -0.1325  0.0634 -0.2381
17525W        W21925   3.211   4.090   9.765  0.1858  0.2405  0.0298
17526W        W21926   5.157   0.576   0.504  0.0318  0.1253  0.0051
17527W        W21927  23.026   7.087  22.392 -0.3449  0.0636 -0.0186
17528W        W21928  19.597   2.783  28.659  0.1554 -0.1376  0.1125
17529W        W21929   4.686   4.762  18.373  0.3590  0.1325 -0.0337
17530W        W21930   3.691   6.519   7.912 -0.1407 -0.1635  0.3282
17531W        W21931   9.339   0.452  10.380 -0.0734 -0.3293 -0.2573
17532W        W21932   1.099   7.467  28.135 -0.3265  0.1260 -0.0625
17533W        W21933  10.971   2.455   3.433 -0.0690 -0.0931 -0.0953
17534W        W21934   9.063   1.012  17.245 -0.1874 -0.0248 -0.3057
17535W        W21935  22.733   2.857  24.915  0.0735  0.0693 -0.1590
17536W        W21936  17.678   4.577   8.715 -0.1252  0.0323  0.0454
17537W        W21937   5.271   5.659  15.763 -0.0879  0.1501  0.2166
17538W        W21938   6.832   0.041  30.498 -0.0543 -0.1513  0.0607
17539W        W21939  10.757   1.250  21.334  0.1639  0.0341  0.1170
17540W        W21940  23.696   6.978   7.798  0.0244 -0.4129  0.1943
17541W        W21941   3.090   3.874  24.491 -0.2249  0.0700  0.2249
17542W        W21942  10.116   0.569  28.061 -0.0387 -0.0907  0.3816
17543W        W21943   2.795   5.098  24.411  0.3561  0.2373 -0.1591
17544W        W21944   2.019   4.613   7.601 -0.1734 -0.0976  0.0397
17545W        W21945   5.381   5.359  18.389  0.4596 -0.1641  0.0411
17546W        W21946  14.918   2.522   0.843 -0.0917 -0.2441  0.3630
17547W        W21947   3.692   5.147  23.242 -0.1944  0.1685  0.1509
17548W        W21948  14.445   7.602  32.443  0.1538  0.0816 -0.1564
17549W        W21949  19.884   1.545   3.495  0.1037 -0.3541  0.0387
17550W        W21950  21.865   4.971  15.373  0.1764 -0.1322  0.4811
17551W        W21951  14.324   4.829  12.539 -0.0537  0.0829 -0.2538
17552W        W21952  10.961   5.041  10.955  0.0195 -0.0843  0.0937
17553W        W21953   3.587   0.731  20.950  0.2793 -0.1998  0.2345
17554W        W21954  14.339   1.646  23.390  0.3602 -0.2503  0.1533
17555W        W21955  21.848   7.362   8.678  0.0353  0.0306 -0.0477
17556W        W21956  23.182   7.779  24.859  0.1974 -0.0227  0.0081
17557W        W21957  16.108   2.902  23.489 -0.1017  0.1127  0.0622
17558W        W21958   1.093   2.138  24.070  0.0173 -0.1861 -0.0922
17559W        W21959  13.240   1.568  28.467 -0.1534  0.1606  0.1824
17560W        W21960  21.693   7.659   5.789  0.0369  0.0085  0.3015
17561W        W21961  14.415   3.559  13.528 -0.0549  0.0599  0.1657
17562W        W21962  13.865   0.399  30.218 -0.1647 -0.1046 -0.3596
17563W        W21963  22.344   4.739  30.237 -0.2207  0.1681 -0.0187
17564W        W21964  19.068   2.945  22.719 -0.0827 -0.1698  0.1268
17565W        W21965   5.332   6.595  18.795  0.0074  0.0183 -0.0570
17566W        W21966   3.191   4.182  19.824 -0.2024 -0.1083  0.1887
17567W        W21967   1.953   3.699   9.330  0.0447 -0.2846 -0.0201
17568W        W21968  16.150   3.034  25.496 -0.0880 -0.1607 -0.2189
17569W        W21969  13.894   6.153   6.212 -0.2185  0.2265 -0.0940
17570W        W21970   1.576   2.708  17.730  0.0236  0.2655 -0.0038
17571W        W21971   9.994   4.855  28.122 -0.1631 -0.1023  0.2143
17572W        W21972  23.993   4.091   0.709  0.0841  0.1678 -0.0080
17573W        W21973   4.246   2.046  10.112 -0.0101  0.0248  0.0062
17574W        W21974   9.892   0.970  28.820  0.0044  0.1978 -0.0452
17575W        W21975   8.027   5.340  28.461  0.1709 -0.0888  0.0113
17576W        W21976  23.416   1.168  11.689 -0.2062 -0.1648  0.0999
17577W        W21977  22.497   6.884  13.298  0.4991 -0.0458  0.1355
17578W        W21978   8.948   0.748  28.870 -0.0106 -0.1523  0.0293
17579W        W21979   5.830   4.862  19.199 -0.1854  0.0593  0.0854
17580W        W21980   9.969   0.678  31.877 -0.2139  0.0612 -0.1192
17581W        W21981  20.581   2.636  22.430  0.0298  0.2170  0.0677
17582W        W21982  12.976   3.790   3.403 -0.1168 -0.1310 -0.0321
17583W        W21983  12.551   2.981   2.860  0.0593  0.0714  0.1057
17584W        W21984  18.002   5.167  14.690  0.0459 -0.0640 -0.1458
17585W        W21985   7.884   7.753  32.386  0.2140  0.0901 -0.0663
17586W        W21986  14.794   0.895  24.671 -0.0065  0.0143 -0.3124
17587W        W21987  21.426   5.812   2.122 -0.1497 -0.0942  0.1449
17588W        W21988   0.780   4.331  31.074 -0.0640 -0.2655  0.1665
17589W        W21989  11.684   3.458  10.138 -0.0687 -0.1338 -0.0360
17590W        W21990   0.485   4.154   6.730  0.0669  0.2244  0.1124
17591W        W21991  13.323   6.844  26.729 -0.0516  0.0220 -0.0048
17592W        W21992   1.980   7.357   1.649  0.2910  0.0453  0.2401
17593W        W21993  20.069   3.507  25.599  0.1083  0.1738  0.0398
17594W        W21994   3.534   3.205  25.426  0.1189  0.0124  0.0285
17595W        W21995   8.147   6.782  31.725  0.1430 -0.0386 -0.0917
17596W        W21996  16.789   4.671  15.201 -0.1387  0.0418  0.2048
17597W        W21997  16.872   6.019  26.447  0.1467 -0.0433 -0.2862
17598W        W21998  15.391   6.066   7.377 -0.0070 -0.0742 -0.0282
17599W        W21999   6.974   4.884  25.023  0.0410  0.2232  0.0542
17600W        W22000   7.844   2.246  30.491  0.0298 -0.2733  0.0657
17601W        W22001   3.780   5.519  19.973  0.1704  0.1534  0.0661
17602W        W22002   9.268   5.528  30.520 -0.1431 -0.0064 -0.0031
17603W        W22003   9.042   2.453  25.128  0.0980 -0.1236  0.0769
17604W        W22004   0.819   3.010  31.088 -0.2823  0.0593  0.1560
17605W        W22005  20.963   2.511   8.564  0.1535 -0.0162 -0.2596
17606W        W22006  16.546   0.801   6.195 -0.2566 -0.0272 -0.3093
17607W        W22007   4.455   0.190   6.964  0.0894  0.1336 -0.1948
17608W        W22008  20.956   1.007   0.213 -0.3639 -0.2130  0.1200
17609W        W22009   1.067   2.849  10.306  0.1309  0.2082 -0.1639
17610W        W22010  15.506   2.650  16.258 -0.2457 -0.0695  0.1326
17611W        W22011  12.749   3.738   6.516 -0.0990  0.0557  0.0770
17612W        W22012  17.462   0.506   7.816 -0.1446 -0.1712 -0.2654
17613W        W22013  17.088   0.297  14.615  0.0446 -0.0449 -0.1370
17614W        W22014  14.104   1.320   2.620  0.1275 -0.0006  0.1932
17615W        W22015  17.875   3.484  12.673  0.3429  0.2465  0.0721
17616W        W22016   9.909   0.869   8.173 -0.0474 -0.1656  0.0546
17617W        W22017  13.155   2.250  26.091 -0.0933 -0.0417 -0.0597
17618W        W22018   4.061   7.776  18.976  0.1036 -0.1070 -0.0090
17619W        W22019  21.554   1.127  11.723 -0.0458 -0.1686 -0.0457
17620W        W22020   2.907   1.150  22.261  0.1178  0.1549 -0.1195
17621W        W22021  16.833   5.727   2.869 -0.4074 -0.0521 -0.0939
17622W        W22022  20.323   4.306   6.900 -0.0084  0.0012 -0.0290
17623W        W22023  22.115   5.858  12.004 -0.0811 -0.1124  0.2255
17624W        W22024  23.696   1.109  12.073  0.0320 -0.0162  0.0460
17625W        W22025  14.229   6.003   8.126 -0.0745  0.0909 -0.0176
17626W        W22026  14.780   4.162  28.064  0.1813  0.2842 -0.0633
17627W        W22027   8.754   4.748  10.670 -0.0271 -0.0516  0.1014
17628W        W22028  17.448   6.113   6.202  0.1449  0.2323  0.0979
17629W        W22029   6.599   1.792   4.409  0.1072 -0.0961  0.1384
17630W        W22030   7.944   2.872  22.188 -0.2275  0.1226 -0.3023
17631W        W22031  23.569   4.973   6.713  0.3019 -0.0055 -0.3051
17632W        W22032  20.177   1.093  15.663  0.0743 -0.1726 -0.0200
17633W        W22033   9.352   3.508   5.707  0.3421  0.0782  0.2995
17634W        W22034  25.084   2.310   3.989  0.1149 -0.0651 -0.0101
17635W        W22035  20.801   1.658  17.152  0.0764 -0.2569 -0.1175
17636W        W22036   8.134   1.530   3.593  0.1012  0.1558  0.0469
17637W        W22037   2.443   4.736   6.187  0.2421  0.0571 -0.0570
17638W        W22038  14.089   5.524  10.249  0.1674 -0.2275 -0.0236
17639W        W22039  13.537   0.121   3.175  0.0860 -0.2507  0.0681
17640W        W22040  14.959   0.401   6.749 -0.0372  0.3651  0.2075
17641W        W22041  17.914   1.512  29.477 -0.0865  0.0450  0.3810
17642W        W22042  12.479   6.768   1.387 -0.0170 -0.3479 -0.2467
17643W        W22043   7.895   4.812  24.180  0.0044  0.3085 -0.0147
17644W        W22044   8.717   6.155  24.393  0.2880  0.1570  0.0010
17645W        W22045  14.469   0.595  13.324  0.1408 -0.3962 -0.3384
17646W        W22046  15.945   5.142   2.541  0.1894  0.1954  0.1749
17647W        W22047  15.989   0.640  27.485  0.2280 -0.4429 -0.0383
17648W        W22048   4.596   2.029   3.593 -0.0923 -0.1133  0.0032
17649W        W22049  15.652   4.469  23.945  0.0459  0.0895 -0.3894
17650W        W22050   1.784   4.287  26.119  0.0715 -0.0589 -0.1623
17651W        W22051  17.335   0.920  29.028  0.0958  0.1106 -0.0506
17652W        W22052   9.394   5.582  29.169  0.1689 -0.2405  0.0792
17653W        W22053   3.375   5.115  30.206  0.1549 -0.0408  0.0367
17654W        W22054  21.350   4.110  11.192 -0.1463  0.0870 -0.0843
17655W        W22055   6.226   0.121  22.764 -0.0663 -0.2313 -0.0555
17656W        W22056   9.538   5.079  23.794  0.0937  0.0300 -0.0272
17657W        W22057  24.176   7.594  24.716  0.1308 -0.0416 -0.1846
17658W        W22058   5.425   5.703  25.278  0.3821 -0.0830 -0.0280
17659W        W22059  11.540   4.034  31.995 -0.0324 -0.1438  0.0635
17660W        W22060  10.841   6.842  29.793  0.0961 -0.1100 -0.0315
17661W        W22061  24.142   4.748  20.456 -0.2412  0.0789  0.2153
17662W        W22062  13.938   6.645  28.364  0.0964 -0.1700 -0.2945
17663W        W22063  13.874   5.738  10.689 -0.0758  0.0443 -0.0584
17664W        W22064   6.752   3.244   3.567  0.0233 -0.3007 -0.0311
17665W        W22065   8.575   6.680  29.844 -0.0703 -0.0260  0.3514
17666W        W22066  19.451   7.560   5.502 -0.1992 -0.3586  0.2699
17667W        W22067  23.699   2.026  12.598 -0.0327 -0.1463  0.0541
17668W        W22068   2.981   3.639  21.137 -0.0708 -0.1220  0.0478
17669W        W22069  15.180   4.985   1.445  0.0422  0.1544  0.1049
17670W        W22070   4.095   1.065   5.566 -0.1178 -0.1584  0.0189
17671W        W22071  19.184   1.702   9.413  0.1556  0.0097 -0.1568
17672W        W22072  12.497   0.376  12.450 -0.0461  0.1248 -0.0533
17673W        W22073  24.741   3.826   5.959  0.3212  0.2494  0.2739
17674W        W22074   8.694   5.734   6.233  0.1386 -0.0579 -0.2348
17675W        W22075   7.822   1.153  23.241 -0.1520 -0.0197 -0.0083
17676W        W22076   3.961   7.229  31.673  0.1498  0.1326  0.0024
17677W        W22077  11.161   7.669  22.519  0.2089  0.0051  0.1779
17678W        W22078   2.663   2.721  19.579  0.1544  0.1147  0.2159
17679W        W22079   4.666   5.367  17.446 -0.1359  0.0283  0.0627
17680W        W22080  17.140   0.072  13.016 -0.0850 -0.0953 -0.2500
17681W        W22081  16.869   2.811   7.298  0.0741  0.1172  0.1026
17682W        W22082   4.783   5.200  31.793  0.1051 -0.2120 -0.1001
17683W        W22083  20.398   4.698   4.108  0.2700  0.4234  0.1132
17684W        W22084  14.409   2.416   4.982  0.4348  0.0156 -0.2929
17685W        W22085   1.798   6.654  19.141 -0.1143 -0.2105  0.0419
17686W        W22086   6.402   1.166   2.466  0.2272  0.0247  0.0928
17687W        W22087   2.430   1.406  31.557  0.1338 -0.0750 -0.1769
17688W        W22088   7.662   0.182  19.880 -0.2920 -0.0327  0.0050
17689W        W22089  13.994   3.394  22.547  0.2057 -0.1401 -0.0550
17690W        W22090  13.539   2.577   1.245 -0.2277 -0.3727 -0.2999
17691W        W22091   3.061   7.109  20.339 -0.3260 -0.2005  0.1419
17692W        W22092   1.694   3.293   8.779  0.0312 -0.1133 -0.3696
17693W        W22093  13.000   2.456   6.273  0.1247  0.2796 -0.2066
17694W        W22094  12.307   0.506  10.915  0.1287 -0.0608 -0.0923
17695W        W22095   7.068   3.488  19.224 -0.1347  0.2296  0.1984
17696W        W22096  20.079   3.172   7.335  0.0451 -0.2232  0.1125
17697W        W22097   2.131   6.472  18.776 -0.3919  0.0573 -0.2785
17698W        W22098  10.993   0.162  18.845  0.0469  0.0946 -0.0623
17699W        W22099  10.219   3.637   8.938 -0.0473  0.0143 -0.2340
17700W        W22100  21.798   6.289  28.668  0.1489  0.0899 -0.1732
17701W        W22101   0.817   0.941  20.272  0.0997  0.0923 -0.2037
17702W        W22102  20.752   5.137  12.690  0.0890 -0.0587  0.0658
17703W        W22103   9.458   2.608   6.029  0.2974 -0.2343 -0.1466
17704W        W22104  14.211   6.502  15.502 -0.2024  0.0442  0.1228
17705W        W22105  18.649   4.005   3.218 -0.1898  0.0269 -0.0775
17706W        W22106  18.729   2.152   9.991 -0.0330 -0.1476  0.1906
17707W        W22107   3.303   7.800  25.050  0.1825  0.2007 -0.1710
17708W        W22108   4.877   2.871   3.608 -0.0101 -0.2406 -0.0599
17709W        W22109  19.315   2.321  28.740  0.0624 -0.1086  0.0433
17710W        W22110  13.244   5.393   0.330 -0.1149 -0.2068  0.0519
17711W        W22111  16.264   0.575  30.551  0.2529 -0.2374  0.0726
17712W        W22112  22.329   6.122  30.494 -0.0126 -0.1358 -0.0647
17713W        W22113  23.670   3.270  30.485  0.0903 -0.0833  0.1374
17714W        W22114  15.960   6.783  12.197  0.0684  0.1628 -0.2423
17715W        W22115  17.226   1.004   7.553  0.0317 -0.1488  0.1513
17716W        W22116   0.005   3.059  30.180 -0.0217 -0.0819 -0.0805
17717W        W22117  24.571   3.588  11.595  0.0899 -0.0372  0.2903
17718W        W22118   9.863   3.960  16.020 -0.2252  0.0677 -0.1224
17719W        W22119  14.448   4.872   0.778 -0.0655 -0.2097  0.2454
17720W        W22120   5.195   0.198   4.836 -0.1778 -0.3042 -0.1480
17721W        W22121   9.264   0.962  16.723  0.0197  0.2596  0.0574
17722W        W22122   8.652   3.769   0.272  0.3579 -0.1178  0.1421
17723W        W22123   6.267   4.227  30.298  0.1707  0.0615  0.0530
17724W        W22124  21.515   2.095  28.599  0.0435  0.1169  0.3520
17725W        W22125  22.894   1.599  16.496 -0.1278 -0.1814  0.0001
17726W        W22126  22.389   7.236  28.615 -0.0355 -0.2021  0.0383
17727W        W22127   2.559   7.623  30.763 -0.2587  0.0412 -0.2117
17728W        W22128   7.049   5.285  30.177 -0.0249  0.0763 -0.2136
17729W        W22129  10.791   1.156  28.536  0.1257 -0.2636  0.3223
17730W        W22130  23.323   7.147  12.250  0.1579  0.1702  0.3127
17731W        W22131  17.360   0.409  31.002  0.1161  0.5589  0.1424
17732W        W22132  10.151   4.590  20.486 -0.3134 -0.0066  0.2571
17733W        W22133  17.564   6.942   6.740 -0.1196  0.0003  0.0962
17734W        W22134  24.114   2.211   1.242 -0.3299 -0.1126 -0.1347
17735W        W22135   3.794   3.926  31.852  0.0472  0.0857 -0.1814
17736W        W22136  20.545   1.545   2.369 -0.0718  0.0037  0.3036
17737W        W22137   9.834   0.296  28.343 -0.2640 -0.3305 -0.2265
17738W        W22138  16.018   5.587   8.435  0.1025  0.4072 -0.0177
17739W        W22139  17.996   6.012   6.036  0.1813 -0.0581 -0.1802
17740W        W22140  22.531   1.319  30.635 -0.1599  0.0214  0.0056
17741W        W22141   7.358   5.031   0.523  0.1659 -0.0367  0.2011
17742W        W22142   3.766   1.927   1.156  0.0441  0.0765 -0.0619
17743W        W22143   1.145   3.470  30.496  0.1075  0.0752  0.1473
17744W        W22144   5.692   3.909  20.687 -0.1433 -0.2477  0.1255
17745W        W22145  23.967   7.394   4.039 -0.0182 -0.1411 -0.2185
17746W        W22146   5.625   1.277   0.393  0.1814 -0.3395 -0.3261
17747W        W22147  11.132   0.002   3.902  0.1379 -0.1108 -0.1258
17748W        W22148  19.245   5.030  16.099  0.1174 -0.1595 -0.1852
17749W        W22149   0.949   0.057   1.164 -0.0803  0.1131 -0.1215
17750W        W22150  16.404   7.023   2.291  0.0007  0.0114  0.1490
17751W        W22151  20.052   4.065  26.880  0.1728  0.1709 -0.1216
17752W        W22152  16.739   5.118  15.606 -0.0614 -0.0649  0.1998
17753W        W22153  13.987   4.408  13.774  0.1320 -0.0036  0.1374
17754W        W22154  16.673   4.727  25.273  0.2338 -0.3679  0.2046
17755W        W22155  19.658   4.553  15.402  0.4766 -0.3636  0.0333
17756W        W22156   7.625   6.257  29.111  0.0527 -0.2252 -0.2588
17757W        W22157  19.460   0.021   7.806  0.0809 -0.0965  0.0891
17758W        W22158  23.740   2.106  27.043  0.3011  0.2739 -0.0468
17759W        W22159   5.520   6.459  28.454 -0.0666 -0.0888  0.0515
17760W        W22160  17.029   4.108  27.086 -0.0740  0.1952 -0.1278
17761W        W22161   1.184   0.903   7.779  0.0691 -0.0511 -0.3206
17762W        W22162  20.849   3.241   0.251 -0.0074 -0.2225 -0.0261
17763W        W22163  10.726   5.736   4.858 -0.0528 -0.1229  0.0002
17764W        W22164   6.513   0.486   8.233  0.3823  0.0568 -0.1006
17765W        W22165   2.938   0.550   9.436 -0.1921  0.0892  0.0222
17766W        W22166   4.538   5.470   9.487 -0.0406 -0.0165 -0.1385
17767W        W22167  21.710   0.518  31.242  0.0432  0.0377  0.2086
17768W        W22168   8.350   5.417   4.015 -0.1272 -0.0780 -0.0010
17769W        W22169  23.415   7.606  31.829  0.1837  0.1370  0.1694
17770W        W22170   5.830   0.373  19.156 -0.3185  0.0342  0.1287
17771W        W22171   9.891   6.162  24.713 -0.0091  0.2658  0.0184
17772W        W22172   9.992   3.385   6.560 -0.1655 -0.3813  0.0908
17773W        W22173   2.403   0.226  26.472 -0.0614  0.2278  0.0011
17774W        W22174  19.516   5.424  15.963 -0.2575 -0.1205 -0.0290
17775W        W22175  15.995   0.734  11.129  0.1676 -0.2186  0.0860
17776W        W22176  23.452   5.490  21.390  0.2196 -0.0025 -0.2457
17777W        W22177  11.597   5.566  26.236 -0.0302  0.0307 -0.1594
17778W        W22178  24.896   6.351   8.160 -0.1129  0.0056 -0.0942
17779W        W22179  12.816   4.194  26.776 -0.0985 -0.1041 -0.3392
17780W        W22180  22.851   6.948  15.577  0.1772 -0.1249 -0.2727
17781W        W22181  16.714   7.153  16.999 -0.0103  0.0407 -0.1283
17782W        W22182  22.155   5.424   1.637  0.1224  0.0271 -0.2117
17783W        W22183  10.104   3.219   6.027 -0.1482 -0.2028  0.1402
17784W        W22184  13.206   4.901  27.224  0.3363 -0.2445 -0.0525
17785W        W22185  21.105   2.416   1.758 -0.0447  0.0785  0.1581
17786W        W22186  10.127   6.365  22.337  0.4296 -0.0136 -0.0912
17787W        W22187  15.290   3.166   4.663 -0.0261  0.2400  0.1017
17788W        W22188   0.453   0.854  24.575 -0.1212 -0.0990 -0.2144
17789W        W22189  18.884   4.054   2.745  0.1574  0.2262  0.0174
17790W        W22190   2.134   4.510  25.193 -0.1810  0.2546 -0.2216
17791W        W22191  11.857   4.936   1.348  0.0168  0.1719 -0.3142
17792W        W22192   3.300   4.506   8.652 -0.0251 -0.2168 -0.1103
17793W        W22193  17.421   0.043   7.897 -0.1342  0.0548  0.5166
17794W        W22194   5.119   2.551   1.702  0.1667  0.1138  0.2097
17795W        W22195  11.672   0.783  20.063  0.0292 -0.0227  0.0604
17796W        W22196  12.152   5.652   3.936 -0.0922 -0.0475  0.0250
17797W        W22197  23.354   1.533   1.531  0.0562  0.2565 -0.1189
17798W        W22198   6.065   4.152  22.295  0.1692 -0.1700 -0.1353
17799W        W22199   7.665   4.893  23.611  0.0988 -0.1152 -0.1266
17800W        W22200  15.624   1.327   5.413 -0.0560  0.3056  0.1314
17801W        W22201  19.744   6.251  11.449  0.0669 -0.0747 -0.0422
17802W        W22202  17.698   5.412  11.832 -0.0726 -0.2018 -0.1901
17803W        W22203  18.883   3.974  23.090 -0.1617  0.1361  0.0823
17804W        W22204   5.325   5.522   1.950 -0.0101  0.0244 -0.1087
17805W        W22205   7.022   3.483   0.047  0.0732  0.3978  0.2456
17806W        W22206   1.916   6.524  20.750 -0.2506 -0.1042 -0.1122
17807W        W22207  16.335   3.314  26.892  0.1140 -0.0172 -0.0217
17808W        W22208  16.520   5.338   4.674 -0.3296 -0.0587  0.1998
17809W        W22209  21.724   6.446  28.163  0.4025  0.1321 -0.0447
17810W        W22210   8.033   5.408   9.025  0.2856  0.2276 -0.0883
17811W        W22211   5.831   6.996  25.454 -0.0611  0.1640  0.0777
17812W        W22212   9.296   5.030  26.489  0.0739  0.1041  0.0794
17813W        W22213  15.071   0.843  23.403 -0.0634 -0.4571  0.1845
17814W        W22214   9.919   6.047   4.199  0.0943 -0.0014  0.1040
17815W        W22215  19.084   4.377   9.815  0.2640  0.2244  0.3139
17816W        W22216   5.451   1.802   9.526 -0.0439  0.3370 -0.1526
17817W        W22217  14.213   5.081  27.333  0.0862 -0.2117 -0.0700
17818W        W22218  18.826   3.033   9.372  0.0779  0.0275  0.0882
17819W        W22219  22.876   3.015   7.853  0.1986  0.0529  0.1732
17820W        W22220  11.547   5.656   6.823  0.2028  0.0488  0.0700
17821W        W22221   3.942   5.796  21.845  0.1224 -0.0640  0.0213
17822W        W22222  19.433   4.506  26.435 -0.2243  0.1493  0.3595
17823W        W22223   8.238   7.367   2.916  0.1095 -0.0905  0.0426
17824W        W22224  15.557   0.017  26.891 -0.2291  0.1750 -0.0601
17825W        W22225  17.246   3.720   6.756 -0.4793  0.1751 -0.0462
17826W        W22226  14.679   5.445   5.738 -0.2134  0.3212  0.1715
17827W        W22227  20.175   0.910  24.155  0.0273  0.0451  0.0203
17828W        W22228   6.992   0.630  17.262 -0.3073 -0.0890 -0.5153
17829W        W22229   9.715   3.089   3.987 -0.0716  0.1461  0.2583
17830W        W22230   1.848   5.663   4.515 -0.2139 -0.2197  0.2502
17831W        W22231  22.170   1.553  12.403 -0.1777  0.0167 -0.1165
17832W        W22232  19.900   7.525  27.144 -0.1537 -0.0146  0.0671
17833W        W22233  15.588   6.768  27.148 -0.1539 -0.1082  0.1772
17834W        W22234  19.342   4.931  15.216 -0.0800  0.0825  0.0660
17835W        W22235  10.542   6.023  29.780  0.1502  0.0298 -0.0123
17836W        W22236  19.971   2.397   9.911 -0.0963 -0.2811  0.2702
17837W        W22237  10.920   3.070  26.212 -0.1245  0.1053  0.1866
17838W        W22238  21.989   5.527  29.575  0.2455 -0.0375  0.0459
17839W        W22239  17.542   5.613  10.733 -0.1765  0.1644  0.0130
17840W        W22240  18.440   7.316   0.871  0.1604  0.0153 -0.1463
17841W        W22241  14.197   5.772  23.056  0.1156 -0.1648  0.1571
17842W        W22242  25.114   5.306  30.003 -0.2206  0.2762 -0.2404
17843W        W22243  10.095   3.003  23.355 -0.0165  0.0128 -0.3031
17844W        W22244  12.480   2.607   1.316 -0.1021 -0.0397  0.0332
17845W        W22245  24.072   2.678  21.831  0.2904  0.1037 -0.0409
17846W        W22246  24.314   7.701  22.942 -0.1980  0.0811  0.0938
17847W        W22247  23.802   6.474  24.533 -0.0837 -0.0733  0.2005
17848W        W22248   9.074   6.037  25.098  0.0046 -0.0637 -0.3406
17849W        W22249  19.334   4.046  10.259  0.0824  0.1233 -0.1958
17850W        W22250  10.623   4.429   0.056 -0.1834 -0.1632  0.3281
17851W        W22251  23.984   0.525  10.417 -0.0443  0.0864 -0.2320
17852W        W22252  24.111   2.234   4.511 -0.0449  0.0267  0.1210
17853W        W22253  10.616   0.557   9.810  0.0514  0.1465 -0.1909
17854W        W22254  20.198   5.867   8.472  0.4073  0.2531 -0.1342
17855W        W22255  24.719   3.780  10.245  0.3241  0.1018 -0.1274
17856W        W22256  13.118   0.065   5.278 -0.0258  0.0987 -0.0525
17857W        W22257   6.776   0.651  10.169 -0.0108 -0.4672  0.2628
17858W        W22258   7.790   6.736  29.487 -0.1056  0.2102  0.0886
17859W        W22259   1.725   6.573  31.400  0.1250  0.0768  0.1593
17860W        W22260   1.498   6.704   3.661 -0.0628  0.2964 -0.0531
17861W        W22261  17.373   0.711   8.350  0.1324  0.2515 -0.0886
17862W        W22262   9.091   3.182  16.339 -0.0448 -0.0038  0.0362
17863W        W22263   5.501   4.629  28.669  0.1743 -0.3797 -0.1219
17864W        W22264  13.657   1.483  21.397  0.2703  0.0140 -0.1898
17865W        W22265  19.662   1.301  28.712  0.0283 -0.1615  0.3239
17866W        W22266   8.564   1.431   7.369  0.1828  0.1634 -0.1900
17867W        W22267   8.366   0.712   6.035  0.0558 -0.0206  0.0248
17868W        W22268  23.171   0.756  25.242  0.0534 -0.0881  0.2571
17869W        W22269  15.669   0.721   6.681  0.1937 -0.0291  0.1975
17870W        W22270   0.014   5.548  10.678 -0.0066 -0.0405 -0.0387
17871W        W22271   2.293   6.146   2.363 -0.2270 -0.1709 -0.0983
17872W        W22272   8.653   0.578  21.070 -0.0349  0.0870 -0.0605
17873W        W22273  16.400   6.515  28.821 -0.2446 -0.2250  0.3012
17874W        W22274   2.932   6.178  20.874  0.0818  0.0638 -0.0403
17875W        W22275  18.076   4.229  10.799 -0.1028  0.0332  0.1160
17876W        W22276   3.740   5.304   4.980  0.0357 -0.0509  0.1952
17877W        W22277   0.016   1.897  20.866 -0.0430  0.0910 -0.0273
17878W        W22278  24.746   4.009  28.815  0.1645  0.0323 -0.0517
17879W        W22279   7.257   3.546  28.270  0.3376  0.2614  0.0282
17880W        W22280   9.829   4.628  17.984 -0.2458 -0.0781  0.2612
17881W        W22281  15.190   3.556  26.522  0.1686 -0.1102 -0.0382
17882W        W22282   3.563   1.435  15.640 -0.0506  0.1732 -0.2458
17883W        W22283  21.362   2.183  22.899 -0.3042  0.0924 -0.3171
17884W        W22284   2.613   2.373  24.709  0.3076  0.3245 -0.0857
17885W        W22285   6.659   0.292  18.780 -0.0466  0.3229  0.1778
17886W        W22286  17.339   2.663   8.765 -0.0845 -0.0951  0.0201
17887W        W22287  19.330   5.876   7.712 -0.1229 -0.1114 -0.2950
17888W        W22288  21.007   6.996  12.768  0.2817  0.0007 -0.0848
17889W        W22289   4.065   5.211  24.742 -0.1412  0.2717 -0.2976
17890W        W22290  22.133   4.846   5.275  0.1912  0.0731  0.0382
17891W        W22291   1.437   0.803  32.330  0.3263  0.1756  0.3674
17892W        W22292   8.211   3.592  23.901 -0.1395 -0.1499 -0.0478
17893W        W22293  11.861   7.735  29.026 -0.1465  0.1725 -0.2805
17894W        W22294  10.216   7.255  21.053 -0.0181 -0.1569  0.0912
17895W        W22295  13.397   5.005   6.955  0.0090 -0.0451  0.0712
17896W        W22296  20.306   7.435  14.652 -0.1608 -0.1210  0.0333
17897W        W22297   2.157   2.017  28.325  0.1170 -0.2832  0.2212
17898W        W22298  15.463   1.917  12.329  0.3583 -0.0676 -0.1928
17899W        W22299   3.853   6.444  10.003  0.1352  0.3637  0.4603
17900W        W22300   7.321   1.345  19.937  0.1214  0.0205  0.0694
17901W        W22301   7.891   0.677  22.007  0.0331 -0.5038 -0.2742
17902W        W22302  10.908   3.028  18.366 -0.2309 -0.1229  0.0078
17903W        W22303  22.330   0.897   3.443 -0.0525  0.0291 -0.0727
17904W        W22304  21.462   5.308   7.227  0.2334  0.2477  0.4343
17905W        W22305  14.628   7.292  12.866  0.0686  0.2130 -0.1499
17906W        W22306  18.079   1.039   6.349 -0.0219 -0.0403 -0.0639
17907W        W22307  18.414   7.378  10.592  0.2271 -0.0343 -0.0064
17908W        W22308   0.906   0.500  10.295  0.1836  0.1677 -0.0060
17909W        W22309   9.677   5.766  26.366  0.0992  0.1135 -0.0781
17910W        W22310   9.968   2.360  30.425 -0.3823  0.3555  0.1764
17911W        W22311   0.822   1.430  25.615  0.1033 -0.0955 -0.1462
17912W        W22312   2.455   1.637  30.082  0.0693 -0.1577 -0.0545
17913W        W22313   8.347   6.081   6.006 -0.0890  0.3309 -0.1138
17914W        W22314  18.385   2.024   8.198 -0.2224 -0.1982  0.1328
17915W        W22315  16.726   5.785   1.552  0.0052  0.0123 -0.0765
17916W        W22316  10.655   5.042  29.489  0.1674  0.0419  0.3102
17917W        W22317  14.844   0.693  28.146 -0.0313 -0.1643 -0.4030
17918W        W22318  21.893   4.478   4.861 -0.1220 -0.0451 -0.2169
17919W        W22319  24.249   4.576   4.331  0.0100 -0.3354  0.2141
17920W        W22320   8.207   0.157   7.526  0.4454 -0.1844 -0.0714
17921W        W22321   4.698   4.144  22.858 -0.0432 -0.0711  0.1889
17922W        W22322   5.858   4.897  28.350 -0.1439 -0.1571 -0.0008
17923W        W22323   5.918   5.953   3.747  0.2701  0.1018 -0.1460
17924W        W22324  16.908   6.732  24.076 -0.3361 -0.1123 -0.1562
17925W        W22325   1.316   6.219  32.419  0.0719  0.0712  0.2663
17926W        W22326  24.087   2.574   3.917  0.0652 -0.3364  0.2928
17927W        W22327   7.556   1.068   1.603 -0.2751  0.0020 -0.0629
17928W        W22328  12.638   0.036   5.419 -0.0581 -0.2342  0.1558
17929W        W22329  12.289   6.168  10.559 -0.0037  0.1591  0.3219
17930W        W22330  23.366   2.135   9.870 -0.0543 -0.1126 -0.3998
17931W        W22331  14.001   3.337   8.702 -0.0953 -0.2579 -0.0201
17932W        W22332   0.673   0.837  12.693 -0.0826  0.1675  0.2873
17933W        W22333   0.179   3.479  22.927 -0.1013  0.1351  0.0258
17934W        W22334   9.458   0.982  18.748 -0.0065 -0.0421 -0.2018
17935W        W22335   1.343   3.501  25.380 -0.0401  0.1200  0.2350
17936W        W22336  13.819   2.543  27.145  0.0641 -0.0220 -0.0255
17937W        W22337  21.401   2.259  25.971  0.0676 -0.0507 -0.0642
17938W        W22338  23.513   4.438  31.474  0.1561 -0.2072  0.0405
17939W        W22339  23.652   3.047  32.524 -0.0764  0.0378  0.0175
17940W        W22340   0.321   4.003  30.063 -0.2542 -0.2147 -0.0812
17941W        W22341  20.993   5.862  22.650  0.1831 -0.1474 -0.2621
17942W        W22342  19.396   1.351  17.162 -0.1642  0.0713  0.0192
17943W        W22343  17.903   0.643  17.790 -0.1711  0.0648 -0.1629
17944W        W22344   0.121   7.721  21.583 -0.1848 -0.0360  0.0883
17945W        W22345   1.984   7.210   8.089  0.0846  0.5094 -0.1595
17946W        W22346  11.896   1.764   7.379 -0.2890  0.0918  0.2997
17947W        W22347  20.611   5.460   5.029  0.1277 -0.0411 -0.0123
17948W        W22348   7.910   2.923   4.013  0.2107  0.6188 -0.2073
17949W        W22349  12.520   2.574  27.183 -0.1153 -0.0372  0.0345
17950W        W22350   7.110   2.892  24.062  0.1628  0.0938  0.3228
17951W        W22351   5.131   4.521   1.483 -0.0868  0.4416 -0.0458
17952W        W22352  20.566   1.546   5.029 -0.0547  0.0048  0.1340
17953W        W22353  19.684   6.630  12.701 -0.1479  0.1927  0.2466
17954W        W22354  19.790   7.179  18.112 -0.2383  0.1774 -0.2312
17955W        W22355  16.598   3.396   2.614 -0.3713  0.2303  0.0114
17956W        W22356  13.846   0.112   6.803 -0.1572 -0.1382  0.2338
17957W        W22357  14.960   1.301   9.531 -0.0244 -0.0131  0.0590
17958W        W22358   1.728   7.041  18.880 -0.1156  0.0989  0.2795
17959W        W22359   3.536   4.395  30.987 -0.1507 -0.1200 -0.0768
17960W        W22360  15.309   3.873  22.340 -0.0081  0.1160  0.0695
17961W        W22361   4.510   5.281   8.467  0.1701  0.0359 -0.1036
17962W        W22362  11.132   6.130   2.907  0.1984 -0.1557  0.0422
17963W        W22363  12.675   6.718  21.485 -0.2486  0.0701  0.1986
17964W        W22364   8.338   0.539  24.791 -0.1669 -0.0885 -0.3318
17965W        W22365  15.087   4.647   7.067  0.1370  0.0998 -0.0939
17966W        W22366   9.342   6.359  16.271 -0.0406 -0.2041  0.0767
17967W        W22367  24.372   4.777  12.847 -0.0258 -0.3540  0.2855
17968W        W22368  17.122   0.005   6.519  0.1304  0.0435  0.0387
17969W        W22369   9.871   3.907  30.002 -0.1801 -0.1328 -0.1939
17970W        W22370   0.276   1.132   3.614 -0.1729 -0.0719  0.0074
17971W        W22371  12.040   1.393  12.423  0.1226  0.0606 -0.3203
17972W        W22372  16.405   5.638  16.812  0.1299  0.2535 -0.2791
17973W        W22373   2.437   3.243   2.493  0.0976 -0.3200  0.0230
17974W        W22374  25.089   2.800   7.201  0.0441  0.1395 -0.0376
17975W        W22375   9.211   3.705  29.721 -0.1569 -0.0814 -0.1138
17976W        W22376  19.260   6.176  11.093  0.5457 -0.0470  0.0737
17977W        W22377  21.350   0.561   1.975 -0.2766  0.2195  0.3087
17978W        W22378  11.464   4.595  27.215  0.3330  0.0686  0.0064
17979W        W22379   1.142   0.586  25.279 -0.0765 -0.2797 -0.1180
17980W        W22380  18.909   6.954  15.691 -0.2989 -0.1591 -0.1083
17981W        W22381   5.937   4.999  14.776 -0.0713  0.1755  0.2360
17982W        W22382  14.233   4.253  27.847  0.0771 -0.2074  0.0612
17983W        W22383  22.576   0.649  11.873 -0.0225 -0.1280  0.1435
17984W        W22384   8.456   2.279   8.257  0.1571 -0.2417 -0.1096
17985W        W22385   3.700   5.695   2.374 -0.1230 -0.1116 -0.1578
17986W        W22386  17.178   4.924   8.505 -0.0802 -0.1451 -0.0102
17987W        W22387  16.705   6.909   5.248 -0.0681 -0.0665  0.1756
17988W        W22388  21.690   3.498  16.517 -0.1720 -0.1369  0.1299
17989W        W22389  16.959   4.517  14.065  0.2774  0.0767 -0.0954
17990W        W22390  18.513   5.421  26.370 -0.1384  0.1210 -0.2674
17991W        W22391  21.982   2.828  23.906 -0.2390 -0.2666 -0.3600
17992W        W22392  17.127   2.426   2.266  0.3285  0.1004 -0.1270
17993W        W22393   0.405   6.292   8.287  0.0347 -0.1749  0.1888
17994W        W22394  21.372   3.532  13.358  0.2497 -0.1268  0.0944
17995W        W22395  15.341   1.618   4.436 -0.1179 -0.1392 -0.1247
17996W        W22396   4.732   2.414   7.272 -0.2096  0.0261  0.1706
17997W        W22397  15.289   6.249   6.024  0.2895  0.1293  0.0335
17998W        W22398   6.339   6.467  17.947 -0.0174  0.0117  0.0553
17999W        W22399  20.391   1.417  15.291 -0.0426 -0.0444 -0.0399
18000W        W22400  10.432   5.356  31.066 -0.0101  0.0237 -0.1065
18001W        W22401   0.362   3.965  27.811  0.0867 -0.0327  0.0798
18002W        W22402   3.213   5.755  20.690 -0.0876 -0.1893  0.0330
18003W        W22403  16.701   0.247  14.229 -0.2235 -0.0858  0.1829
18004W        W22404   3.125   6.105  28.098  0.1831 -0.1376 -0.1592
18005W        W22405  15.563   0.507  24.948 -0.0359  0.1101 -0.1407
18006W        W22406   5.317   3.449   6.725 -0.0464 -0.1231  0.2270
18007W        W22407   1.944   4.304  22.221  0.1348  0.3020 -0.1585
18008W        W22408  14.170   1.476  28.072  0.2939 -0.0766 -0.1566
18009W        W22409   8.861   7.121   6.952 -0.1778 -0.0131 -0.2122
18010W        W22410   4.645   6.069   1.447  0.4596 -0.1315 -0.4790
18011W        W22411  12.552   1.785   8.210 -0.1678 -0.1740  0.0604
18012W        W22412  13.392   4.534  30.825  0.1581 -0.0855 -0.0335
18013W        W22413   2.701   3.149   4.944  0.0781  0.0054  0.1092
18014W        W22414   7.354   7.809  32.526  0.1651 -0.2384  0.1910
18015W        W22415   2.187   6.120   9.098 -0.1123  0.2335  0.1149
18016W        W22416   5.663   2.172  18.095 -0.2383 -0.3097  0.2622
18017W        W22417  15.066   7.747   8.792  0.0058 -0.0798  0.2838
18018W        W22418  13.381   4.077  24.739  0.3350 -0.2950  0.1306
18019W        W22419  17.658   1.779  16.411 -0.1753  0.2115  0.0259
18020W        W22420  21.883   4.709  10.779  0.0418  0.0355 -0.1836
18021W        W22421  21.153   4.739  29.342 -0.2227 -0.2376 -0.0500
18022W        W22422  15.685   7.037   8.229 -0.1312  0.2329  0.2248
18023W        W22423   6.726   6.457   0.805 -0.0744 -0.0398  0.1060
18024W        W22424  16.646   0.324   5.345 -0.2530 -0.0126 -0.0389
18025W        W22425  12.071   0.889   2.786  0.2885 -0.1667 -0.1223
18026W        W22426  23.248   5.442  23.048  0.1235 -0.1712 -0.2440
18027W        W22427  16.005   7.766   2.029 -0.1611  0.0175  0.0940
18028W        W22428  17.572   5.421   6.950 -0.1151  0.1775 -0.1088
18029W        W22429  22.278   3.736  30.315  0.0392 -0.2761 -0.1487
18030W        W22430  23.284   1.451  24.596  0.1456  0.1907 -0.2462
18031W        W22431  19.694   7.041   3.099  0.0754  0.0459 -0.0910
18032W        W22432   1.677   0.451  24.831 -0.0818  0.2777 -0.0098
18033W        W22433   9.885   3.981   3.464  0.0828  0.1514 -0.2242
18034W        W22434  24.152   6.140  25.941 -0.0045  0.0444  0.0859
18035W        W22435  21.883   3.744   8.436 -0.0476  0.3136  0.1401
18036W        W22436   4.246   7.335   8.783 -0.1139 -0.0860  0.0397
18037W        W22437  13.459   5.149  27.637 -0.2095 -0.2646  0.1973
18038W        W22438   7.530   5.571  31.138 -0.0819 -0.2921 -0.4390
18039W        W22439   2.704   3.913   2.986  0.1419  0.0177 -0.0092
18040W        W22440   5.001   4.995  27.189 -0.0639  0.0789 -0.0854
18041W        W22441   2.174   2.465  19.805  0.2376  0.0889  0.0650
18042W        W22442  19.377   7.446  27.125  0.2085  0.0253 -0.0782
18043W        W22443  23.353   2.170   0.843 -0.2046 -0.0445 -0.1104
18044W        W22444   2.841   0.123  28.713 -0.0737 -0.2005  0.0098
18045W        W22445  20.081   0.820  22.817 -0.1327 -0.1476  0.0636
18046W        W22446  22.652   7.831  25.495  0.0020  0.1371  0.0736
18047W        W22447  13.908   1.190  10.476  0.0454  0.1548  0.0640
18048W        W22448   7.772   3.430   8.101  0.2542 -0.1112  0.1329
18049W        W22449   2.399   3.540  28.011 -0.0990 -0.0317 -0.1530
18050W        W22450   0.319   7.750   6.610 -0.1836  0.1723  0.0653
18051W        W22451   1.559   0.383   6.983 -0.1712  0.0154 -0.0029
18052W        W22452  18.038   4.472  17.263  0.2036  0.1074  0.0961
18053W        W22453  12.930   5.242   4.929  0.0856  0.0768  0.0343
18054W        W22454   1.273   2.375   3.390  0.1252 -0.0022 -0.0075
18055W        W22455   6.320   1.446  23.579 -0.0055  0.0651 -0.1836
18056W        W22456   3.008   3.116   1.469  0.0864 -0.0994 -0.1410
18057W        W22457  10.942   5.572  20.302  0.2057 -0.1187 -0.0493
18058W        W22458  18.938   4.890  13.619 -0.1017  0.0222 -0.0662
18059W        W22459  13.209   6.465  24.935  0.1929  0.0358 -0.0683
18060W        W22460  19.543   3.185   7.648 -0.4318  0.0872  0.1176
18061W        W22461  17.578   0.232   9.615 -0.1272  0.2497  0.1795
18062W        W22462   6.092   0.391   6.692 -0.2388 -0.1808  0.0938
18063W        W22463  13.903   0.330  13.288  0.0969 -0.1230 -0.1379
18064W        W22464  14.878   3.323   5.831 -0.0041 -0.0212  0.2169
18065W        W22465   3.923   7.218  21.826  0.2137  0.2043  0.1057
18066W        W22466  13.073   2.720  13.295 -0.1010  0.1757  0.2788
18067W        W22467   8.967   1.069   8.326 -0.2064 -0.1410 -0.3917
18068W        W22468  18.854   0.914   1.491  0.3159  0.1591 -0.0859
18069W        W22469  16.845   1.717  28.936  0.1641 -0.0149 -0.2678
18070W        W22470  24.615   0.906  22.503 -0.1498 -0.1892  0.1986
18071W        W22471  15.045   6.520  22.270  0.0696  0.0553  0.2484
18072W        W22472   4.038   0.740  27.512 -0.4516 -0.1780 -0.0641
18073W        W22473  11.369   5.155   3.818  0.1399 -0.2252  0.2008
18074W        W22474   8.053   1.844  24.589 -0.2273 -0.0105  0.1503
18075W        W22475  11.796   7.654  28.510 -0.2046  0.1196 -0.0549
18076W        W22476   8.139   2.413  25.324  0.1573 -0.3595  0.0856
18077W        W22477   2.854   7.065  25.635  0.0933 -0.2996 -0.3385
18078W        W22478  13.841   2.952   8.979  0.0732 -0.1796 -0.3321
18079W        W22479   4.369   7.548  21.809  0.2882 -0.2680  0.0175
18080W        W22480   5.579   5.116  28.703  0.0599  0.1479 -0.0275
18081W        W22481   2.207   0.280  19.600 -0.1086 -0.0229  0.0362
18082W        W22482   2.702   4.552  10.552  0.2464  0.0309 -0.0106
18083W        W22483   8.987   5.631   1.552 -0.1512 -0.1682 -0.1269
18084W        W22484   0.962   4.576  29.676  0.0351  0.1531 -0.0730
18085W        W22485   4.300   0.199  26.763 -0.0559 -0.2187  0.2811
18086W        W22486   8.950   6.663  24.362  0.4058  0.1397  0.1250
18087W        W22487   6.007   3.719  18.503  0.0599 -0.1228 -0.4799
18088W        W22488  16.581   3.751  29.898 -0.3035  0.0375 -0.0299
18089W        W22489   8.088   6.220  30.535 -0.1634  0.2035 -0.0367
18090W        W22490   6.488   2.358  22.110 -0.1958 -0.2266  0.1152
18091W        W22491  14.448   2.921  26.070  0.0158 -0.1424 -0.0281
18092W        W22492   5.132   3.723  28.400  0.0493 -0.1955 -0.2650
18093W        W22493   9.055   0.398   7.018 -0.1072 -0.1785 -0.4300
18094W        W22494   1.488   5.287  25.273 -0.2246  0.0951 -0.1056
18095W        W22495  21.918   3.626  15.200 -0.2112  0.1000 -0.0003
18096W        W22496  21.183   3.391  32.432 -0.3427 -0.2259 -0.0088
18097W        W22497  17.618   0.069  25.633  0.0714 -0.0329 -0.2416
18098W        W22498   9.538   1.862  22.744 -0.0322 -0.1425  0.2619
18099W        W22499  16.280   7.378  16.009  0.1104  0.1327  0.1022
18100W        W22500  22.086   4.552   0.535  0.0154  0.0853  0.2061
18101W        W22501   1.829   1.028  30.271  0.0851 -0.4217 -0.0591
18102W        W22502   9.398   2.350  22.616  0.0688  0.1601  0.2510
18103W        W22503   5.930   5.575  25.372 -0.0815  0.0993  0.0020
18104W        W22504  20.916   1.800  28.990 -0.0858  0.2172 -0.0509
18105W        W22505  18.080   3.168  15.762 -0.2535 -0.3421 -0.2634
18106W        W22506  18.887   6.046   7.948 -0.1006  0.0322  0.1247
18107W        W22507  23.772   6.809  29.251 -0.2894  0.1912 -0.1670
18108W        W22508  18.022   4.325   3.351 -0.0107 -0.2241 -0.1407
18109W        W22509   5.406   7.333   3.672  0.0298 -0.0311  0.0577
18110W        W22510  18.259   7.789  23.863  0.2494  0.2234  0.0786
18111W        W22511  15.169   6.919  29.651 -0.2502  0.0405 -0.2493
18112W        W22512   2.227   3.594   8.501  0.1577  0.0544  0.0236
18113W        W22513  16.271   4.408  28.134  0.1428 -0.0209  0.1173
18114W        W22514  16.175   2.110  22.475  0.0461 -0.5290 -0.1080
18115W        W22515  13.270   7.767   8.090  0.0651  0.0913 -0.4750
18116W        W22516   5.601   7.792   2.070 -0.0177  0.1225  0.0116
18117W        W22517   0.151   3.953  10.120 -0.1437 -0.0592 -0.1072
18118W        W22518   0.429   5.955  28.585  0.0501 -0.0088  0.2740
18119W        W22519  12.784   3.956   8.077  0.1929  0.1408 -0.3746
18120W        W22520   7.681   7.354  16.449  0.0139 -0.2299  0.0058
18121W        W22521  10.418   6.266   5.876  0.0208 -0.3601  0.2251
18122W        W22522   3.631   6.607   6.649  0.1047  0.1148 -0.4478
18123W        W22523  16.774   3.505  14.363 -0.0338 -0.2069 -0.0832
18124W        W22524   2.104   1.972  21.832  0.2028 -0.1268 -0.0603
18125W        W22525   1.103   5.597  28.164 -0.0533 -0.0254 -0.3008
18126W        W22526  22.595   0.605  24.830 -0.0764 -0.0335  0.0152
18127W        W22527   8.341   4.699  18.686  0.0799  0.0006  0.0301
18128W        W22528  17.772   1.148   4.393  0.3582 -0.1485 -0.1583
18129W        W22529  15.372   7.187  13.317 -0.0343  0.1139 -0.2122
18130W        W22530  14.539   1.662   4.823  0.0947 -0.2175 -0.1176
18131W        W22531  16.191   5.818   7.037 -0.1759 -0.1699  0.0588
18132W        W22532  16.897   5.893  28.538  0.1573  0.0409  0.1356
18133W        W22533   1.530   2.188   5.281  0.1012  0.0981 -0.1247
18134W        W22534   3.624   6.914  24.376  0.1281 -0.0678 -0.2902
18135W        W22535   8.309   5.983  24.614  0.2783  0.1224 -0.2221
18136W        W22536   8.863   0.665  19.538 -0.1007 -0.2580 -0.0398
18137W        W22537   9.906   4.213   7.787 -0.1543  0.0506  0.0883
18138W        W22538  14.284   4.396   0.535  0.1040  0.1711 -0.3828
18139W        W22539   4.840   5.535  24.667 -0.0363  0.3423  0.1237
18140W        W22540  24.919   6.011   7.240 -0.1490  0.0557  0.1279
18141W        W22541   1.390   5.613   9.431 -0.1903 -0.2243 -0.1513
18142W        W22542  12.668   5.749   5.699 -0.3374  0.1406  0.1297
18143W        W22543  24.887   1.413  13.803  0.1421  0.1103  0.2009
18144W        W22544   2.215   1.183  22.854 -0.1417  0.0454 -0.1855
18145W        W22545   8.288   3.103  14.885 -0.0350 -0.1028  0.1044
18146W        W22546   1.580   4.451  10.841  0.0040  0.0229 -0.1644
18147W        W22547   3.093   1.951   2.170  0.1050  0.1157  0.0762
18148W        W22548  22.600   3.626  13.715 -0.2658  0.2133  0.0001
18149W        W22549  24.466   1.906  21.498  0.0421 -0.0518  0.2321
18150W        W22550  14.362   0.937   5.242 -0.1576  0.0234 -0.3074
18151W        W22551  17.429   2.903  10.180 -0.3843 -0.1121 -0.2495
18152W        W22552   2.402   7.695   0.312 -0.0839 -0.1090  0.3513
18153W        W22553  21.945   5.358  24.730  0.0019 -0.0904  0.1425
18154W        W22554   4.718   6.260   8.073 -0.0480 -0.0198 -0.0334
18155W        W22555  18.936   7.274  24.832 -0.0163  0.0230  0.1661
18156W        W22556  20.596   4.076  12.346 -0.2656  0.0119  0.0698
18157W        W22557   5.603   2.664   0.503  0.1195 -0.0754 -0.1166
18158W        W22558  10.853   2.408  27.506 -0.0253 -0.1266 -0.1951
18159W        W22559  23.240   7.450  11.287  0.1762  0.0245  0.0838
18160W        W22560  15.158   6.839  26.900 -0.2673 -0.0052  0.1424
18161W        W22561  21.114   6.902   5.264 -0.0704  0.0699 -0.0318
18162W        W22562   9.044   3.584   4.041  0.2739  0.0505  0.2154
18163W        W22563  23.692   4.601  11.932 -0.2502 -0.0384  0.0875
18164W        W22564  13.522   2.528   6.195 -0.0895  0.1966 -0.1827
18165W        W22565   7.995   6.301  24.880 -0.2352  0.0740 -0.3712
18166W        W22566  14.838   2.835  28.919  0.0512  0.1967 -0.1720
18167W        W22567  20.932   1.255   4.956  0.0854 -0.2845  0.0411
18168W        W22568  21.322   0.424  29.855  0.1708 -0.1591 -0.0728
18169W        W22569  11.430   5.731  26.639  0.0347 -0.4561 -0.1559
18170W        W22570  18.372   1.870  25.638  0.1803  0.0688 -0.1653
18171W        W22571   9.537   5.350   7.743  0.2670 -0.0723 -0.1440
18172W        W22572  24.689   6.624  23.961 -0.2526 -0.2314 -0.2644
18173W        W22573  20.184   3.289   1.163 -0.1833  0.2407 -0.1064
18174W        W22574  16.666   3.669   7.644 -0.2910 -0.1911  0.2068
18175W        W22575  16.746   1.865   9.785  0.1703 -0.3818  0.2133
18176W        W22576  16.015   5.978  15.700  0.0660  0.1021 -0.0402
18177W        W22577   6.238   5.285  21.405 -0.0580 -0.1119  0.1650
18178W        W22578  19.585   0.404  11.668 -0.0041  0.3242 -0.1061
18179W        W22579   4.643   6.570  24.987 -0.1083  0.1552  0.0944
18180W        W22580   5.681   2.231   1.031 -0.0641  0.3508 -0.0067
18181W        W22581  22.950   7.688   3.236 -0.0326  0.3140  0.2930
18182W        W22582  12.247   2.726  11.042  0.0100 -0.2842  0.0722
18183W        W22583  13.649   4.170  21.206  0.1545  0.1280  0.0835
18184W        W22584  18.719   5.501   8.380 -0.1622  0.0043  0.0795
18185W        W22585  10.052   6.376  28.378 -0.1989 -0.1249  0.0539
18186W        W22586  10.909   6.916  30.345 -0.2271  0.2950  0.1496
18187W        W22587  10.168   1.892  18.280  0.0944 -0.0833 -0.0978
18188W        W22588  20.086   5.151  23.127  0.0454 -0.0752  0.0363
18189W        W22589   6.254   1.160   0.844 -0.0053  0.1539 -0.4283
18190W        W22590  16.112   4.138   1.042  0.2831  0.1174 -0.1130
18191W        W22591   5.949   7.214   7.531  0.2879  0.1776 -0.0212
18192W        W22592  21.049   3.007   3.955  0.2654  0.1708 -0.0560
18193W        W22593   8.137   1.733  26.220 -0.0918 -0.1078  0.0449
18194W        W22594  23.267   4.043  21.980 -0.2528 -0.2435  0.0711
18195W        W22595   4.419   1.537  27.917  0.0643  0.2087  0.2113
18196W        W22596   6.183   7.012  22.585 -0.0216 -0.1094 -0.1439
18197W        W22597  19.438   7.131  30.626 -0.0619  0.0134  0.0868
18198W        W22598  16.988   3.703   2.587 -0.1127 -0.0039  0.1383
18199W        W22599  19.406   1.248   4.744  0.2718  0.1213 -0.2700
18200W        W22600   5.227   0.222  28.974 -0.0324  0.0365  0.1080
18201W        W22601   3.733   0.607  16.891  0.1330  0.0438 -0.1789
18202W        W22602   9.961   5.138  21.221 -0.0394  0.0819  0.1447
18203W        W22603   6.276   7.639   2.082  0.0558 -0.2253 -0.1355
18204W        W22604  15.436   7.838  25.305 -0.0634 -0.3120 -0.1003
18205W        W22605  18.355   5.394   1.106  0.0655 -0.0381 -0.0589
18206W        W22606  15.419   1.391  14.468 -0.0588 -0.1913 -0.2067
18207W        W22607  20.975   2.761  30.280  0.2093  0.2772  0.1423
18208W        W22608  18.320   7.801  29.776  0.1513 -0.3982  0.1812
18209W        W22609   7.011   3.830  18.175 -0.1254 -0.1375 -0.0517
18210W        W22610  16.449   1.163  17.088 -0.2634  0.0447  0.0054
18211W        W22611  15.463   5.583   1.315  0.0851 -0.0334 -0.0872
18212W        W22612  25.040   6.763  31.832  0.0482  0.2882 -0.2003
18213W        W22613   5.816   0.388  23.990 -0.1217 -0.0422 -0.2047
18214W        W22614   5.763   3.508  26.377 -0.0355  0.2415 -0.0035
18215W        W22615   0.610   3.643  22.262 -0.5958  0.1867 -0.1236
18216W        W22616  18.581   3.425  22.128 -0.2416 -0.0908  0.1986
18217W        W22617   6.446   7.511  29.179 -0.0073 -0.0193 -0.0651
18218W        W22618   8.746   6.634  28.276  0.0604  0.1290 -0.1165
18219W        W22619   7.543   3.742  14.080 -0.1656 -0.2002  0.1584
18220W        W22620  10.870   6.568   1.002 -0.1599  0.2136  0.2154
18221W        W22621   2.195   3.443  19.461 -0.2004  0.0553  0.0807
18222W        W22622   2.568   7.392  29.350 -0.1592  0.0504 -0.0195
18223W        W22623  17.977   5.076   3.987 -0.1828 -0.2484  0.0597
18224W        W22624  18.722   4.971  14.489 -0.1600  0.4163 -0.2500
18225W        W22625  19.450   0.834  18.059  0.1559  0.0359 -0.0793
18226W        W22626   8.660   6.364  28.657 -0.0056 -0.0437 -0.2910
18227W        W22627   2.127   0.589  27.711  0.0156  0.2199  0.0675
18228W        W22628   6.744   5.743  20.865 -0.2436  0.1271  0.1436
18229W        W22629  21.248   1.971  17.323  0.1006 -0.2253 -0.1832
18230W        W22630  13.500   2.273  11.399  0.0999 -0.1792  0.0718
18231W        W22631  18.920   2.117   8.881  0.3477  0.0672 -0.0796
18232W        W22632  18.106   2.900  28.746  0.0052 -0.1872 -0.1178
18233W        W22633  13.291   5.938   1.241  0.2778 -0.1340 -0.1365
18234W        W22634  12.597   7.287   8.355  0.1456 -0.1866  0.3316
18235W        W22635  17.305   4.840   3.356  0.2001 -0.1864 -0.0545
18236W        W22636   9.885   2.822  18.114 -0.2196 -0.0455 -0.2757
18237W        W22637  19.275   2.242  11.531 -0.3344  0.3400  0.2003
18238W        W22638   1.703   2.096  28.501 -0.2582  0.1194 -0.2264
18239W        W22639   8.720   1.039   9.092 -0.0138  0.0203  0.1755
18240W        W22640  11.552   1.233  27.540 -0.0699 -0.0502  0.0379
18241W        W22641  22.181   2.827  10.650 -0.2768 -0.1280 -0.5707
18242W        W22642   9.510   7.505   0.844 -0.3085 -0.1034 -0.1327
18243W        W22643   1.118   5.120  26.284 -0.0204 -0.0961 -0.0958
18244W        W22644  16.480   5.085  22.899 -0.3941  0.1146 -0.2942
18245W        W22645  12.819   7.452  30.048 -0.0526  0.1340  0.2147
18246W        W22646  14.907   5.635   6.137  0.0811 -0.0686  0.0125
18247W        W22647  24.353   6.466  25.531 -0.1357  0.0123 -0.1451
18248W        W22648  16.486   2.035  17.135  0.0619 -0.2045  0.1139
18249W        W22649  20.045   5.020   9.930 -0.1581  0.0034  0.0344
18250W        W22650   6.071   3.784  30.992 -0.0090 -0.1385 -0.2566
18251W        W22651   9.506   4.584  23.108  0.1726  0.2008  0.0304
18252W        W22652  23.183   5.961  24.256 -0.1343 -0.0553  0.0436
18253W        W22653  14.895   5.346  31.058  0.1967  0.2193 -0.2085
18254W        W22654  14.790   5.078  29.018  0.1319  0.1591  0.1783
18255W        W22655  16.356   3.805  31.778 -0.1981 -0.0904 -0.1511
18256W        W22656   3.206   7.150   0.788  0.1368  0.0849 -0.2173
18257W        W22657  21.744   3.542  10.295  0.0182  0.3383  0.0079
18258W        W22658   7.120   2.279  20.302 -0.1763 -0.2969 -0.0944
18259W        W22659   3.743   6.052   0.940  0.0676  0.1646  0.0315
18260W        W22660  19.113   1.922   8.488 -0.1961  0.1666  0.1781
18261W        W22661  17.635   5.252   3.093 -0.1308  0.1994  0.0076
18262W        W22662   0.111   7.006  29.463  0.2018 -0.0031  0.1085
18263W        W22663   9.700   3.373  20.896  0.2812 -0.0902  0.1778
18264W        W22664  20.334   5.840  28.004  0.2128  0.0368 -0.3098
18265W        W22665  13.019   2.786  30.652 -0.0965  0.0049  0.0557
18266W        W22666  14.055   5.611   2.958  0.0067  0.0351  0.0759
18267W        W22667   8.852   3.323   1.011 -0.2017  0.1599  0.2227
18268W        W22668  20.548   4.442   5.115  0.3760  0.0797  0.2514
18269W        W22669   8.430   4.220   3.699  0.1711  0.1445  0.0083
18270W        W22670   0.289   2.496   7.047  0.0938  0.0704 -0.2046
18271W        W22671  18.506   1.886   1.145 -0.2668 -0.0870 -0.1423
18272W        W22672  19.423   3.857   1.536 -0.2450  0.0820 -0.4032
18273W        W22673  15.253   5.922   2.506 -0.0556 -0.0133 -0.2442
18274W        W22674  23.074   7.743   0.087 -0.1362  0.3723  0.0334
18275W        W22675  17.354   0.426  31.608  0.1359 -0.1203 -0.1268
18276W        W22676  22.433   1.122   7.888  0.2080  0.1910  0.0266
18277W        W22677  21.150   1.020  12.089  0.0948 -0.0575  0.1117
18278W        W22678   0.910   0.960  24.293  0.0861 -0.1122 -0.1027
18279W        W22679   4.607   5.115  24.806 -0.1623  0.4370  0.0214
18280W        W22680  21.703   2.999  31.565  0.2919  0.2526  0.0109
18281W        W22681  15.307   5.785  12.496 -0.0776 -0.3108  0.1927
18282W        W22682   8.660   1.862  16.044 -0.0081 -0.0171 -0.0449
18283W        W22683  23.203   1.072  14.176 -0.1245 -0.0736  0.1046
18284W        W22684  21.375   0.884  27.917 -0.0027 -0.0838  0.0391
18285W        W22685  12.817   0.708  24.191 -0.1793  0.1900 -0.0433
18286W        W22686   7.527   6.109  31.180 -0.4729  0.0834  0.0918
18287W        W22687   8.138   6.186  29.063  0.0399 -0.0362 -0.0002
18288W        W22688   7.284   7.737   3.143 -0.2988 -0.2006  0.1676
18289W        W22689   3.480   0.420  26.776 -0.2277 -0.2826  0.2711
18290W        W22690  18.630   4.433  16.374  0.0708  0.0113 -0.0596
18291W        W22691  10.944   7.534   9.342 -0.2271  0.0438 -0.1203
18292W        W22692  17.375   0.981   7.096 -0.1820 -0.0892 -0.2263
18293W        W22693   9.220   3.539   5.231  0.2902 -0.0739 -0.0665
18294W        W22694   1.829   1.108  22.518 -0.0464 -0.0242  0.1368
18295W        W22695  15.230   4.932   8.720  0.2393 -0.1770  0.1173
18296W        W22696   2.311   0.763   9.925 -0.0602  0.1406 -0.0332
18297W        W22697  14.522   5.627  28.515 -0.3232 -0.2174  0.0765
18298W        W22698  18.985   5.471  11.834  0.0717 -0.0182  0.1977
18299W        W22699  14.786   3.231   2.947  0.0995 -0.0450  0.0103
18300W        W22700  11.811   7.365  31.943  0.2149 -0.0078 -0.0717
18301W        W22701  17.999   5.660  26.689 -0.1268 -0.0097  0.2352
18302W        W22702   1.007   2.098   6.797  0.0032  0.4389  0.5355
18303W        W22703   4.882   6.796  32.361 -0.2180  0.1296  0.1204
18304W        W22704  13.102   2.696  10.357  0.1680 -0.1217 -0.0147
18305W        W22705  24.675   1.642  27.585  0.0296 -0.2539 -0.2520
18306W        W22706   5.816   6.794  16.409 -0.0536  0.0399  0.0477
18307W        W22707  18.876   2.582  27.312 -0.0144  0.3114 -0.0371
18308W        W22708   6.566   0.505   6.532  0.1405  0.1835 -0.0333
18309W        W22709   9.123   1.055   8.790 -0.3026  0.1583 -0.0903
18310W        W22710   2.335   5.585  25.066 -0.1915 -0.2459  0.0405
18311W        W22711   3.184   3.117   1.004 -0.1143 -0.0884  0.2589
18312W        W22712  23.917   6.601   8.021 -0.0361 -0.3498  0.1103
18313W        W22713   4.188   2.178  29.205 -0.2987  0.2606 -0.0947
18314W        W22714   1.756   6.363   5.625 -0.1250 -0.1305 -0.0166
18315W        W22715  20.520   6.372  13.166  0.0198 -0.0663  0.0385
18316W        W22716  15.960   1.472  15.442  0.0252 -0.0422  0.1832
18317W        W22717  11.096   1.035  30.337  0.4620 -0.0519 -0.2317
18318W        W22718   4.778   6.690  29.500  0.0796 -0.1778 -0.0535
18319W        W22719  23.956   3.862  31.847  0.1321  0.1878  0.2318
18320W        W22720  11.955   0.466   5.990  0.0970  0.0581 -0.0523
18321W        W22721  12.854   7.338  29.200  0.4929 -0.1555  0.0163
18322W        W22722  16.819   2.439  13.403  0.1778  0.0065  0.3130
18323W        W22723  15.785   6.552   5.323 -0.2435  0.1489 -0.1244
18324W        W22724  12.789   6.357  29.891 -0.0951  0.1311  0.0768
18325W        W22725  21.935   3.863  12.342  0.2911  0.1186  0.2342
18326W        W22726  21.655   1.866   6.090  0.0053 -0.3167 -0.3406
18327W        W22727   1.255   6.728  30.640  0.3603  0.0045  0.0147
18328W        W22728   1.205   7.296  21.800 -0.0153  0.1598 -0.1498
18329W        W22729  17.549   0.650   9.900  0.0121 -0.1641 -0.1600
18330W        W22730  13.456   3.755  25.150 -0.0470  0.1884 -0.0676
18331W        W22731   3.974   6.029  20.850  0.2696  0.0778  0.0900
18332W        W22732  14.641   5.026   7.654 -0.1092  0.0507 -0.1596
18333W        W22733   4.554   3.935  24.768  0.1116  0.0183  0.0587
18334W        W22734  16.008   3.381  26.493 -0.1233 -0.3099 -0.0901
18335W        W22735  15.950   7.662   8.037  0.0732  0.1337  0.2062
18336W        W22736  22.525   7.098   9.262 -0.0040  0.2189  0.0299
18337W        W22737   0.584   6.321   9.932 -0.0617 -0.0524 -0.1517
18338W        W22738   4.195   4.342  18.893 -0.1112  0.3125 -0.0070
18339W        W22739  22.727   6.375  27.186  0.4205 -0.0952  0.1344
18340W        W22740  18.584   6.548  30.206 -0.0895 -0.2238  0.3608
18341W        W22741   1.039   2.753  24.239  0.0921  0.3646 -0.3236
18342W        W22742  23.357   7.003  10.653 -0.1078  0.2347  0.0994
18343W        W22743   5.504   4.304  32.477  0.2970  0.1844 -0.0591
18344W        W22744  10.248   2.106  28.890 -0.2552  0.0758 -0.1039
18345W        W22745  14.778   3.712  26.195  0.1716 -0.0030 -0.2082
18346W        W22746   8.450   0.036  28.168  0.1300  0.1405 -0.0853
18347W        W22747  12.551   0.971   2.596 -0.0333  0.0588  0.2828
18348W        W22748   2.921   3.795  27.368  0.3654 -0.0765 -0.0478
18349W        W22749  20.549   4.223   4.435  0.1783  0.0458  0.2001
18350W        W22750  13.568   2.294   9.780  0.3850  0.1426  0.1265
18351W        W22751   2.742   4.146  22.484 -0.2973  0.0101  0.3658
18352W        W22752  19.555   3.225  17.254 -0.0643 -0.0213 -0.1742
18353W        W22753  24.751   4.083  26.833 -0.0835 -0.0464 -0.1296
18354W        W22754  18.170   1.897   3.534  0.2446  0.0970 -0.1483
18355W        W22755   8.218   1.534  31.105  0.0346 -0.1932  0.4287
18356W        W22756  14.907   3.035  24.879 -0.3637 -0.4359  0.3146
18357W        W22757  15.879   0.647   3.639 -0.3558  0.2765  0.0132
18358W        W22758   9.922   1.281  29.696 -0.1712  0.4006 -0.2604
18359W        W22759  12.718   4.870   4.095 -0.2713 -0.2188  0.3576
18360W        W22760  10.675   1.950   1.577 -0.3000 -0.0947  0.0638
18361W        W22761  11.689   5.173  30.875 -0.0394  0.1345 -0.1591
18362W        W22762  16.905   3.786   7.154 -0.1626  0.0540  0.1712
18363W        W22763  19.925   7.244  30.963  0.1794  0.2514 -0.0846
18364W        W22764  19.426   6.508   5.441 -0.0885 -0.0676  0.0405
18365W        W22765  15.240   3.066   5.143  0.0304  0.0690 -0.5134
18366W        W22766  19.136   7.343  26.706  0.3185 -0.2562  0.4503
18367W        W22767  16.185   4.810  25.154  0.1001 -0.1407 -0.1911
18368W        W22768   5.720   2.156  29.872 -0.2169  0.0203  0.0220
18369W        W22769   9.030   4.860  23.395 -0.1457  0.5167 -0.0289
18370W        W22770   6.712   7.168  22.568  0.1914 -0.1363  0.1788
18371W        W22771  16.652   0.648  13.892  0.0940  0.2166 -0.0198
18372W        W22772  17.612   1.731  32.569  0.2419 -0.0957  0.0639
18373W        W22773   7.551   5.112  30.222 -0.3054 -0.1403 -0.1867
18374W        W22774  18.588   4.661   0.242 -0.2651 -0.0531 -0.0674
18375W        W22775   8.598   0.916  18.636 -0.0602 -0.3443 -0.1169
18376W        W22776   2.702   0.643   2.001  0.2251  0.0268  0.2023
18377W        W22777   5.204   1.317  25.629  0.2648  0.4783 -0.3685
18378W        W22778  17.285   0.161  13.464 -0.1768 -0.5380 -0.0068
18379W        W22779   7.603   7.127  10.165 -0.1347 -0.0248 -0.0366
18380W        W22780   3.122   5.264  22.774  0.1704 -0.2216 -0.3089
18381W        W22781  21.314   0.129   8.306 -0.0604  0.1011  0.1571
18382W        W22782   3.351   4.837  22.994  0.2781 -0.1061  0.2641
18383W        W22783  22.253   7.015   4.752 -0.3864 -0.0231  0.0573
18384W        W22784  19.756   7.063   8.874  0.0373 -0.1225  0.1914
18385W        W22785  13.364   4.786   3.604 -0.0023  0.2058  0.3030
18386W        W22786   6.049   2.659   9.585 -0.3998  0.0916 -0.0212
18387W        W22787   9.668   4.741   9.415  0.1807  0.0216  0.1556
18388W        W22788   3.491   4.437   9.512 -0.2145 -0.1422  0.0262
18389W        W22789   3.319   6.885   1.574  0.0486  0.0538  0.1629
18390W        W22790  18.207   2.686  27.066 -0.0504 -0.0950  0.0678
18391W        W22791   8.580   5.085  24.296  0.1824 -0.1128  0.1317
18392W        W22792  19.659   1.332   5.220  0.0660 -0.0530 -0.1237
18393W        W22793  13.709   6.344  26.857 -0.2898  0.2555 -0.1384
18394W        W22794   3.098   7.434  25.364 -0.0511  0.1483  0.0874
18395W        W22795  18.508   2.387  13.014 -0.2291  0.2337  0.2343
18396W        W22796  22.553   2.660   3.318 -0.0028 -0.0404 -0.0604
18397W        W22797  16.307   4.285   5.977  0.0493  0.0665  0.0466
18398W        W22798  17.815   0.717   7.383 -0.0321  0.0581 -0.0867
18399W        W22799   4.995   4.995   4.489  0.3922  0.0573  0.1309
18400W        W22800   6.924   2.062   5.787 -0.0498  0.1145  0.0544
18401W        W22801   8.000   3.854  19.618 -0.0809  0.1215 -0.2623
18402W        W22802  14.252   1.895  12.646 -0.0952 -0.2545  0.3092
18403W        W22803   6.013   1.220  26.591  0.1110 -0.1061 -0.0892
18404W        W22804  15.016   7.436  14.548  0.1135 -0.2050  0.1148
18405W        W22805  12.891   3.166  25.183  0.1336 -0.1047 -0.4869
18406W        W22806   2.371   3.688   4.290  0.1819  0.2301 -0.3065
18407W        W22807  21.185   3.796  13.997 -0.1397 -0.3353  0.2647
18408W        W22808  10.645   6.649  21.717  0.1683 -0.1383  0.1887
18409W        W22809   4.411   4.575  22.895  0.0643 -0.3272 -0.3785
18410W        W22810  21.506   5.213  27.750 -0.0151  0.0319  0.0895
18411W        W22811   6.898   4.231  31.017  0.0168  0.0652 -0.1119
18412W        W22812  15.082   7.494  11.903 -0.2606  0.3806 -0.1262
18413W        W22813   3.202   3.080  29.856 -0.2645 -0.0949  0.2420
18414W        W22814  21.736   7.360   0.069 -0.1682 -0.2446 -0.0879
18415W        W22815   0.902   3.202   6.504 -0.1443 -0.0720 -0.1463
18416W        W22816   6.739   7.019  28.511  0.0954  0.0135 -0.3230
18417W        W22817  16.373   3.401  15.750 -0.0469  0.0614 -0.1864
18418W        W22818  10.329   3.164  27.490 -0.3137  0.2642  0.2604
18419W        W22819   1.534   2.559  31.692  0.1995 -0.2167  0.1270
18420W        W22820  15.842   2.581   1.734  0.1394  0.1465 -0.3852
18421W        W22821   7.567   6.330   5.482  0.1655 -0.1100  0.1017
18422W        W22822   6.775   7.426   4.903  0.2320 -0.1065  0.0630
18423W        W22823  11.824   2.980   9.716  0.1466  0.1309 -0.0381
18424W        W22824   1.827   3.683  12.598 -0.0718  0.1188  0.0918
18425W        W22825  11.801   0.062  11.370  0.1298  0.0123  0.0827
18426W        W22826  24.932   3.740   0.778 -0.0810 -0.1283 -0.3574
18427W        W22827   5.170   1.344  30.886  0.2066 -0.0588  0.1019
18428W        W22828  14.127   3.846  11.006  0.0322  0.1389 -0.2032
18429W        W22829   8.389   6.460  16.794  0.2628  0.0058  0.1783
18430W        W22830   7.581   4.844  18.968 -0.1002  0.2109  0.3599
18431W        W22831  16.635   0.189  30.541 -0.2175  0.1939  0.0229
18432W        W22832   6.534   6.488  29.775  0.0144  0.0940  0.1540
18433W        W22833   1.089   6.085  30.062 -0.2491  0.1642 -0.0186
18434W        W22834   3.473   7.534  31.301  0.0901 -0.1367  0.2527
18435W        W22835  17.622   3.529   3.516  0.2194 -0.2094  0.0744
18436W        W22836  20.384   1.567   3.151  0.1375 -0.0574 -0.1424
18437W        W22837   2.115   1.240   1.563  0.0015  0.0810  0.2678
18438W        W22838  22.920   1.578  31.555  0.1481 -0.0822  0.3102
18439W        W22839  15.760   6.079  25.562  0.1431  0.1451 -0.0580
18440W        W22840  20.478   3.863   1.417 -0.2484 -0.1869  0.1535
18441W        W22841  17.304   5.175  11.510  0.1176  0.1154 -0.1721
18442W        W22842   9.348   5.628   1.989 -0.1880  0.0813 -0.1212
18443W        W22843   3.118   0.232  23.245  0.0217 -0.0356 -0.2539
18444W        W22844  14.893   0.800   2.158  0.2457  0.0138 -0.1200
18445W        W22845  11.632   4.513  17.617 -0.1452  0.0063 -0.1891
18446W        W22846  16.936   0.730   7.017 -0.0052  0.0980  0.0289
18447W        W22847   4.856   6.283   5.894 -0.1212  0.1016 -0.1794
18448W        W22848  16.830   1.205  28.907  0.0364 -0.0840 -0.0412
18449W        W22849  18.300   1.441   0.979 -0.1802  0.0752 -0.2124
18450W        W22850   4.843   0.974  20.683  0.0289 -0.1094  0.0734
18451W        W22851   4.716   7.125  26.566 -0.0616 -0.2204  0.3139
18452W        W22852  24.374   4.333  14.894 -0.0166  0.1119  0.0480
18453W        W22853  23.156   5.738  20.994 -0.0633 -0.1465  0.1467
18454W        W22854  18.063   6.348  29.517  0.0045  0.2022  0.0011
18455W        W22855  18.998   2.491  32.135 -0.0269 -0.0675  0.1072
18456W        W22856   7.487   2.122   6.321  0.0531 -0.1517 -0.2833
18457W        W22857  18.466   6.025  12.940 -0.0012 -0.0709 -0.0101
18458W        W22858  14.318   7.682  23.013 -0.2215 -0.2233  0.0832
18459W        W22859  13.755   5.042   1.935  0.1544 -0.3587 -0.0691
18460W        W22860  17.996   1.058  32.153 -0.0459 -0.3729  0.3747
18461W        W22861  16.465   7.127  13.787  0.0068 -0.0179  0.0393
18462W        W22862  13.289   2.945  14.177  0.1552  0.0736 -0.2608
18463W        W22863   2.634   1.625  31.115 -0.0958  0.1866  0.1968
18464W        W22864   4.055   3.555  18.712 -0.2207  0.0437  0.1390
18465W        W22865  10.074   0.377   8.058  0.0754  0.1045 -0.3220
18466W        W22866  10.085   4.881   3.914  0.0492 -0.0546  0.3607
18467W        W22867  18.600   7.445  15.780  0.3402 -0.0808  0.0511
18468W        W22868  17.640   1.832  25.005  0.0099  0.0011 -0.0959
18469W        W22869   1.647   1.112  29.237 -0.1472  0.0920 -0.2393
18470W        W22870  24.481   3.631   1.037  0.1044 -0.3364  0.0691
18471W        W22871   2.152   3.199  23.318  0.0693 -0.0407  0.2622
18472W        W22872   9.370   5.217  25.330  0.1161 -0.0792 -0.1369
18473W        W22873  20.125   4.577  27.087  0.2229 -0.0236  0.1290
18474W        W22874  16.405   2.822  11.680  0.2740 -0.0740 -0.1477
18475W        W22875  14.491   4.740  28.679 -0.0882 -0.1594  0.2286
18476W        W22876  23.333   1.751  22.218 -0.2466 -0.3746  0.2434
18477W        W22877  13.930   2.674  25.775 -0.2454  0.2297  0.0373
18478W        W22878   3.580   5.807  10.507  0.1718  0.1080  0.1283
18479W        W22879   5.067   1.634  29.871  0.0712  0.3421  0.0327
18480W        W22880   0.830   0.465  10.879  0.0398  0.1246  0.1964
18481W        W22881   1.630   4.559  30.303 -0.1198  0.0077 -0.1208
18482W        W22882  22.728   3.763  24.463 -0.1517  0.1146  0.0444
18483W        W22883  15.151   3.869   2.770 -0.4439 -0.0001  0.2308
18484W        W22884  22.698   7.592  32.201  0.2540 -0.0409 -0.0217
18485W        W22885   4.822   4.622   1.889 -0.1514  0.0012  0.0064
18486W        W22886   4.550   5.932   0.406  0.1449  0.1219  0.1657
18487W        W22887   0.205   6.438  22.327  0.0660  0.1285 -0.0144
18488W        W22888  10.824   0.370   3.038 -0.0138  0.1966  0.0591
18489W        W22889  19.244   4.831  23.532 -0.1146 -0.1261  0.1594
18490W        W22890   0.059   1.855  13.073  0.1332  0.3782 -0.1025
18491W        W22891  11.962   6.310  10.916  0.0690  0.0449 -0.2692
18492W        W22892  14.960   6.131  30.605 -0.1399 -0.1996 -0.2374
18493W        W22893   8.459   2.785  18.224 -0.0613  0.0152 -0.0047
18494W        W22894   6.813   1.144  26.436 -0.1953 -0.1054 -0.3236
18495W        W22895  15.067   2.091   6.543 -0.1373 -0.1253  0.0261
18496W        W22896  13.251   3.968  25.637 -0.0425 -0.1609 -0.3297
18497W        W22897   3.272   7.192  19.819  0.2305 -0.0775  0.1026
18498W        W22898   2.926   7.826  16.781 -0.2147  0.1319  0.0449
18499W        W22899   3.509   0.927   6.676  0.1530  0.0013  0.0790
18500W        W22900   8.540   3.868   4.084 -0.0644  0.1157  0.0038
18501W        W22901  16.637   0.332  23.558  0.1604  0.3347  0.1792
18502W        W22902  24.879   6.675  22.158  0.0221  0.1569 -0.1343
18503W        W22903  18.010   4.396   7.787 -0.0968  0.1872 -0.2267
18504W        W22904   6.816   5.174  14.519  0.1831  0.0432 -0.0403
18505W        W22905  16.942   5.553  16.550 -0.1213 -0.0118  0.2199
18506W        W22906  21.564   6.519   0.792  0.2156 -0.0886  0.0991
18507W        W22907  13.518   5.732  29.469  0.0708  0.1477  0.0855
18508W        W22908   8.675   6.819  25.202  0.2082  0.2698 -0.0205
18509W        W22909  18.845   7.497   1.043 -0.1019 -0.1669 -0.0902
18510W        W22910   1.501   6.893   4.451 -0.1167 -0.1591  0.1610
18511W        W22911  14.270   3.889  13.156  0.0876 -0.0074 -0.0121
18512W        W22912   2.019   0.181  31.450  0.0974  0.4615  0.1775
18513W        W22913   7.886   2.082  16.441  0.0721 -0.3234  0.1772
18514W        W22914   7.186   0.769  26.326  0.3144  0.3503 -0.3338
18515W        W22915   5.739   7.675   0.107 -0.0714  0.1440  0.1767
18516W        W22916  15.222   2.855  13.581  0.0135 -0.0092 -0.2386
18517W        W22917   3.478   3.189  26.170 -0.1561 -0.1393  0.0420
18518W        W22918   8.042   0.097  24.024  0.0559  0.0321 -0.0369
18519W        W22919  23.298   4.696  24.476 -0.0286  0.0962 -0.0543
18520W        W22920   5.251   6.556  29.486  0.0942  0.2224  0.1206
18521W        W22921   1.994   5.178  32.352 -0.0294 -0.2936  0.2444
18522W        W22922  15.754   7.074  13.970 -0.0812 -0.2097 -0.3176
18523W        W22923   3.453   0.114  18.148 -0.0376  0.2247  0.0124
18524W        W22924   4.963   3.312  18.810 -0.4379 -0.2904  0.1517
18525W        W22925  12.811   4.775  24.509  0.2396 -0.0704  0.1974
18526W        W22926  17.970   0.479  25.192  0.0186 -0.2349 -0.1824
18527W        W22927  12.350   0.153  28.021 -0.0512 -0.0084  0.0356
18528W        W22928  11.462   3.489  32.361  0.2106 -0.1225 -0.0658
18529W        W22929  16.744   1.671   7.078 -0.2293 -0.0323 -0.3525
18530W        W22930   0.677   7.014  20.082 -0.0359  0.0343  0.0740
18531W        W22931   0.346   4.913   4.022  0.5820 -0.3064 -0.2532
18532W        W22932  14.039   2.449   2.028 -0.0341 -0.1715  0.0207
18533W        W22933  15.184   6.088  27.445 -0.0497 -0.2206  0.1288
18534W        W22934   5.534   2.573   4.099  0.2774  0.1541 -0.2963
18535W        W22935  12.378   5.168  28.692 -0.0589 -0.0523  0.1024
18536W        W22936  15.624   3.270  23.221  0.1670 -0.3783  0.0254
18537W        W22937  24.740   4.555  10.485 -0.1405 -0.3431  0.1748
18538W        W22938   7.982   7.296  31.491 -0.0123 -0.1837 -0.0984
18539W        W22939  24.355   0.214  10.096 -0.2013  0.0107  0.2599
18540W        W22940  18.730   1.989  29.475  0.0958  0.1366  0.0612
18541W        W22941  13.892   4.141  24.873  0.1327 -0.1543 -0.0071
18542W        W22942  25.009   7.291  27.561 -0.1668 -0.3104 -0.2233
18543W        W22943   3.672   7.615  15.352 -0.1923 -0.2793 -0.3326
18544W        W22944   4.257   0.537   0.205 -0.0170 -0.1599  0.0428
18545W        W22945  12.624   7.690   6.752  0.0652  0.1159 -0.0435
18546W        W22946   2.266   0.333  30.085  0.3353  0.3002  0.2693
18547W        W22947  13.686   6.529  22.938 -0.2675  0.0174  0.0274
18548W        W22948  11.583   3.632  29.323 -0.2159 -0.0329 -0.0013
18549W        W22949  12.895   1.322  11.546  0.2150  0.1566  0.0953
18550W        W22950  15.765   2.233   0.802  0.0465  0.3283  0.2297
18551W        W22951  16.832   3.657  10.343  0.2218 -0.0963 -0.4307
18552W        W22952   8.272   4.662   8.428  0.1990  0.2746  0.1896
18553W        W22953  13.607   5.839   5.525  0.2069  0.0468 -0.0368
18554W        W22954   8.200   4.745  25.443 -0.0965  0.0767  0.1905
18555W        W22955  21.093   1.488  23.489 -0.3801 -0.1019 -0.1837
18556W        W22956   5.068   5.629   8.600 -0.0054 -0.1187 -0.1347
18557W        W22957  14.007   0.424  23.576 -0.1661  0.3363  0.2430
18558W        W22958   8.059   2.678  10.037  0.1175  0.1328  0.2233
18559W        W22959  14.195   2.138  10.004  0.3118 -0.0653  0.0784
18560W        W22960  20.597   5.612   8.694 -0.0775  0.1221  0.0288
18561W        W22961   3.617   7.630  26.385  0.1105  0.2669  0.0372
18562W        W22962  11.723   6.204   9.871 -0.1194 -0.0314 -0.2089
18563W        W22963  14.135   3.859   7.997  0.0301  0.1298  0.2035
18564W        W22964   3.242   3.214  20.861 -0.0846 -0.3969 -0.2274
18565W        W22965  20.347   1.233  23.808 -0.0340  0.1322 -0.0426
18566W        W22966  20.318   3.533  32.388 -0.1347 -0.0838 -0.0201
18567W        W22967  11.432   1.406   8.319  0.4488 -0.0155 -0.2355
18568W        W22968  19.095   1.479  10.249 -0.3044 -0.0858  0.1337
18569W        W22969   6.724   0.175   7.449 -0.1996 -0.2437  0.0752
18570W        W22970   2.929   7.854  25.665  0.0142  0.2882  0.1963
18571W        W22971  13.801   4.902  32.084 -0.1108 -0.0757 -0.0266
18572W        W22972  17.274   6.811  18.136 -0.1223 -0.0156  0.1563
18573W        W22973  20.254   7.402  17.952 -0.0922 -0.0533 -0.1095
18574W        W22974  16.562   3.861  13.327 -0.1211  0.0195  0.0274
18575W        W22975  15.197   7.677  32.387  0.0846  0.0076 -0.0261
18576W        W22976   1.825   0.745   1.696 -0.2659  0.1680  0.0900
18577W        W22977   9.612   5.189  24.868  0.3346 -0.3006 -0.0661
18578W        W22978  23.291   4.376   6.723 -0.0249  0.1445  0.1573
18579W        W22979   6.452   0.021   0.834  0.0573 -0.0477 -0.1756
18580W        W22980  18.925   7.532  16.340 -0.0349 -0.0076 -0.2008
18581W        W22981   5.834   6.429   3.965 -0.3986  0.0243 -0.1163
18582W        W22982  20.673   5.706  30.547  0.0677  0.1016  0.0400
18583W        W22983  19.661   3.662   8.146 -0.2595 -0.3591 -0.1584
18584W        W22984  15.066   1.629   7.472 -0.2330  0.3993  0.1587
18585W        W22985  21.439   0.553  24.042  0.0524 -0.2308  0.1604
18586W        W22986  24.101   5.550   8.384 -0.0285 -0.1493  0.0240
18587W        W22987   2.446   0.485  10.918  0.2324 -0.3098 -0.0581
18588W        W22988  20.137   6.777   8.218  0.4368 -0.1577 -0.0569
18589W        W22989   9.415   1.637   6.300 -0.0643 -0.0096  0.0061
18590W        W22990   9.430   3.314   4.304  0.3889  0.3556  0.3291
18591W        W22991  24.164   1.936   9.447  0.1469  0.1026  0.1313
18592W        W22992   6.991   4.875  28.946 -0.4551 -0.4087  0.0697
18593W        W22993   7.747   6.877   9.757 -0.0322  0.0381  0.0282
18594W        W22994   6.964   5.721  23.733  0.2602 -0.0572 -0.0941
18595W        W22995  22.205   2.462  21.522  0.0225 -0.2436 -0.0611
18596W        W22996  15.167   4.694  10.276  0.2662  0.2288 -0.1156
18597W        W22997  17.481   2.957  28.365  0.0655 -0.1559  0.1063
18598W        W22998  22.458   0.163  27.463  0.3610 -0.0719  0.1606
18599W        W22999  10.551   1.825  10.276  0.4672  0.0916  0.0972
18600W        W23000  16.392   4.411  25.964 -0.0099 -0.1234  0.0634
18601W        W23001  12.147   6.010  10.095  0.2255  0.1278 -0.1137
18602W        W23002   7.356   5.720  24.197  0.0957  0.0890 -0.2321
18603W        W23003   9.509   6.245   8.313  0.4690  0.0895  0.3009
18604W        W23004  13.893   5.566   3.956  0.1246 -0.1273  0.0936
18605W        W23005   7.550   0.524  27.267  0.1612 -0.1233  0.0669
18606W        W23006  19.443   6.967  26.892 -0.2245 -0.0680 -0.3837
18607W        W23007   9.665   2.001  22.292  0.0561 -0.0131  0.2271
18608W        W23008  19.522   1.147  29.253  0.2094 -0.3019 -0.3131
18609W        W23009  10.932   2.993  30.546  0.1060  0.5041  0.1837
18610W        W23010   4.913   3.296  16.493  0.0306 -0.1171  0.5132
18611W        W23011   7.531   4.806  16.468  0.0918 -0.2096  0.0672
18612W        W23012  18.877   6.076  10.287  0.0706  0.0372  0.2834
18613W        W23013  15.502   5.212  32.218  0.2371  0.0873 -0.0145
18614W        W23014  19.208   5.715  14.668 -0.0635 -0.0091 -0.0976
18615W        W23015  12.426   7.318  27.524  0.2711 -0.1133  0.2991
18616W        W23016   4.715   5.829   2.479 -0.1040  0.2617 -0.1286
18617W        W23017  12.309   5.424  30.293 -0.4655 -0.0755  0.1153
18618W        W23018  12.724   6.235  26.710  0.2006 -0.3612  0.3727
18619W        W23019   5.612   7.215   0.363  0.0883 -0.0425 -0.0047
18620W        W23020  20.561   0.825  27.761  0.2914  0.3065 -0.1826
18621W        W23021  23.971   1.168  31.819 -0.0873 -0.3103  0.1685
18622W        W23022  12.942   4.043   0.414  0.0830  0.2175  0.0804
18623W        W23023  19.534   6.296  31.093  0.0996  0.1505 -0.1292
18624W        W23024  20.326   2.243  13.213  0.3292  0.0148 -0.3062
18625W        W23025  10.074   2.240   0.254 -0.2472  0.0207 -0.2118
18626W        W23026  10.641   6.634   7.500  0.2889 -0.0757  0.4227
18627W        W23027   3.723   4.672   8.026 -0.2198 -0.0999  0.1216
18628W        W23028  20.005   2.929  14.384  0.0049  0.1711  0.1287
18629W        W23029  20.699   7.468  14.960 -0.1528  0.1634 -0.0652
18630W        W23030   6.595   1.702  32.019  0.1569  0.3314  0.0518
18631W        W23031   2.391   4.036  24.976  0.0201 -0.3018  0.3387
18632W        W23032  12.120   1.800   4.909  0.1045 -0.2934  0.1204
18633W        W23033   3.282   3.330  28.110  0.1696  0.0173  0.3904
18634W        W23034   4.041   4.277   1.554  0.3186 -0.1904  0.0008
18635W        W23035  20.703   3.899   2.832 -0.0049  0.2726  0.3221
18636W        W23036   1.235   4.558   0.573  0.0012 -0.2914 -0.0280
18637W        W23037   6.785   1.880   7.594 -0.3221  0.2224  0.0844
18638W        W23038  13.128   0.574   0.840 -0.0309 -0.1246 -0.0533
18639W        W23039   5.298   2.268  20.405 -0.0942 -0.0748 -0.0720
18640W        W23040  15.282   5.345   1.854 -0.0230 -0.0258 -0.0902
18641W        W23041   3.837   7.614  27.261  0.0649 -0.1945 -0.0101
18642W        W23042  17.450   6.677  10.841  0.0420 -0.1738 -0.2309
18643W        W23043  14.140   0.696  32.454  0.0756 -0.2754 -0.2165
18644W        W23044  15.156   6.738  15.248  0.0086  0.0746  0.0024
18645W        W23045  16.956   3.158  24.985  0.4491 -0.4299  0.1280
18646W        W23046  10.520   7.347  28.916  0.0605 -0.0916 -0.1245
18647W        W23047   3.834   0.597  28.578 -0.0882  0.5323 -0.0070
18648W        W23048   7.381   0.859  24.960 -0.2447 -0.0091  0.0304
18649W        W23049  20.798   6.364  12.010 -0.0725 -0.3478 -0.0511
18650W        W23050   1.358   1.665   8.317 -0.0843  0.0962 -0.0185
18651W        W23051  17.909   1.887  11.763 -0.3312 -0.1856 -0.0570
18652W        W23052  20.393   1.947   9.155  0.1114  0.1028 -0.1603
18653W        W23053  15.014   1.072   1.533 -0.0407 -0.0004  0.1617
18654W        W23054  11.507   3.993   7.127 -0.0347  0.0741 -0.2476
18655W        W23055  22.521   7.565   2.446  0.1951  0.1176 -0.1104
18656W        W23056  22.048   5.579  28.447 -0.0740 -0.2623 -0.3193
18657W        W23057  19.063   4.443   9.256  0.3012  0.2713 -0.1467
18658W        W23058   5.956   5.270  27.226 -0.0449 -0.2787  0.0293
18659W        W23059  11.330   4.024  10.195 -0.1568  0.1436  0.2193
18660W        W23060   8.714   3.313   3.657  0.0668 -0.1457 -0.0276
18661W        W23061  14.201   3.610  21.681 -0.0380 -0.1684 -0.0347
18662W        W23062  19.403   0.201  10.357  0.1759  0.0526 -0.0836
18663W        W23063   7.240   3.303  18.796  0.0599 -0.0352  0.2143
18664W        W23064  24.694   6.650  27.736 -0.3945 -0.2368  0.0517
18665W        W23065  24.700   1.948   7.200 -0.0662  0.1578  0.3939
18666W        W23066   1.813   2.326  10.487  0.0827 -0.1534  0.1435
18667W        W23067   6.627   6.604  17.508 -0.1437  0.3606 -0.0766
18668W        W23068   3.999   6.594  26.809  0.0255  0.0050 -0.0468
18669W        W23069   1.921   7.408  31.904 -0.1048  0.2980  0.0109
18670W        W23070  16.036   3.972  32.143 -0.2763 -0.0564 -0.1425
18671W        W23071  18.242   4.754  13.307  0.1823  0.0026 -0.0588
18672W        W23072  17.414   6.706  17.392 -0.3442 -0.0387  0.4803
18673W        W23073  18.098   1.451  12.172 -0.0484  0.0756  0.0696
18674W        W23074  18.695   4.221   7.270 -0.0571  0.0544 -0.1759
18675W        W23075  16.538   7.023   6.405  0.2581 -0.1436 -0.1389
18676W        W23076   7.997   1.940  31.900 -0.1925 -0.2204  0.0386
18677W        W23077   1.766   0.442  32.518 -0.0530  0.1230 -0.3162
18678W        W23078  21.284   2.065   0.087 -0.2960 -0.2708 -0.0169
18679W        W23079  20.064   3.837   4.401 -0.0605  0.1554  0.0524
18680W        W23080  23.149   2.575   0.580  0.0115  0.0990 -0.0897
18681W        W23081  14.701   6.482  10.380  0.1420  0.0694  0.0396
18682W        W23082   8.849   1.593  17.763 -0.0306  0.0161  0.0708
18683W        W23083  23.070   1.368  25.685  0.0239  0.0165 -0.0099
18684W        W23084   4.463   1.325   2.848 -0.0598  0.1812 -0.1576
18685W        W23085  14.900   1.818   3.164  0.2197 -0.0973 -0.0494
18686W        W23086   4.949   0.984  17.822  0.0113 -0.1527  0.0965
18687W        W23087  24.734   1.250   6.617  0.0485  0.1677  0.1472
18688W        W23088  17.506   6.341  26.933  0.0945  0.1843 -0.2585
18689W        W23089  13.158   3.292  13.710 -0.0224 -0.1274  0.1621
18690W        W23090  12.908   6.277  12.387  0.2489 -0.0428  0.3549
18691W        W23091  14.374   2.689  30.614 -0.0792  0.0499 -0.1507
18692W        W23092  24.685   1.738  20.867  0.0542 -0.0994  0.2126
18693W        W23093   4.651   1.898   5.650 -0.2508  0.2240  0.0380
18694W        W23094   6.726   4.866  23.322 -0.2567 -0.1341 -0.0890
18695W        W23095  10.952   4.050   1.420  0.0725  0.3734 -0.0704
18696W        W23096   3.451   4.793  21.621  0.0833  0.1009  0.4235
18697W        W23097  10.233   3.767  21.532  0.0697 -0.0118  0.0776
18698W        W23098   5.691   7.577  27.046  0.1463  0.1571  0.1625
18699W        W23099   9.962   0.351  16.315  0.1958 -0.0422 -0.0552
18700W        W23100  22.241   2.277  31.350 -0.4244 -0.0443  0.1015
18701W        W23101  20.442   6.177  15.312 -0.0798 -0.0232 -0.1703
18702W        W23102  15.669   1.040  14.671  0.1521  0.2647  0.0094
18703W        W23103   7.648   0.906   5.875  0.2977 -0.1138  0.0784
18704W        W23104   7.267   4.711  14.409  0.3318  0.1373 -0.1721
18705W        W23105   0.074   1.538  23.046  0.2790  0.1931  0.3626
18706W        W23106  21.021   5.619  15.083 -0.2002  0.1117  0.1222
18707W        W23107  13.645   1.425  28.022  0.1802  0.2230  0.0269
18708W        W23108   8.071   7.116  16.750 -0.0408 -0.3501  0.0821
18709W        W23109  22.882   7.123  14.242 -0.0018  0.0545 -0.0089
18710W        W23110  20.534   3.375  23.596 -0.0922 -0.1348 -0.0157
18711W        W23111   7.002   1.249  14.217 -0.5304  0.1931  0.3653
18712W        W23112  10.494   1.182   6.271  0.0592  0.0586 -0.2253
18713W        W23113  11.056   2.081   5.478 -0.1183 -0.1314  0.0786
18714W        W23114  16.195   4.909  11.704 -0.0882  0.0015  0.1566
18715W        W23115  22.874   4.733  10.022 -0.1096 -0.0155  0.0983
18716W        W23116  21.750   2.400  13.413  0.0930 -0.1715  0.0558
18717W        W23117   1.173   3.599   6.846 -0.0031  0.0207 -0.0105
18718W        W23118   3.993   4.269   7.970  0.0245 -0.2629  0.0940
18719W        W23119  18.308   5.280  16.898  0.1021  0.2258  0.0645
18720W        W23120   9.874   1.191   6.194  0.0021 -0.2246 -0.1573
18721W        W23121  11.287   3.038  10.992 -0.2304 -0.1327  0.1172
18722W        W23122  11.131   4.307  24.589 -0.2026  0.3576 -0.1078
18723W        W23123  16.570   2.047  25.449 -0.3089  0.0909 -0.2501
18724W        W23124  21.519   5.542   4.112  0.0408 -0.1969  0.0907
18725W        W23125   4.186   2.195  30.194 -0.0524 -0.0139  0.0012
18726W        W23126  14.710   4.673  29.712 -0.1700  0.1096 -0.1208
18727W        W23127  17.535   6.255  26.028 -0.0114  0.1097 -0.3145
18728W        W23128  14.825   1.933  27.544 -0.1992  0.0579 -0.1848
18729W        W23129  21.830   2.566  25.123  0.2385  0.0956  0.0443
18730W        W23130  18.421   7.710  16.218  0.5058  0.1171 -0.1531
18731W        W23131   1.305   1.473   1.226  0.1044 -0.0786 -0.0663
18732W        W23132   2.780   4.592  17.468 -0.0240 -0.1526  0.0962
18733W        W23133  20.916   3.197   7.743  0.1834 -0.0862 -0.1254
18734W        W23134   6.624   4.469  30.142 -0.1776  0.1634 -0.0990
18735W        W23135   3.615   3.006  31.914  0.5096 -0.0475  0.3111
18736W        W23136   3.645   6.941  26.916  0.1391  0.1073 -0.1167
18737W        W23137  23.382   0.786  21.688  0.1573 -0.0944 -0.2004
18738W        W23138  19.489   5.440   0.524  0.2101 -0.0789 -0.0685
18739W        W23139   1.208   5.485   0.800 -0.0052  0.0959  0.0339
18740W        W23140   1.924   7.521  11.100  0.0390  0.2646  0.1314
18741W        W23141   8.839   4.889   4.789 -0.0477 -0.0723  0.1221
18742W        W23142  10.132   2.862   5.660  0.2345 -0.0981 -0.0728
18743W        W23143  19.903   7.773  22.799  0.2148 -0.0861 -0.2963
18744W        W23144   7.637   1.084  27.547 -0.2746  0.1070 -0.1968
18745W        W23145   0.478   7.461  10.527 -0.1163 -0.2078  0.2144
18746W        W23146   1.487   6.679   6.908 -0.2867 -0.1792 -0.0956
18747W        W23147  17.177   0.837   8.888  0.1006 -0.2092  0.0257
18748W        W23148   9.049   7.843  17.593  0.3367  0.1398 -0.1513
18749W        W23149  24.320   7.772  30.606 -0.0334 -0.2462  0.0263
18750W        W23150  14.813   1.131  10.093 -0.0777  0.2920 -0.2851
18751W        W23151   6.227   2.508   6.543 -0.2709 -0.0453 -0.1482
18752W        W23152  11.923   6.765  22.126  0.1807 -0.0961 -0.3824
18753W        W23153   7.868   4.788  26.174  0.0022 -0.1492 -0.0663
18754W        W23154   0.566   2.420   7.541 -0.3959  0.1791  0.3333
18755W        W23155  10.528   7.656  23.051 -0.0756  0.0412 -0.1574
18756W        W23156  23.948   1.999   1.637 -0.2458 -0.0752 -0.4133
18757W        W23157   8.092   7.192   6.842  0.0127 -0.0501  0.2512
18758W        W23158  23.117   4.961  30.925 -0.0924  0.0057  0.4930
18759W        W23159   1.793   0.174   2.515 -0.1908 -0.1688  0.1050
18760W        W23160  22.220   1.075  12.711 -0.2248  0.1827 -0.1294
18761W        W23161   6.464   5.072   0.834  0.0755 -0.1791  0.0974
18762W        W23162  19.058   0.261  12.595  0.0056  0.1005 -0.0943
18763W        W23163   7.317   1.335   0.121 -0.3515 -0.0773  0.2506
18764W        W23164  20.800   3.800   8.840 -0.3077  0.1033  0.1320
18765W        W23165  20.201   5.866   0.371 -0.0274 -0.0049 -0.0517
18766W        W23166   9.452   0.037  17.296  0.0359 -0.2237 -0.1448
18767W        W23167  13.100   7.034  12.794 -0.1686 -0.2470  0.1681
18768W        W23168   1.603   5.674  20.161 -0.2437 -0.0175 -0.2149
18769W        W23169  12.932   2.993  12.369  0.2600 -0.1818 -0.1290
18770W        W23170   8.474   0.070  29.934 -0.0667  0.0058  0.0243
18771W        W23171   4.231   2.949   9.367 -0.1661 -0.4584 -0.1199
18772W        W23172   6.025   5.204  22.986 -0.5257 -0.0004  0.0897
18773W        W23173  15.696   4.193   8.660  0.0634  0.0013  0.1602
18774W        W23174   5.741   2.575  18.466 -0.0724  0.0653 -0.0870
18775W        W23175  18.538   2.203   5.491 -0.0340  0.0513  0.3223
18776W        W23176   7.512   2.789  30.702 -0.0576 -0.0140  0.0811
18777W        W23177   1.085   3.489  26.982 -0.0542  0.1981 -0.1288
18778W        W23178   5.846   4.696   5.849 -0.1168 -0.4305 -0.1103
18779W        W23179  12.827   1.915  28.192  0.0553  0.0804  0.1271
18780W        W23180  10.297   3.480   4.098 -0.1639  0.0951  0.0300
18781W        W23181  16.736   3.081   3.896  0.1269  0.0925 -0.2360
18782W        W23182   6.733   6.048  30.927  0.1326 -0.0118 -0.2298
18783W        W23183  11.467   2.730  28.823  0.1604  0.1751 -0.0276
18784W        W23184  16.573   7.360  11.507  0.0148  0.4545 -0.0992
18785W        W23185   9.774   3.370  27.656 -0.2874 -0.1022 -0.0844
18786W        W23186  23.054   7.753  27.414 -0.0386  0.1490 -0.2291
18787W        W23187  14.033   4.953  12.018  0.0177 -0.0708 -0.1183
18788W        W23188   0.226   5.141  22.508 -0.0607  0.0967  0.0878
18789W        W23189   6.335   6.460  19.311  0.0069 -0.2572 -0.0419
18790W        W23190  14.332   2.553  20.412 -0.0517 -0.1891  0.1837
18791W        W23191  15.871   7.600   6.489  0.0694 -0.0667  0.1267
18792W        W23192  12.035   6.796   6.438 -0.0967  0.1626 -0.1968
18793W        W23193  16.862   1.995  15.049 -0.3327  0.4688 -0.1800
18794W        W23194  20.559   5.750   3.854  0.0905 -0.1522  0.0314
18795W        W23195   6.133   4.640  20.082 -0.0565  0.2937 -0.1294
18796W        W23196  10.582   7.477  31.805 -0.2465 -0.0659  0.1974
18797W        W23197  18.973   2.643  29.804 -0.0349 -0.3004 -0.1906
18798W        W23198  15.394   5.742  24.622 -0.6491 -0.1456  0.3085
18799W        W23199   7.446   6.401  25.814 -0.1488 -0.0948  0.1314
18800W        W23200  24.192   2.012   7.835  0.0743  0.1059 -0.0591
18801W        W23201   7.699   5.716   1.267  0.1387  0.2686 -0.0069
18802W        W23202  20.429   3.501  23.166  0.1507 -0.1023  0.1111
18803W        W23203  19.597   2.133  26.010  0.0093 -0.1207 -0.1715
18804W        W23204   2.707   1.747  27.915 -0.2976  0.1019  0.0821
18805W        W23205   7.495   5.539  29.873 -0.1163 -0.0286 -0.0582
18806W        W23206  16.573   3.126  28.650  0.3063 -0.1633  0.0357
18807W        W23207   8.756   1.196  21.983  0.3560 -0.2573  0.4315
18808W        W23208   1.207   1.947  27.883 -0.2371 -0.0656  0.2984
18809W        W23209  13.531   7.441  28.144  0.1610  0.2096  0.3450
18810W        W23210   5.490   5.022   1.871 -0.0434 -0.2133 -0.3240
18811W        W23211  24.549   5.591  25.936  0.1943 -0.1450 -0.0422
18812W        W23212   8.610   2.018  17.060 -0.1333 -0.3007  0.1045
18813W        W23213  10.761   5.362  11.275  0.0203  0.1841  0.0037
18814W        W23214   1.833   5.922  27.800 -0.1459  0.1198  0.2291
18815W        W23215   1.024   5.482  27.346  0.1175  0.1919  0.2473
18816W        W23216  19.848   7.456  28.109  0.2601  0.1617 -0.1544
18817W        W23217  14.603   2.822   9.464  0.1135 -0.0644 -0.1074
18818W        W23218   3.723   3.752  20.364  0.0947  0.1772  0.0748
18819W        W23219   9.448   4.615   3.060 -0.1161  0.3433  0.1661
18820W        W23220   6.464   5.250   6.091 -0.2402 -0.0736  0.0887
18821W        W23221   1.011   0.336   4.304  0.0624 -0.0335  0.2719
18822W        W23222   9.471   0.470  21.826 -0.4404 -0.0606  0.0783
18823W        W23223   1.186   3.858  25.810 -0.0850  0.0771 -0.1895
18824W        W23224   2.698   2.048  28.973 -0.0097 -0.0523  0.2118
18825W        W23225  19.334   5.354  26.837  0.1175 -0.2084 -0.3012
18826W        W23226  17.756   5.112   4.435  0.1269 -0.1493  0.0150
18827W        W23227   9.063   7.261  30.324  0.1708 -0.2898 -0.0203
18828W        W23228  19.702   1.811  23.874  0.1796 -0.1472  0.1935
18829W        W23229  20.078   2.563   1.726  0.1079  0.0917 -0.1663
18830W        W23230   3.907   6.213   4.165  0.1739 -0.1676  0.3863
18831W        W23231  11.187   0.445   7.261 -0.1871  0.1942  0.2745
18832W        W23232  23.991   5.387  12.058 -0.0587 -0.0912 -0.0083
18833W        W23233  24.659   4.434   0.742  0.0376  0.0063  0.1542
18834W        W23234  15.368   2.433   6.390  0.0883 -0.0253  0.0470
18835W        W23235  18.041   7.690   9.731 -0.2405  0.1019  0.1673
18836W        W23236  13.251   5.762  20.683 -0.1386  0.1333  0.0139
18837W        W23237  13.892   3.908   5.437 -0.2126 -0.2263  0.2355
18838W        W23238  20.430   4.607   6.531 -0.2704 -0.6132  0.1709
18839W        W23239   7.926   0.615  15.690  0.1666  0.5320  0.4458
18840W        W23240   5.624   6.735  32.558  0.1562  0.1035 -0.1739
18841W        W23241  10.940   6.246  27.744 -0.0809  0.1816 -0.1533
18842W        W23242   6.263   6.385  31.047  0.0251  0.3350 -0.1849
18843W        W23243   0.253   0.294  29.702 -0.2403  0.2392  0.0243
18844W        W23244   8.712   3.572  23.810 -0.0142 -0.3814 -0.3627
18845W        W23245   2.612   1.400  16.693 -0.3427 -0.1564 -0.0459
18846W        W23246   3.611   7.038   0.504 -0.2564 -0.1927  0.2723
18847W        W23247   9.390   5.931  10.100 -0.0066  0.0812  0.3066
18848W        W23248  20.875   4.263  32.495 -0.0162 -0.2226 -0.1840
18849W        W23249   7.425   4.017  22.540  0.0629  0.2681  0.0950
18850W        W23250  19.874   3.522   9.208  0.1319 -0.2262  0.0401
18851W        W23251   0.577   4.860  28.424  0.0154 -0.1054 -0.1539
18852W        W23252  17.303   6.073  10.554 -0.2520  0.0384  0.0918
18853W        W23253   4.573   3.030   6.357 -0.0082 -0.4907 -0.0396
18854W        W23254   8.692   1.579  22.937 -0.2055 -0.0416 -0.1794
18855W        W23255  17.606   2.223   6.810  0.2160 -0.0852  0.0048
18856W        W23256  20.150   3.821  31.965 -0.2486  0.0020 -0.1051
18857W        W23257   2.891   2.960  29.409 -0.1299 -0.2479 -0.2630
18858W        W23258   9.842   2.880   6.290 -0.2381 -0.3416  0.0180
18859W        W23259  19.023   7.485  28.039 -0.2379  0.1361  0.0561
18860W        W23260  16.459   5.662  25.662  0.1840  0.0155  0.1704
18861W        W23261  18.486   6.106  12.406  0.1801  0.1830  0.2702
18862W        W23262   3.316   2.232  22.239  0.3013 -0.2565 -0.0281
18863W        W23263  12.846   7.302  23.628  0.2644 -0.2078  0.2109
18864W        W23264   6.314   3.004  18.034  0.3464 -0.1328 -0.0535
18865W        W23265  18.371   7.376  31.290  0.1277  0.0440  0.0422
18866W        W23266   6.313   3.800   7.057 -0.2961 -0.2355 -0.1265
18867W        W23267  16.517   5.187  13.582  0.1922 -0.1125 -0.2288
18868W        W23268  24.511   5.853   2.636  0.3090 -0.2068 -0.2207
18869W        W23269  16.216   4.011  28.666 -0.1114  0.2600  0.0964
18870W        W23270  12.229   7.838  21.639  0.1214  0.1808 -0.0433
18871W        W23271  17.076   1.411   6.100  0.1989 -0.1321 -0.0485
18872W        W23272   5.149   6.060  28.508 -0.0884 -0.0635 -0.0949
18873W        W23273  10.184   3.196  26.626  0.0725 -0.0286  0.2184
18874W        W23274   2.370   3.042  26.003  0.0794  0.0429  0.0538
18875W        W23275   2.546   0.215  24.943 -0.1918  0.0067 -0.1065
18876W        W23276  13.005   0.810   3.435 -0.1148 -0.0332  0.2162
18877W        W23277   5.762   3.049  30.268  0.0193  0.1933  0.0113
18878W        W23278  10.026   3.329  18.307  0.1041 -0.1137 -0.0994
18879W        W23279   7.334   0.394  32.220 -0.1380  0.2662  0.1709
18880W        W23280  15.339   6.122   2.969 -0.2982  0.1337  0.1247
18881W        W23281  20.737   5.147  16.183  0.2783  0.2576 -0.0892
18882W        W23282  15.077   7.518   3.941  0.0835  0.0508 -0.2294
18883W        W23283  14.675   0.309   8.275 -0.2148 -0.0344  0.0987
18884W        W23284   1.627   2.811  20.641 -0.1807  0.0986  0.1305
18885W        W23285  18.397   5.476  25.452  0.0254 -0.5550  0.0721
18886W        W23286  10.561   3.904  27.378 -0.1400  0.0874 -0.2259
18887W        W23287  15.781   0.774  30.135 -0.1030 -0.1135 -0.2504
18888W        W23288   1.791   6.124  32.258 -0.0560 -0.4364 -0.0374
18889W        W23289   8.208   7.141  30.617  0.0839  0.0108 -0.0150
18890W        W23290   6.328   2.562  23.462  0.1280  0.3043 -0.0162
18891W        W23291   4.069   1.323  16.302  0.2932  0.0952 -0.1870
18892W        W23292  22.321   1.612  21.115  0.0329  0.1366 -0.1477
18893W        W23293  11.221   7.742   6.244 -0.0738 -0.0389 -0.1678
18894W        W23294  21.216   4.240   6.648  0.0923  0.0010 -0.0978
18895W        W23295  20.822   4.233  15.790 -0.1663  0.1291  0.0085
18896W        W23296   0.404   2.656  28.193 -0.2906 -0.1189  0.0910
18897W        W23297  12.457   3.152  20.620  0.0513 -0.0092  0.0257
18898W        W23298  12.303   0.924   9.210  0.1288 -0.1540 -0.0986
18899W        W23299   2.918   6.035   1.459  0.1254  0.0689  0.0514
18900W        W23300  13.025   1.685  23.115  0.1536 -0.3393  0.0375
18901W        W23301  12.787   6.256   1.302 -0.1255 -0.1567 -0.1381
18902W        W23302  19.580   2.759   6.352  0.7025  0.0997 -0.4609
18903W        W23303   6.100   0.532  21.913  0.2278  0.3073 -0.1914
18904W        W23304   5.742   6.007  32.462  0.1480 -0.3417 -0.2911
18905W        W23305  22.517   2.363  23.617 -0.2974 -0.1006  0.1969
18906W        W23306  14.423   3.595  29.103  0.0570 -0.1705 -0.2725
18907W        W23307  19.853   0.654  30.722  0.1921  0.0230 -0.2147
18908W        W23308  23.379   0.875   6.807 -0.0137  0.0414  0.0329
18909W        W23309   0.965   5.021  28.152 -0.0730  0.0539 -0.1249
18910W        W23310  10.256   4.565  24.714 -0.4030 -0.1628 -0.1664
18911W        W23311  23.733   1.115   2.054  0.2454  0.1628 -0.0024
18912W        W23312  17.124   3.423  12.162 -0.2901  0.0204  0.2043
18913W        W23313   8.766   7.065   9.546  0.0954 -0.0345  0.1457
18914W        W23314  22.331   5.550  10.517 -0.0524 -0.2098  0.0771
18915W        W23315  12.274   5.982   2.350 -0.1355  0.0058 -0.1400
18916W        W23316   0.355   6.602  19.844  0.2218  0.2429  0.1587
18917W        W23317   1.089   0.381  23.008  0.2206  0.0748  0.1607
18918W        W23318   5.013   2.903  16.862  0.2609 -0.0605 -0.2130
18919W        W23319   7.734   1.565  22.726 -0.1335  0.0419 -0.2544
18920W        W23320  20.089   7.155   2.208 -0.1975 -0.2891  0.0538
18921W        W23321  19.946   2.076   4.782 -0.2075 -0.0229 -0.2202
18922W        W23322  11.982   3.461   8.300 -0.1041  0.0209 -0.1536
18923W        W23323  25.005   0.773   5.835  0.1418 -0.0540  0.1029
18924W        W23324   2.206   4.007  26.383 -0.1148  0.2901 -0.1365
18925W        W23325  16.635   6.022   4.835 -0.1471 -0.2171 -0.2257
18926W        W23326   0.554   1.995   9.436 -0.1068  0.0144 -0.1696
18927W        W23327  21.680   4.292   2.924  0.0610 -0.2742 -0.0337
18928W        W23328  22.773   6.057  26.569 -0.2138  0.0848 -0.0536
18929W        W23329  14.420   0.902  31.448 -0.3645 -0.0611 -0.3162
18930W        W23330  14.255   0.952   1.624  0.2831  0.1285 -0.0407
18931W        W23331  18.104   1.106  29.760 -0.0320  0.3009  0.3086
18932W        W23332   9.467   2.232  16.963 -0.0875  0.0647  0.0497
18933W        W23333  10.499   1.951   9.231 -0.1887 -0.0196 -0.0366
18934W        W23334  23.065   0.586   3.702  0.1197 -0.1245 -0.1011
18935W        W23335  14.695   1.568   5.446  0.1126  0.1624 -0.1047
18936W        W23336   2.710   3.567   7.140  0.1771  0.3650  0.1559
18937W        W23337   7.558   6.366  17.010 -0.1240 -0.2616  0.1768
18938W        W23338  14.083   4.949   0.440  0.1060  0.0090  0.1048
18939W        W23339  22.718   0.394   8.179 -0.5777 -0.1003  0.1115
18940W        W23340   5.196   1.837   2.970 -0.0886 -0.3350 -0.1063
18941W        W23341   7.741   3.585  22.529 -0.1929  0.0676  0.0677
18942W        W23342  11.653   5.465   7.819  0.1765  0.2974  0.2139
18943W        W23343  21.674   7.678   6.846  0.1216  0.1391 -0.1137
18944W        W23344   3.276   3.655   4.184 -0.2060 -0.0832  0.0507
18945W        W23345   0.114   6.782   4.052  0.0868 -0.0493 -0.0128
18946W        W23346   2.326   5.207  23.042 -0.0871 -0.3442 -0.2542
18947W        W23347  15.231   1.553  26.435 -0.1959 -0.2002 -0.0357
18948W        W23348   3.898   0.023  17.981 -0.2713  0.0584 -0.1422
18949W        W23349  20.607   5.270  23.354 -0.0602  0.1185 -0.2577
18950W        W23350   1.927   0.181  18.977 -0.3909 -0.1718  0.1026
18951W        W23351  10.701   4.677  26.491 -0.2416 -0.2848 -0.1994
18952W        W23352  20.623   4.793  27.085  0.0624  0.0235 -0.2663
18953W        W23353  12.983   7.546   3.425  0.2213 -0.0265  0.0202
18954W        W23354   3.565   6.727  26.049  0.0535  0.2603 -0.1200
18955W        W23355  23.073   7.006  21.118 -0.2258 -0.1389  0.2667
18956W        W23356   3.596   6.985  31.387 -0.0729 -0.1859 -0.1532
18957W        W23357  24.310   4.926  12.278 -0.4902  0.6616 -0.1497
18958W        W23358  17.050   6.933  22.632 -0.1121  0.1803  0.1487
18959W        W23359   1.485   1.804  18.487  0.0376  0.0120  0.0971
18960W        W23360  24.025   2.434   9.035 -0.2767 -0.3032 -0.0980
18961W        W23361  19.952   4.777  11.091 -0.1604 -0.1399  0.0664
18962W        W23362   9.305   7.414  21.087 -0.0630 -0.0203 -0.2275
18963W        W23363  12.995   5.186  22.343 -0.0326  0.0278  0.1195
18964W        W23364  23.461   3.071  21.252  0.0130 -0.0182  0.0348
18965W        W23365  16.336   1.370  22.821  0.0293  0.2480 -0.0382
18966W        W23366   6.732   5.098  28.551 -0.3917  0.0387  0.1937
18967W        W23367  18.016   5.058  16.600 -0.0127  0.1433  0.3426
18968W        W23368  20.877   1.192  25.168 -0.3519  0.0440  0.1415
18969W        W23369  13.170   5.050   5.971  0.0357 -0.1173  0.0332
18970W        W23370  11.400   2.659   4.191  0.2615 -0.1061  0.0102
18971W        W23371  12.111   1.844  32.102 -0.3150 -0.0418  0.1513
18972W        W23372  22.010   4.785  14.952 -0.1162 -0.2124  0.1102
18973W        W23373  11.737   2.963  24.042  0.0474 -0.1217  0.1032
18974W        W23374   6.473   3.976  22.775 -0.0041  0.0806 -0.1293
18975W        W23375   2.356   0.161   9.286 -0.1289 -0.3126 -0.0653
18976W        W23376   1.843   0.701   2.183 -0.0627  0.0866 -0.1233
18977W        W23377   6.980   5.413   0.611 -0.0632  0.1318  0.1990
18978W        W23378   6.887   7.048  21.518  0.0420 -0.1062 -0.2024
18979W        W23379   9.274   2.894  19.813 -0.2010 -0.1635 -0.1378
18980W        W23380  18.735   4.697  31.785 -0.1268  0.2178 -0.1133
18981W        W23381  13.826   6.656   8.320  0.2051  0.2763  0.1317
18982W        W23382  19.997   3.314  23.873 -0.0415 -0.1157 -0.2950
18983W        W23383   5.582   6.834   6.221 -0.4037  0.1595  0.2072
18984W        W23384   1.455   0.326  25.563  0.0737 -0.3054 -0.1670
18985W        W23385   7.746   7.181   3.805  0.1220 -0.2382 -0.2949
18986W        W23386  14.583   1.062  27.136 -0.0027  0.0813  0.0914
18987W        W23387   7.379   4.608  25.795 -0.0185 -0.2452  0.0457
18988W        W23388  13.770   3.888  25.536 -0.0843 -0.0389  0.0422
18989W        W23389   6.228   7.312  32.052  0.2122 -0.0648  0.3711
18990W        W23390  15.710   7.244  32.227  0.1044 -0.1811 -0.0659
18991W        W23391  20.725   1.552  24.669  0.0180  0.2719  0.0140
18992W        W23392  23.966   0.643  31.961  0.2398 -0.0273  0.0983
18993W        W23393  23.485   5.261  12.865 -0.2051 -0.3720 -0.2441
18994W        W23394  15.875   5.826  29.085  0.0950 -0.2716  0.0884
18995W        W23395  20.886   0.088  12.825  0.0908 -0.0549  0.0475
18996W        W23396  21.846   6.904  25.735 -0.1687  0.1173  0.0877
18997W        W23397  14.169   1.524  13.778  0.2421 -0.2893 -0.1086
18998W        W23398   9.796   0.702  25.122  0.0794 -0.0471 -0.1081
18999W        W23399  15.986   1.747  27.500  0.1599 -0.4088  0.1620
19000W        W23400  19.746   0.374   7.066 -0.0127 -0.0454  0.2634
19001W        W23401   5.003   2.109   6.576  0.2716  0.4574 -0.3199
19002W        W23402   7.457   3.666  30.461  0.3139 -0.0027 -0.3767
19003W        W23403  15.216   3.682  24.200 -0.1837 -0.1524 -0.0579
19004W        W23404   3.119   6.525   6.851 -0.0025 -0.0029 -0.1661
19005W        W23405  19.978   3.917  10.583 -0.0828  0.0429  0.2848
19006W        W23406  23.521   0.479  28.110 -0.1445 -0.0252 -0.0763
19007W        W23407   8.959   3.125  21.393  0.0354  0.0533 -0.1238
19008W        W23408  19.621   6.371   9.735 -0.1709  0.2977 -0.0642
19009W        W23409  16.581   0.317  24.040  0.1614  0.4315  0.0163
19010W        W23410   6.337   3.293  29.407  0.0363 -0.0855  0.1311
19011W        W23411  23.451   6.797  27.419 -0.2615  0.0669 -0.0173
19012W        W23412  10.590   4.366  23.117 -0.0846  0.2186  0.1624
19013W        W23413   0.000   2.549  10.451  0.1949 -0.1341 -0.1862
19014W        W23414  22.872   2.368  27.501 -0.0284 -0.0610  0.0843
19015W        W23415   2.728   0.033   6.198  0.1260 -0.0119 -0.2139
19016W        W23416   6.251   7.820   6.288 -0.1548  0.0891 -0.2356
19017W        W23417   0.400   6.479   1.356  0.0001  0.0515 -0.0050
19018W        W23418   4.631   1.224  30.629 -0.4146  0.1130  0.0493
19019W        W23419   4.320   2.822  19.983  0.2636 -0.1546  0.1655
19020W        W23420  24.233   1.749  12.123 -0.3034  0.1088  0.3120
19021W        W23421   5.485   3.716  24.763 -0.2360  0.2807  0.1988
19022W        W23422  24.477   3.407  21.031 -0.0148  0.2159 -0.1340
19023W        W23423  10.395   5.521  28.051  0.0766 -0.0567  0.1540
19024W        W23424   6.347   0.410  14.818 -0.1986  0.1334 -0.0598
19025W        W23425   0.210   4.964   3.123 -0.0740 -0.0401  0.0942
19026W        W23426  12.494   7.514  27.986  0.0570 -0.1317  0.0121
19027W        W23427  18.865   3.007   0.462 -0.0107  0.2806 -0.1281
19028W        W23428  14.627   0.509  11.671 -0.0908  0.0114 -0.2055
19029W        W23429   7.015   0.548   5.403 -0.1761  0.0398  0.0959
19030W        W23430  24.457   7.800  11.018  0.2616  0.0432 -0.2292
19031W        W23431  17.589   3.909  13.396 -0.0272 -0.0119 -0.0602
19032W        W23432  16.672   4.643  30.006 -0.0534  0.2336  0.3007
19033W        W23433  21.668   5.801  28.713  0.0613  0.0476 -0.0009
19034W        W23434  18.716   5.581  17.087  0.0286  0.1644  0.0261
19035W        W23435  20.613   3.881  21.809  0.1126 -0.0676 -0.1176
19036W        W23436  18.194   6.919  29.579  0.1089  0.4746 -0.1165
19037W        W23437  22.171   4.672  12.657 -0.2917  0.4424 -0.1612
19038W        W23438  11.030   2.510  28.690  0.0375 -0.2562 -0.0369
19039W        W23439  10.447   3.972  21.099 -0.1427 -0.4625 -0.2651
19040W        W23440   0.793   0.975  30.813  0.0556  0.1702  0.2992
19041W        W23441   0.308   1.295  24.844 -0.0906  0.1835 -0.3927
19042W        W23442  21.675   2.928   2.642  0.1889 -0.0773  0.2293
19043W        W23443   6.375   1.964   6.157  0.0565 -0.3806  0.1828
19044W        W23444  21.681   2.104  30.362 -0.1636  0.0355 -0.0290
19045W        W23445  15.398   4.486  26.502 -0.0155  0.0398  0.1028
19046W        W23446  13.530   2.541  13.382 -0.0592  0.1801 -0.2899
19047W        W23447  18.948   0.173   0.359 -0.2899 -0.0150 -0.4728
19048W        W23448  23.174   0.484  30.134 -0.1504  0.0249  0.2180
19049W        W23449  13.233   7.582  25.837  0.0878 -0.0855  0.2916
19050W        W23450   9.785   1.673  17.600 -0.1242 -0.1543  0.2323
19051W        W23451   3.277   3.301   1.913 -0.0119 -0.1536  0.1095
19052W        W23452  23.479   0.346  31.054 -0.1770 -0.0016 -0.1336
19053W        W23453  19.257   1.028   1.853  0.1469 -0.1466  0.4069
19054W        W23454   7.398   6.150  23.162  0.0991 -0.0423 -0.1118
19055W        W23455  13.830   7.088   4.565  0.2490  0.2698  0.0045
19056W        W23456   5.436   1.509  31.939 -0.1632  0.1112  0.1761
19057W        W23457  10.305   7.333  26.003  0.0075  0.0517 -0.1319
19058W        W23458  17.364   3.401  26.190 -0.2204 -0.1588 -0.3007
19059W        W23459  11.046   5.844   8.887 -0.0718 -0.1235  0.2431
19060W        W23460  14.433   0.664  22.780 -0.1930  0.0741  0.0795
19061W        W23461  20.943   4.616   7.596 -0.2560  0.4454 -0.0938
19062W        W23462   9.181   0.273   6.496 -0.0419  0.2327 -0.0967
19063W        W23463  24.176   0.988  23.362 -0.0128  0.3454 -0.1728
19064W        W23464  11.606   6.699  11.000 -0.2338  0.0174  0.0394
19065W        W23465   3.766   5.328  18.049 -0.0297  0.0339  0.1657
19066W        W23466   8.322   3.754   9.157  0.1498  0.1074 -0.4667
19067W        W23467  10.566   2.664  24.883 -0.1881  0.1962 -0.0762
19068W        W23468   8.768   5.580   3.710 -0.2033 -0.0707 -0.3537
19069W        W23469  24.705   5.016  21.804  0.0748  0.0796 -0.1583
19070W        W23470  19.212   2.206  22.938  0.0066 -0.2919 -0.2465
19071W        W23471  18.434   6.639  11.224  0.0174 -0.0763  0.2835
19072W        W23472  16.816   2.315  10.059 -0.0202 -0.2763  0.1245
19073W        W23473  15.733   4.167   3.646  0.2611 -0.0511 -0.0567
19074W        W23474  21.024   7.508  11.516 -0.0760  0.0028 -0.1162
19075W        W23475  19.062   3.185   1.262  0.1622 -0.0874  0.0792
19076W        W23476   5.742   2.353  26.501 -0.1312 -0.1250 -0.1392
19077W        W23477   7.523   7.786  19.077 -0.1310 -0.0214  0.1873
19078W        W23478  23.557   3.380  13.980  0.0880  0.1854  0.3276
19079W        W23479  17.140   4.676  30.585 -0.2802  0.1932  0.1299
19080W        W23480  22.145   1.986  11.040 -0.1058  0.1236  0.0349
19081W        W23481  16.581   7.712  23.738 -0.3092  0.3960 -0.2830
19082W        W23482   2.775   3.709  11.015  0.5121  0.0211  0.2050
19083W        W23483   9.526   2.758  25.929  0.1360 -0.0139  0.0104
19084W        W23484  10.730   0.198  19.722 -0.0844  0.0513  0.2671
19085W        W23485   1.501   5.701  32.371 -0.1178  0.2082 -0.2526
19086W        W23486   2.056   2.221  32.476  0.1100 -0.1966  0.0391
19087W        W23487  12.620   2.711  23.672 -0.0275  0.1342 -0.0458
19088W        W23488  25.012   3.687   1.259 -0.0395  0.1820  0.0451
19089W        W23489   6.569   6.819   5.992  0.0683 -0.1860 -0.3851
19090W        W23490   4.426   3.290  23.347  0.0602 -0.2468 -0.0020
19091W        W23491   0.759   4.277  30.584  0.1248 -0.1032  0.2435
19092W        W23492   7.591   7.820  28.372 -0.0997 -0.1443 -0.0461
19093W        W23493  20.550   5.587  15.367 -0.0499 -0.0079 -0.2518
19094W        W23494  17.996   0.982  25.457  0.1826 -0.2754 -0.1015
19095W        W23495  18.046   7.234  22.828 -0.1855 -0.0890  0.1323
19096W        W23496   2.302   7.376   7.748 -0.0735 -0.2334 -0.1742
19097W        W23497  19.350   4.226   2.466  0.2362 -0.3009  0.2559
19098W        W23498  14.871   3.726  25.675  0.1739 -0.1284 -0.1586
19099W        W23499  23.016   2.350   4.063  0.3940  0.0250  0.0602
19100W        W23500  13.998   3.821  26.448 -0.0347 -0.0994 -0.0564
19101W        W23501   2.916   7.607   8.746  0.1202 -0.1373 -0.3223
19102W        W23502  11.272   7.556   5.363 -0.2909 -0.1531 -0.0930
19103W        W23503   5.273   7.698  21.900 -0.0951  0.1805  0.1104
19104W        W23504   0.349   5.506  23.532  0.0668 -0.1739  0.1381
19105W        W23505   0.584   2.881   7.295 -0.0598  0.2154 -0.0246
19106W        W23506  24.744   5.755  10.036  0.1240 -0.4558  0.0103
19107W        W23507  15.651   5.942  22.503 -0.3073  0.2159  0.1851
19108W        W23508   1.318   2.564   4.980  0.0729 -0.0853  0.1375
19109W        W23509  23.938   3.605   5.219  0.0023  0.1576  0.2477
19110W        W23510  21.796   5.487  11.914 -0.0399  0.1318 -0.0372
19111W        W23511  24.839   6.362  12.660  0.0525 -0.2183  0.1117
19112W        W23512  24.636   0.974   5.575 -0.3362  0.0199 -0.0104
19113W        W23513   3.269   4.686   8.095 -0.0236  0.0836  0.0253
19114W        W23514   9.019   0.498  32.150 -0.2711  0.1766 -0.2944
19115W        W23515  23.654   2.723   0.908 -0.1213  0.0066 -0.0097
19116W        W23516  19.534   1.303   9.441  0.1132  0.0523  0.0096
19117W        W23517   2.745   7.207  17.950  0.1952 -0.1278  0.0013
19118W        W23518  15.270   5.884  25.743  0.1651  0.2813 -0.2126
19119W        W23519   3.594   2.179   9.440  0.3220 -0.1108 -0.1050
19120W        W23520   2.241   4.696  32.407  0.4436  0.1493  0.2309
19121W        W23521   3.125   4.801   5.467 -0.1833  0.0627  0.0777
19122W        W23522  12.461   7.772  28.455  0.2928  0.3203 -0.4778
19123W        W23523   8.875   3.840  25.419 -0.0215  0.1670  0.0294
19124W        W23524  16.448   2.390   5.892 -0.0780  0.1070 -0.1221
19125W        W23525  12.181   1.923   8.786 -0.0707  0.0633 -0.1437
19126W        W23526  16.094   3.386  23.386  0.2930  0.1294  0.1546
19127W        W23527   9.195   0.159   6.003 -0.1794 -0.2443  0.0931
19128W        W23528   7.692   2.926  16.217  0.0377 -0.4494  0.1799
19129W        W23529   7.055   2.813  31.519 -0.0544 -0.0422 -0.2686
19130W        W23530  12.969   6.363  13.693 -0.1402 -0.0152  0.0619
19131W        W23531  13.635   2.410   4.926  0.0042 -0.0764 -0.1159
19132W        W23532  22.215   0.894  14.162  0.2006  0.1980 -0.1423
19133W        W23533   6.027   7.792  16.554 -0.3358 -0.1819  0.1141
19134W        W23534  23.069   6.808   4.424 -0.4142  0.0561  0.0741
19135W        W23535  24.536   2.423   4.840 -0.0240 -0.2441 -0.4238
19136W        W23536   0.664   5.519  30.891 -0.4237 -0.0298  0.1172
19137W        W23537  18.480   4.153  23.388 -0.0641 -0.0005  0.2465
19138W        W23538  14.596   0.750  24.217  0.2761  0.0967 -0.0326
19139W        W23539  22.566   3.602  28.681 -0.0049 -0.0151  0.0206
19140W        W23540  17.460   0.819   3.679 -0.2603 -0.0406  0.0728
19141W        W23541  15.344   6.253   5.203 -0.0644  0.1463  0.1242
19142W        W23542   0.550   7.527  29.875  0.0786 -0.1717 -0.2087
19143W        W23543   1.363   3.939   1.119  0.1602  0.2888 -0.0707
19144W        W23544   4.388   2.761  22.903  0.2308 -0.1347 -0.0971
19145W        W23545   1.774   2.124  24.370 -0.0186  0.0457 -0.2678
19146W        W23546   5.846   6.838  15.470  0.1132 -0.1273 -0.0646
19147W        W23547   4.095   3.804   2.301 -0.1923 -0.0157  0.0789
19148W        W23548   2.750   4.953  25.149  0.1918 -0.3611  0.2364
19149W        W23549  11.470   2.799   7.139  0.0781  0.1181  0.1245
19150W        W23550  10.443   7.274   9.636  0.0896  0.1311  0.0228
19151W        W23551   1.956   7.481   0.206 -0.0490 -0.1203 -0.0894
19152W        W23552   4.359   1.504   0.061 -0.1020 -0.0056  0.1611
19153W        W23553  11.502   4.026  27.203 -0.1990  0.1706 -0.3354
19154W        W23554   2.208   0.766   5.574  0.2556  0.3149  0.0691
19155W        W23555  19.393   1.060  26.302  0.2267  0.0664  0.1499
19156W        W23556  24.808   1.928  26.046 -0.1598  0.1472  0.0191
19157W        W23557  22.498   5.250  14.031  0.2420  0.1482 -0.1629
19158W        W23558   6.503   7.607   5.254  0.0599  0.0408  0.0512
19159W        W23559  18.619   0.476   0.098 -0.0090 -0.2685  0.1054
19160W        W23560   0.880   0.143  25.200  0.0713  0.0870 -0.1006
19161W        W23561   7.691   1.108  24.404  0.2249 -0.1919  0.1288
19162W        W23562  12.231   2.725   9.609 -0.2018 -0.2411 -0.0717
19163W        W23563  17.766   0.225   0.191 -0.0375 -0.0235 -0.2139
19164W        W23564   2.517   7.250   5.273 -0.0007 -0.1754 -0.0974
19165W        W23565   7.160   5.028   5.887 -0.0948  0.0450 -0.1185
19166W        W23566  12.849   4.782  21.134  0.0327  0.2181 -0.1162
19167W        W23567  24.190   2.248  10.862  0.0652 -0.0165 -0.0513
19168W        W23568  14.220   0.153  27.858 -0.3248 -0.0286  0.1838
19169W        W23569   9.635   3.637  19.156 -0.2049  0.2219 -0.0358
19170W        W23570  10.108   2.759   7.212  0.0133 -0.2033  0.2875
19171W        W23571   2.199   6.090  29.343 -0.0446  0.1029 -0.3169
19172W        W23572  11.017   1.788  20.910  0.0988  0.2577  0.2352
19173W        W23573  21.851   6.668  14.967 -0.2360  0.1247 -0.0222
19174W        W23574  16.015   5.017   9.074  0.2443  0.2050  0.0505
19175W        W23575  19.765   0.962   3.522 -0.1452  0.2471 -0.1196
19176W        W23576  20.280   3.972   3.942 -0.0337  0.1129 -0.1195
19177W        W23577  11.348   3.201   1.747 -0.0074  0.0396 -0.2823
19178W        W23578  11.756   5.409  32.188  0.1270 -0.0353  0.4942
19179W        W23579   8.436   1.441   6.015 -0.0340  0.3060 -0.0876
19180W        W23580   7.589   7.603  30.035  0.1506 -0.2297  0.0553
19181W        W23581  15.340   6.957  26.000 -0.2668  0.2327 -0.1509
19182W        W23582  19.244   5.392  30.362 -0.1180  0.2580 -0.1258
19183W        W23583   1.334   1.977  27.436 -0.1998 -0.1721  0.3484
19184W        W23584  14.090   0.316  11.924 -0.1613 -0.0478  0.0415
19185W        W23585  15.801   5.921  32.308  0.0083  0.0186 -0.0642
19186W        W23586   3.306   0.603  30.253 -0.3207 -0.1704  0.0745
19187W        W23587   0.143   0.083   4.475 -0.2934 -0.0122  0.0875
19188W        W23588   9.243   1.856  19.011 -0.1689  0.1837 -0.0456
19189W        W23589  14.860   6.578  30.158  0.0395 -0.3622  0.0456
19190W        W23590  19.491   3.582   9.623  0.5357 -0.0948  0.0053
19191W        W23591   5.478   1.699   8.629 -0.1973  0.0442  0.3564
19192W        W23592  24.885   7.824   7.941 -0.1749 -0.3614 -0.2964
19193W        W23593  23.042   3.209  10.436  0.1759 -0.1219  0.0533
19194W        W23594   2.868   1.914   6.756  0.1156 -0.0292 -0.2734
19195W        W23595  22.522   6.183  27.602  0.1636 -0.3282  0.1453
19196W        W23596  15.595   5.791   5.244 -0.1984  0.2539 -0.1318
19197W        W23597  19.367   6.662  30.358 -0.2048 -0.3479 -0.1518
19198W        W23598   6.695   1.124   1.968 -0.0405 -0.1387  0.0400
19199W        W23599   3.597   0.788   8.248  0.0221 -0.0484 -0.1907
19200W        W23600   0.238   0.060  32.159 -0.0935  0.0035 -0.0507
19201W        W23601  17.392   3.843  16.974 -0.0872  0.0781  0.2215
19202W        W23602   1.414   0.720   6.652 -0.0206  0.1799 -0.0149
19203W        W23603   4.437   5.324  19.755 -0.1853 -0.1132 -0.3859
19204W        W23604  19.808   5.211   7.131 -0.4869  0.0142 -0.1555
19205W        W23605   1.656   5.705  12.245 -0.1305 -0.0221 -0.0248
19206W        W23606   2.670   2.743   0.513 -0.1825 -0.0043 -0.0463
19207W        W23607  22.332   6.254  14.019  0.2194 -0.2871  0.0406
19208W        W23608  20.874   7.423  23.944  0.0057 -0.0419  0.2553
19209W        W23609  12.337   3.355  31.907  0.1979 -0.3977  0.2097
19210W        W23610  11.010   4.229  31.702 -0.2061 -0.0175 -0.2830
19211W        W23611   0.119   5.089   1.060 -0.1279  0.0210 -0.1066
19212W        W23612  21.048   2.656  14.735 -0.2186  0.1407  0.0818
19213W        W23613   5.171   2.498  24.866  0.0762 -0.2427  0.2525
19214W        W23614   2.345   5.651   1.716 -0.5336  0.2354  0.0375
19215W        W23615  18.097   6.269  22.930 -0.1267  0.0810 -0.1186
19216W        W23616   5.852   6.046   6.739 -0.3502  0.0275 -0.2900
19217W        W23617  20.848   0.001  24.623  0.1693 -0.0799 -0.1088
19218W        W23618  12.962   0.362  21.129 -0.0016  0.0373 -0.0690
19219W        W23619  14.900   2.534   7.243  0.0237  0.0576 -0.1034
19220W        W23620   3.928   5.355   4.177 -0.0788  0.0420 -0.3902
19221W        W23621   9.074   3.766  32.574  0.1789  0.1275  0.0600
19222W        W23622   7.451   6.879  25.660 -0.2764  0.2783 -0.0909
19223W        W23623  12.660   1.141   2.001  0.0618  0.2402 -0.3747
19224W        W23624  13.440   4.108  28.494  0.0296 -0.0409 -0.1556
19225W        W23625  10.803   0.800  31.340 -0.0153  0.0387  0.0498
19226W        W23626   7.922   4.024   7.583  0.0150  0.2972 -0.0283
19227W        W23627   0.657   6.445   9.258 -0.0818 -0.0005 -0.0711
19228W        W23628  14.376   5.487  30.818 -0.0410  0.0345 -0.0833
19229W        W23629  11.462   3.105  26.180 -0.0627 -0.4519  0.2167
19230W        W23630   6.467   7.753  31.110  0.0235 -0.0903 -0.0112
19231W        W23631  22.134   5.267  15.128 -0.1188  0.0447 -0.0216
19232W        W23632  19.322   0.509   2.373  0.0278  0.2957 -0.2056
19233W        W23633  11.697   3.387  24.396  0.0796 -0.0184  0.0571
19234W        W23634  16.826   4.144   7.474  0.0322 -0.2613  0.0713
19235W        W23635   9.963   5.075   8.492  0.2898 -0.1219  0.1834
19236W        W23636  12.136   4.631   0.974 -0.1180 -0.0555 -0.3696
19237W        W23637  18.558   5.682  15.119  0.0644 -0.2493  0.0732
19238W        W23638  16.271   3.724  24.825 -0.0016  0.0675 -0.1810
19239W        W23639  19.523   4.800  12.287  0.0344  0.0581 -0.1232
19240W        W23640   9.985   2.676  31.486 -0.0618  0.1406 -0.1682
19241W        W23641   6.238   0.128  24.088 -0.0467  0.1332 -0.1892
19242W        W23642  12.355   2.214   7.827  0.0002 -0.1068  0.1498
19243W        W23643   7.512   5.075   3.919 -0.0180  0.0731 -0.2860
19244W        W23644   5.132   0.360  18.116 -0.3093 -0.2056 -0.1805
19245W        W23645   8.100   7.698  27.533  0.0638  0.1884 -0.1445
19246W        W23646   7.958   2.921  18.356  0.1560 -0.0759 -0.0765
19247W        W23647   1.393   3.538  29.454 -0.1585  0.2009 -0.2228
19248W        W23648  23.996   7.439   0.853 -0.0086  0.3519 -0.2060
19249W        W23649   5.474   4.154  19.292 -0.3480  0.2476 -0.0831
19250W        W23650   3.350   3.314  23.736 -0.3403  0.2951  0.0027
19251W        W23651  15.620   6.404   6.663 -0.2727 -0.1073  0.2092
19252W        W23652  16.998   5.652  25.583 -0.3373  0.0886 -0.1178
19253W        W23653  20.599   5.087  11.488  0.3481  0.0895  0.0341
19254W        W23654  16.400   7.766  28.405 -0.0134  0.1943  0.0174
19255W        W23655   8.989   4.331  25.778 -0.0700 -0.0263 -0.0049
19256W        W23656  23.577   4.255   9.580 -0.1468 -0.3219 -0.2362
19257W        W23657   2.384   3.116   7.144  0.2724 -0.3577  0.1811
19258W        W23658  12.837   3.318   3.311  0.0481  0.0319  0.0627
19259W        W23659  15.568   6.969  15.462 -0.0731 -0.2229  0.0356
19260W        W23660  24.976   6.949  21.685  0.1508 -0.2024 -0.1996
19261W        W23661  23.384   7.389   2.901 -0.1244 -0.0821 -0.1404
19262W        W23662  23.171   6.859  12.642 -0.2466 -0.1578 -0.1125
19263W        W23663  23.395   1.311  23.015 -0.0759 -0.1155 -0.0791
19264W        W23664  24.924   3.135   1.191 -0.0916  0.0278 -0.1573
19265W        W23665   8.422   2.737   9.067 -0.2277 -0.1403  0.0993
19266W        W23666  23.369   5.326   6.352  0.0321 -0.3142  0.0852
19267W        W23667  15.461   5.060   9.157 -0.1244 -0.0440  0.2450
19268W        W23668  23.097   5.897  12.195  0.0150  0.0608  0.1729
19269W        W23669  11.169   4.547  28.601 -0.1146  0.0968 -0.0824
19270W        W23670  21.660   0.357  15.135  0.0935 -0.0801 -0.1321
19271W        W23671  20.964   0.433   3.565 -0.1455 -0.0476 -0.0041
19272W        W23672  19.015   7.430  15.461 -0.1672  0.3303  0.2036
19273W        W23673  11.122   3.469  25.894 -0.3316 -0.0964  0.1950
19274W        W23674   7.618   4.288   5.008 -0.0076  0.3867  0.0236
19275W        W23675  11.199   3.360   7.580 -0.0648  0.1951  0.1126
19276W        W23676  22.390   6.306  10.563 -0.3422  0.1484  0.4845
19277W        W23677   7.384   6.239  13.843  0.0163 -0.1046  0.4025
19278W        W23678  19.855   5.343  26.611  0.1245 -0.0180 -0.0408
19279W        W23679   0.381   0.326   6.401  0.0325  0.0498  0.2105
19280W        W23680  18.372   6.667   3.256 -0.1281  0.1597 -0.2994
19281W        W23681  24.914   5.737  23.600  0.3465  0.2381 -0.1643
19282W        W23682   7.018   2.567  22.350  0.3618  0.2514  0.3341
19283W        W23683   1.280   5.189   8.177  0.0468 -0.0726  0.2133
19284W        W23684   7.302   2.182  30.298  0.0859  0.2000 -0.1106
19285W        W23685   2.212   7.747  23.300 -0.1758  0.2899  0.0236
19286W        W23686  22.404   4.485  26.587 -0.0526  0.2718 -0.2107
19287W        W23687  17.329   6.839  24.335  0.0208  0.0770 -0.2345
19288W        W23688   2.095   6.578  31.733 -0.1606  0.2710 -0.1132
19289W        W23689  17.900   3.836   9.659 -0.0751  0.1528  0.3253
19290W        W23690  13.487   2.169  27.602  0.1700  0.1095 -0.0855
19291W        W23691  14.286   1.419  27.159  0.0676  0.3828  0.1513
19292W        W23692   0.266   4.797  26.467  0.0729  0.2640  0.0905
19293W        W23693  19.755   5.609   2.430  0.1152 -0.3936 -0.0290
19294W        W23694   4.183   0.060  26.303 -0.1223  0.1382  0.1983
19295W        W23695  21.830   7.316  22.658  0.0170  0.1627 -0.0942
19296W        W23696  19.663   7.402  11.922 -0.2215 -0.1852  0.2320
19297W        W23697  24.436   5.568  23.932  0.0260 -0.1601  0.0295
19298W        W23698   9.955   7.189  31.095 -0.1340  0.0746  0.1317
19299W        W23699   6.143   2.702  19.165 -0.1622 -0.0162 -0.0410
19300W        W23700  11.102   5.552   0.935 -0.1030  0.0182 -0.0477
19301W        W23701   6.452   1.367  32.443 -0.1230  0.2623  0.1500
19302W        W23702   6.889   4.415  20.983  0.0548  0.2774 -0.0338
19303W        W23703   0.214   6.811  32.369  0.0472 -0.0175  0.0177
19304W        W23704   7.203   6.223  18.232 -0.3691 -0.2424 -0.2503
19305W        W23705  19.360   4.899   6.385 -0.1322  0.0373  0.1450
19306W        W23706  18.592   4.732  23.216  0.1718 -0.1049  0.1643
19307W        W23707  10.255   2.711  15.881 -0.2591 -0.1272 -0.0917
19308W        W23708  16.068   3.272   6.654  0.4813 -0.0177 -0.1569
19309W        W23709  19.799   0.370  27.392  0.2089  0.3559  0.0191
19310W        W23710   2.906   1.488   6.044  0.0615 -0.1289 -0.1249
19311W        W23711  10.803   0.583  29.245  0.0474 -0.1230  0.1566
19312W        W23712  20.417   3.271   6.467 -0.2414 -0.1001  0.1517
19313W        W23713  20.163   7.359  31.445  0.2390 -0.1677  0.1156
19314W        W23714   4.642   7.206  18.901 -0.1323  0.2429 -0.0311
19315W        W23715  13.015   6.613  25.833  0.1648  0.1151  0.1212
19316W        W23716  20.889   2.456   9.376 -0.0790 -0.2401 -0.0041
19317W        W23717  14.569   1.183  29.893  0.1360  0.1114 -0.1427
19318W        W23718  18.670   5.209  29.566  0.1054  0.2549 -0.0693
19319W        W23719   6.681   4.785  16.593  0.0357  0.0693 -0.1025
19320W        W23720  15.809   0.154   7.215  0.0484 -0.1412  0.4598
19321W        W23721   1.367   7.318   9.272 -0.2647  0.0830  0.0122
19322W        W23722   9.918   0.416  30.383  0.2021 -0.0372 -0.2667
19323W        W23723  15.085   4.682   8.036  0.0123  0.4303 -0.3155
19324W        W23724  12.428   6.216   1.000  0.2624 -0.1197  0.0003
19325W        W23725  11.063   6.719  21.996  0.0004  0.0798  0.0312
19326W        W23726  10.920   4.711  25.761  0.0981  0.2036 -0.3194
19327W        W23727   4.408   0.492  31.809  0.0920  0.3223 -0.1771
19328W        W23728  23.178   6.421   9.153 -0.0040  0.2261  0.0046
19329W        W23729  12.175   6.923  27.756  0.0786  0.0567 -0.4499
19330W        W23730  18.297   0.610   8.944  0.0417 -0.1041  0.0292
19331W        W23731  12.805   3.107  29.239  0.1138 -0.1066 -0.1592
19332W        W23732  13.407   2.126  12.105 -0.2238  0.0527  0.0283
19333W        W23733  15.583   2.486  23.850  0.0339  0.0788 -0.0023
19334W        W23734  15.700   0.395  25.489 -0.0254  0.0441  0.0856
19335W        W23735  21.076   5.219  10.106 -0.1282  0.2027  0.0122
19336W        W23736  16.831   4.885  31.199  0.2118  0.2432  0.0193
19337W        W23737   0.927   3.023  11.480 -0.0206  0.2232  0.1082
19338W        W23738  25.129   6.838  11.429  0.0430 -0.1039 -0.1726
19339W        W23739   8.216   7.273  21.883  0.2306  0.0804 -0.2371
19340W        W23740  10.984   3.532  18.196 -0.0798  0.4280  0.1239
19341W        W23741  17.447   5.526  25.155 -0.1070  0.0631 -0.0985
19342W        W23742   0.829   3.652  25.510  0.0818  0.0991 -0.1207
19343W        W23743  16.485   7.321  29.685 -0.0621  0.0716 -0.2049
19344W        W23744  17.802   4.049  30.255 -0.0537  0.1284 -0.3071
19345W        W23745  15.268   4.167  26.834 -0.1798 -0.0888 -0.3678
19346W        W23746   8.647   3.968   1.813  0.4920  0.0389  0.1865
19347W        W23747  21.812   3.728  14.689 -0.0592 -0.0246  0.2090
19348W        W23748  18.592   5.788  26.947 -0.0577  0.2255 -0.1031
19349W        W23749  15.142   4.211   1.282  0.0173  0.0797 -0.0513
19350W        W23750   1.398   7.820  21.768  0.0676 -0.1872  0.0240
19351W        W23751   6.523   6.169  26.238 -0.0262 -0.0674 -0.0466
19352W        W23752  10.521   0.884  23.700  0.3059 -0.4316 -0.3828
19353W        W23753   1.524   4.336   6.029  0.1571  0.1729  0.0089
19354W        W23754   8.634   2.010  17.639 -0.0114 -0.0050  0.0004
19355W        W23755  10.023   0.711  30.865  0.0856  0.0400  0.4770
19356W        W23756  22.653   2.805  11.801  0.0476  0.1207  0.0223
19357W        W23757   7.564   0.085  23.786 -0.0335 -0.1690 -0.2253
19358W        W23758   5.480   0.858  22.619  0.0666 -0.1617 -0.5262
19359W        W23759   9.515   3.817   4.327  0.0174  0.0477  0.1292
19360W        W23760   1.227   2.010  31.907  0.3189  0.1080 -0.1544
19361W        W23761   8.604   7.476  29.755  0.0542  0.0930 -0.0262
19362W        W23762   9.397   0.872  20.639 -0.0042 -0.2676 -0.0890
19363W        W23763  17.776   5.897  24.818 -0.2221  0.1800  0.0824
19364W        W23764   4.378   1.097  20.701 -0.2459 -0.2247  0.0155
19365W        W23765  23.833   6.314   9.882 -0.0505  0.5621 -0.7626
19366W        W23766   6.272   1.452  22.215  0.0439 -0.0433 -0.0259
19367W        W23767  16.178   6.875   4.389  0.2506 -0.1793  0.0210
19368W        W23768  22.973   0.413  21.650  0.0643 -0.0143 -0.0309
19369W        W23769  17.128   1.630  12.779  0.1216 -0.6514  0.0917
19370W        W23770  18.821   2.714  11.359  0.0085 -0.1962 -0.2579
19371W        W23771  15.075   5.415  11.311  0.1612 -0.1312  0.0460
19372W        W23772   9.471   3.121  26.312  0.1609  0.1534 -0.2304
19373W        W23773  12.509   1.064   6.393 -0.0016 -0.3352 -0.2294
19374W        W23774  10.377   1.445  24.904 -0.2110 -0.1798  0.0689
19375W        W23775  19.699   4.050  29.600  0.1575 -0.1507 -0.2320
19376W        W23776   2.979   1.045   1.000  0.3951  0.3399 -0.3886
19377W        W23777  17.551   6.418  10.309 -0.3293 -0.2352 -0.0527
19378W        W23778   2.473   6.531  32.121  0.0411 -0.0360 -0.1133
19379W        W23779  13.642   0.003   8.441  0.0654 -0.2219 -0.2178
19380W        W23780   9.974   1.265  20.039  0.0743  0.1611 -0.0325
19381W        W23781   4.787   0.367  29.920  0.1601  0.0829  0.0971
19382W        W23782   5.596   5.996  23.359  0.3485  0.0200 -0.0707
19383W        W23783   1.102   4.975  27.381 -0.1704  0.1078 -0.0895
19384W        W23784   2.549   6.071   2.895  0.0535 -0.4457 -0.0751
19385W        W23785  22.390   0.952  15.917 -0.1456  0.0081  0.1397
19386W        W23786  22.390   3.555  22.987  0.3828 -0.2769  0.1212
19387W        W23787   9.806   0.161   4.116 -0.4784  0.3329 -0.0987
19388W        W23788  18.602   2.718  28.881  0.1323  0.1405 -0.1406
19389W        W23789  19.910   6.878  14.736  0.1777 -0.2197  0.2089
19390W        W23790  20.547   1.218   3.904  0.0201  0.3268 -0.3552
19391W        W23791  10.913   5.225  32.533  0.0144  0.0800  0.0037
19392W        W23792   3.870   6.687  32.354 -0.2460  0.1590  0.0284
19393W        W23793  17.818   1.761   8.661 -0.0142  0.0913 -0.1161
19394W        W23794  17.301   0.110  27.675  0.0258  0.1802 -0.0896
19395W        W23795   9.144   1.225   2.374  0.1131  0.0923  0.0287
19396W        W23796   0.254   5.000  13.208 -0.2607 -0.2223 -0.1144
19397W        W23797  13.099   6.512  10.164 -0.1043  0.0128  0.0292
19398W        W23798   8.478   1.134   6.841 -0.0464 -0.0947 -0.2524
19399W        W23799  12.868   2.250   3.889  0.0496 -0.2606  0.1111
19400W        W23800  11.961   4.322  23.443 -0.1538  0.1108  0.1596
19401W        W23801   6.055   4.395  27.624 -0.0766 -0.0240  0.3032
19402W        W23802   9.520   2.395   9.815  0.1207  0.0409  0.1666
19403W        W23803  24.060   7.490  32.559  0.0423 -0.1396 -0.0001
19404W        W23804  23.407   2.600  30.114  0.2070 -0.2608  0.2163
19405W        W23805  15.409   6.846   0.964 -0.2442  0.1984 -0.1689
19406W        W23806  14.469   1.534   6.301 -0.2494 -0.0021  0.0132
19407W        W23807  20.207   2.130  14.106  0.0815  0.0830  0.0092
19408W        W23808   4.159   5.414  21.683 -0.0452  0.0110 -0.0254
19409W        W23809   5.101   2.584   0.330  0.0016  0.1098  0.0646
19410W        W23810   1.448   0.920  21.245 -0.0334 -0.3856 -0.0339
19411W        W23811  17.816   5.300  17.536  0.2097 -0.1252  0.1256
19412W        W23812  16.072   4.346   1.975  0.1262  0.1379  0.2082
19413W        W23813  19.859   2.446  14.124 -0.0378 -0.1829  0.1768
19414W        W23814  19.637   2.918  24.188  0.0370 -0.4608  0.2390
19415W        W23815   4.305   6.830  21.838 -0.3214 -0.0173 -0.2851
19416W        W23816   6.978   5.990  28.807 -0.3369  0.2030 -0.0151
19417W        W23817   0.099   6.360   7.782 -0.1079  0.1362 -0.0730
19418W        W23818  13.481   3.501  22.908 -0.1316  0.0833 -0.0103
19419W        W23819  16.536   7.659  26.156  0.0690 -0.1619  0.4031
19420W        W23820   2.081   3.868  25.325 -0.0278  0.2095 -0.0481
19421W        W23821  23.715   1.146  27.196 -0.0038 -0.0859 -0.0051
19422W        W23822  17.462   4.537  12.112  0.2604  0.1756  0.0537
19423W        W23823   5.516   7.315  24.000  0.1323  0.0843  0.0773
19424W        W23824   7.158   2.537   5.483  0.1052 -0.2523 -0.2737
19425W        W23825  21.531   2.778   4.150 -0.0404  0.2024 -0.1239
19426W        W23826  10.437   4.281  10.972  0.0481  0.2245 -0.0119
19427W        W23827   2.123   2.307  22.260  0.1431 -0.0594 -0.1390
19428W        W23828   9.895   4.116  31.371 -0.0046  0.1269 -0.0841
19429W        W23829   2.977   3.832  17.819  0.1474  0.0763  0.2382
19430W        W23830   3.712   5.764  20.410 -0.2004 -0.2187  0.0089
19431W        W23831  23.157   4.116   1.896 -0.2520  0.2074  0.2370
19432W        W23832  17.602   5.433   1.717 -0.2568 -0.0673  0.1388
19433W        W23833  17.439   3.918   5.197 -0.0044  0.0889 -0.1393
19434W        W23834  21.180   0.139  25.029 -0.0193  0.1294  0.2466
19435W        W23835   6.932   0.690  29.141 -0.1384  0.0448 -0.0645
19436W        W23836  16.373   3.049  24.143  0.4099 -0.2371  0.0166
19437W        W23837   3.684   2.452  10.771 -0.1159 -0.1121  0.3330
19438W        W23838  17.511   4.769   5.482  0.0885 -0.0741  0.1801
19439W        W23839   7.795   4.703   4.657  0.0405 -0.3269 -0.0818
19440W        W23840   7.185   5.724   7.522 -0.1249  0.0643  0.2157
19441W        W23841  14.145   3.110  27.053  0.1456  0.2167 -0.0852
19442W        W23842  22.247   4.831  26.305 -0.2048  0.1608 -0.1109
19443W        W23843  10.742   3.130   8.637 -0.0371 -0.0825  0.2405
19444W        W23844   6.231   3.121  24.071  0.2870  0.1779 -0.1285
19445W        W23845  18.222   0.033  31.444 -0.2556  0.1699  0.0176
19446W        W23846   8.206   1.164  25.539  0.0341  0.0538 -0.2324
19447W        W23847   5.593   2.784   7.780 -0.0010  0.0922 -0.3027
19448W        W23848   2.882   5.671  31.013 -0.0158 -0.0424 -0.2326
19449W        W23849  13.420   0.175  25.988 -0.5138 -0.0245  0.0842
19450W        W23850   8.406   2.155  18.065 -0.0055 -0.1228  0.2517
19451W        W23851   7.734   1.122  29.978  0.3457  0.0865  0.0315
19452W        W23852  17.962   1.648  32.184 -0.1488 -0.4474 -0.0213
19453W        W23853  10.619   2.316   8.382  0.1824 -0.0615 -0.0984
19454W        W23854   8.779   4.233  26.701 -0.1237 -0.2676  0.0381
19455W        W23855  19.429   4.913  31.673  0.1972 -0.3942  0.0656
19456W        W23856   4.747   6.181  17.513 -0.0045  0.0975  0.0474
19457W        W23857  10.977   3.566  22.183  0.2800  0.1760 -0.0197
19458W        W23858   4.964   1.327   7.826  0.1885  0.3225  0.1916
19459W        W23859  15.521   2.445  28.039  0.3906  0.2131  0.1063
19460W        W23860  16.860   6.722   1.327  0.0702 -0.1652  0.0414
19461W        W23861  15.548   6.238  15.367 -0.0449  0.0185  0.1333
19462W        W23862  19.099   5.770   8.696 -0.0425 -0.1004  0.0746
19463W        W23863  19.461   5.262   0.059 -0.1596  0.1810  0.1511
19464W        W23864   1.096   0.142  18.708  0.0674 -0.1444 -0.1018
19465W        W23865  17.413   4.528   2.126 -0.1684 -0.4020  0.0532
19466W        W23866  15.690   2.470  27.533  0.1121  0.0150 -0.4841
19467W        W23867  19.073   4.598  22.440 -0.1561  0.1419 -0.1192
19468W        W23868   3.819   2.066  25.693 -0.2008  0.2253  0.1333
19469W        W23869   8.568   2.861  21.566 -0.0213  0.2679  0.0802
19470W        W23870   6.118   3.504   5.928 -0.1084  0.2335  0.1371
19471W        W23871  17.456   1.858  22.955 -0.2482  0.0063  0.2470
19472W        W23872  12.737   5.177  25.966  0.3406 -0.0061 -0.0955
19473W        W23873  19.331   3.340   3.190  0.0773  0.1795  0.0167
19474W        W23874  16.725   3.855  11.293 -0.2782 -0.0506  0.2886
19475W        W23875  15.626   1.330  13.542  0.0776 -0.3525  0.0277
19476W        W23876  19.129   4.912  14.102  0.0643  0.1733  0.1349
19477W        W23877  11.986   6.975  22.658  0.0304 -0.0294  0.0212
19478W        W23878  11.650   6.970  26.522 -0.1596  0.4644 -0.0609
19479W        W23879  24.000   1.548  10.190 -0.0283  0.0976  0.0441
19480W        W23880  15.016   1.918   0.830  0.0655 -0.2913 -0.1140
19481W        W23881  19.651   0.493  15.681 -0.1270  0.1489 -0.1654
19482W        W23882  22.247   7.284  27.291 -0.2895  0.0243 -0.1396
19483W        W23883   5.198   4.882  27.609 -0.2486  0.0915 -0.0758
19484W        W23884   8.945   4.798   6.531  0.2073 -0.0703 -0.0251
19485W        W23885  16.769   2.157   1.478  0.0836  0.1399  0.2850
19486W        W23886   1.598   5.503  11.679  0.1777  0.2015 -0.1732
19487W        W23887   4.927   2.442  31.460  0.0342 -0.1836  0.0277
19488W        W23888  11.669   2.305  28.154  0.0664 -0.0960  0.0776
19489W        W23889  12.499   1.366  32.108  0.2204  0.0989 -0.0745
19490W        W23890   2.558   1.788  21.643  0.1106 -0.1269 -0.0098
19491W        W23891   6.782   2.137   8.475  0.0931  0.0327 -0.2221
19492W        W23892   4.672   7.430  27.139 -0.2122  0.0848  0.2778
19493W        W23893   1.217   2.758  11.841  0.0346 -0.1147  0.2601
19494W        W23894   8.960   0.845  19.056 -0.0915  0.1423  0.1479
19495W        W23895   1.252   2.122  19.509 -0.0651 -0.0872  0.3970
19496W        W23896  19.348   2.621  27.171 -0.3048  0.1691 -0.1235
19497W        W23897  20.817   3.031   6.877 -0.1730 -0.1101 -0.3529
19498W        W23898   5.818   4.573  27.989  0.0643  0.3767 -0.2069
19499W        W23899  16.219   1.817  14.769  0.0323  0.1834 -0.0377
19500W        W23900  17.624   4.031  11.499 -0.0744  0.0114  0.0427
19501W        W23901  13.170   3.667   1.459 -0.1264  0.3154  0.0308
19502W        W23902  24.596   4.640  27.509  0.1428 -0.0920 -0.0237
19503W        W23903   2.616   2.282  17.558  0.0080  0.2412 -0.2820
19504W        W23904  23.907   4.884   3.557  0.2933 -0.1031 -0.3000
19505W        W23905  20.191   6.418   9.376 -0.0770  0.0355 -0.0684
19506W        W23906  22.501   1.154   2.082  0.1389 -0.1674  0.1913
19507W        W23907   8.032   7.705  31.136 -0.0668  0.0174 -0.0135
19508W        W23908  17.182   0.619  13.746  0.0441 -0.0500  0.1359
19509W        W23909  14.866   1.768  24.780 -0.1648 -0.0897 -0.1808
19510W        W23910   2.447   1.107   8.894 -0.1102  0.0823  0.0535
19511W        W23911   9.218   2.189   0.231 -0.2506 -0.1212 -0.2330
19512W        W23912   1.002   3.844  24.741 -0.1438 -0.1252 -0.0871
19513W        W23913  19.451   5.180   2.617  0.1969  0.5535  0.2178
19514W        W23914  10.445   6.291  17.420 -0.0988 -0.0737 -0.4400
19515W        W23915  11.304   1.585   3.092 -0.0304  0.0566  0.1393
19516W        W23916  16.452   4.695  13.525 -0.0587 -0.0964  0.0422
19517W        W23917   1.513   5.854   9.832 -0.4342  0.0693 -0.3057
19518W        W23918  18.778   0.370  19.102 -0.0041  0.0015 -0.0133
19519W        W23919   0.814   4.114   5.623 -0.0835  0.1645 -0.0416
19520W        W23920  14.098   2.866   5.726  0.1842 -0.0660  0.1173
19521W        W23921  16.489   4.316  25.498  0.2053 -0.1737  0.2306
19522W        W23922  25.117   1.632   1.936 -0.4313  0.1716  0.4234
19523W        W23923   4.196   1.880  26.085  0.0134  0.3688 -0.0100
19524W        W23924   8.071   7.636  18.770 -0.1520 -0.1279  0.1172
19525W        W23925   5.994   2.776   3.440  0.0513  0.1318  0.0928
19526W        W23926   7.054   6.607  23.229  0.0988 -0.0403  0.1879
19527W        W23927   3.206   2.810   6.864  0.0375  0.2244 -0.0987
19528W        W23928  10.166   5.617  25.150  0.0319  0.2166 -0.1433
19529W        W23929  15.626   3.812  25.169 -0.2142  0.0186  0.2310
19530W        W23930   5.506   7.656   1.529  0.0741 -0.1305 -0.4189
19531W        W23931  19.025   7.788  14.977  0.0755  0.0234 -0.0304
19532W        W23932  21.620   5.358   3.221  0.1628 -0.2059  0.2182
19533W        W23933  17.764   6.443   1.021 -0.2753 -0.0190 -0.0277
19534W        W23934   7.533   1.428  21.224 -0.2473 -0.0450  0.2128
19535W        W23935  15.672   1.576   5.836 -0.0468  0.0068 -0.3550
19536W        W23936   2.839   5.472  26.446  0.1512 -0.3613 -0.0552
19537W        W23937  19.986   5.113  24.978 -0.0218 -0.1673 -0.2190
19538W        W23938   3.630   4.403   7.346 -0.0126 -0.0136 -0.2859
19539W        W23939   0.355   3.441   2.046  0.0622  0.0730 -0.1703
19540W        W23940  19.249   1.423  28.923 -0.2105  0.2108  0.0190
19541W        W23941   8.522   1.808  20.263 -0.1505 -0.1300 -0.2713
19542W        W23942   3.898   5.751  27.860  0.1616  0.0421  0.1137
19543W        W23943  15.009   1.414   6.904  0.1441  0.2752 -0.0109
19544W        W23944   8.241   1.648  22.829  0.0825 -0.3537  0.2146
19545W        W23945  13.007   3.128  20.707  0.1065  0.0821 -0.0503
19546W        W23946   4.552   0.661  25.329 -0.0133 -0.0376  0.2451
19547W        W23947   9.049   4.228   1.931 -0.2146 -0.3747  0.1200
19548W        W23948   0.702   0.578  21.446  0.0380  0.2017  0.0767
19549W        W23949   3.694   6.885  31.968 -0.2356  0.1452 -0.3422
19550W        W23950   1.267   6.666  24.708  0.0118  0.1182 -0.1579
19551W        W23951  13.680   1.117  20.507  0.0299 -0.3043 -0.4361
19552W        W23952  24.460   4.239  26.030  0.1389  0.1830  0.1385
19553W        W23953  20.264   7.293  15.183 -0.0112 -0.0025 -0.2858
19554W        W23954  10.361   5.495  27.539 -0.2044 -0.1290 -0.0046
19555W        W23955  20.802   2.057  32.023 -0.1882 -0.1064  0.2126
19556W        W23956  11.169   1.665  20.463  0.4358 -0.0285 -0.0695
19557W        W23957   0.236   3.131  26.111  0.2303  0.4436 -0.2029
19558W        W23958  19.729   2.542  25.021  0.1442  0.0774  0.0160
19559W        W23959   2.836   5.113   8.144  0.0565 -0.0522 -0.0427
19560W        W23960   5.299   0.741  15.096 -0.0960  0.1714  0.1789
19561W        W23961   5.144   2.928   8.803 -0.4208 -0.0932  0.0240
19562W        W23962   5.533   4.832   8.898 -0.1168 -0.2011  0.1638
19563W        W23963  25.138   5.528  12.678 -0.0566  0.0737  0.0236
19564W        W23964  10.240   6.630  27.834  0.1932  0.0981 -0.1018
19565W        W23965   2.469   7.187  22.899 -0.2301 -0.0415  0.0558
19566W        W23966  10.852   1.584   7.525 -0.2387 -0.0529  0.0933
19567W        W23967   3.333   7.407   4.883  0.1959 -0.2329  0.3773
19568W        W23968   0.959   1.778  25.262 -0.0720  0.1572  0.2313
19569W        W23969  19.449   5.988  30.691 -0.0442 -0.0081 -0.0890
19570W        W23970   8.727   7.038   2.119  0.3249 -0.1063  0.2663
19571W        W23971  24.869   5.431  14.004 -0.0469 -0.0202  0.0891
19572W        W23972  18.576   7.654   6.088  0.0045  0.0224 -0.3285
19573W        W23973   2.369   3.483   7.548  0.2248 -0.0831  0.3414
19574W        W23974  21.074   7.593  10.820 -0.0660  0.1433  0.3109
19575W        W23975  13.779   2.288  25.345 -0.2060  0.1802  0.2061
19576W        W23976   8.738   2.828  19.655 -0.0264 -0.2434  0.2932
19577W        W23977  20.132   4.892  24.067  0.0436  0.1919 -0.2533
19578W        W23978  14.158   7.652   5.808 -0.3362 -0.2082 -0.0434
19579W        W23979  16.020   7.397  10.366  0.1310  0.0077 -0.3019
19580W        W23980  20.256   1.065  30.949  0.0370  0.3337 -0.0580
19581W        W23981  10.238   7.317  31.467 -0.0728  0.0108 -0.3054
19582W        W23982  10.840   2.871  24.488  0.0348 -0.1628 -0.0931
19583W        W23983   7.634   3.623  15.763 -0.1462 -0.1636  0.0066
19584W        W23984  24.815   1.153  12.580 -0.2418 -0.0453  0.0626
19585W        W23985  18.326   4.684  16.883  0.0039 -0.2211 -0.0502
19586W        W23986  20.622   6.841  27.958  0.1268 -0.0984 -0.0150
19587W        W23987   3.306   1.286   3.302 -0.0524  0.2502 -0.0156
19588W        W23988  16.477   6.896  14.552 -0.0399 -0.1248 -0.0329
19589W        W23989   9.450   6.160   5.998 -0.1894 -0.1580 -0.1608
19590W        W23990   2.652   7.836  29.588 -0.0630  0.0948  0.1119
19591W        W23991   3.823   0.938  24.161  0.1820 -0.0859  0.1134
19592W        W23992   0.274   5.888   8.031 -0.2915  0.1243 -0.2173
19593W        W23993  10.739   5.008   6.206 -0.1218  0.0075 -0.2847
19594W        W23994  23.997   6.254   2.552  0.1359 -0.0934  0.1382
19595W        W23995   4.582   2.796   5.936 -0.0399  0.1167 -0.4509
19596W        W23996  17.775   0.297  31.222 -0.1125  0.3889 -0.0392
19597W        W23997   6.490   1.773   8.625 -0.1224 -0.0293  0.0143
19598W        W23998   0.013   3.593  30.828 -0.1263 -0.1276  0.2514
19599W        W23999  10.189   4.872  22.278 -0.0572 -0.1096 -0.2594
19600W        W24000  18.050   7.497  25.777  0.1204 -0.1537  0.0172
19601W        W24001  19.238   3.819  22.668  0.2157  0.4687 -0.1512
19602W        W24002  11.595   5.905  32.005 -0.1884 -0.1258  0.0650
19603W        W24003  12.035   4.118  28.103 -0.0681  0.3375  0.2681
19604W        W24004  11.160   1.759   1.792  0.1390 -0.0382  0.1353
19605W        W24005   9.294   5.215  22.589 -0.3923  0.0909 -0.0961
19606W        W24006  14.038   4.322   9.298  0.0255  0.0134 -0.1639
19607W        W24007  10.454   1.612  26.680  0.0516  0.1559  0.3450
19608W        W24008  19.887   2.417   5.580  0.0263  0.1445  0.2469
19609W        W24009  15.529   3.998  26.398 -0.0817  0.2133  0.1255
19610W        W24010   5.311   2.467  24.171 -0.1932  0.0906  0.0092
19611W        W24011  12.425   2.711  26.670 -0.2518 -0.0390  0.2460
19612W        W24012  14.051   3.313   8.130 -0.2991 -0.2008 -0.0478
19613W        W24013  15.236   4.344   6.666  0.2534 -0.0304  0.0851
19614W        W24014  19.080   0.757  14.352 -0.0149  0.1568 -0.1867
19615W        W24015   4.223   4.668   7.826 -0.1567 -0.0075  0.0039
19616W        W24016   2.558   7.769  21.402  0.1336 -0.0262  0.1465
19617W        W24017   9.300   1.711   1.674 -0.2256  0.0811 -0.0762
19618W        W24018   4.338   4.649  27.873 -0.3458 -0.0855 -0.3239
19619W        W24019  13.678   5.487  23.727  0.1598 -0.0968  0.4262
19620W        W24020  22.766   6.468  31.604 -0.0904  0.1776  0.1237
19621W        W24021  24.635   4.398   5.304  0.1605  0.0513  0.1632
19622W        W24022  11.807   3.895   2.335 -0.0084 -0.0430 -0.0918
19623W        W24023   9.141   3.929  27.368 -0.1640 -0.0568  0.2366
19624W        W24024  24.145   5.355  31.913  0.2635  0.0272 -0.0473
19625W        W24025  15.622   6.199  27.700 -0.0592 -0.0355  0.2419
19626W        W24026   3.864   1.900   5.883  0.3115  0.4686 -0.0719
19627W        W24027   3.041   4.325  18.787  0.1533  0.0145 -0.1733
19628W        W24028   7.244   1.673   0.612  0.0075  0.0456  0.1657
19629W        W24029  22.818   6.668  23.645  0.0025  0.2818  0.0064
19630W        W24030  16.107   2.754   6.803  0.2181 -0.0736 -0.0101
19631W        W24031   6.588   5.878   9.985  0.1026 -0.2640 -0.1339
19632W        W24032   1.926   1.331   3.483 -0.3897 -0.3169 -0.2117
19633W        W24033  14.953   7.832   1.287  0.1380 -0.0489  0.2233
19634W        W24034  12.549   3.922  24.509  0.0733  0.2914  0.2074
19635W        W24035  13.998   6.495   9.080  0.0401  0.0636  0.2037
19636W        W24036  14.297   0.805  22.317 -0.0230 -0.2020 -0.2464
19637W        W24037   9.198   2.302   5.630  0.4303 -0.0366 -0.1522
19638W        W24038  17.661   3.089   1.161  0.1308  0.1056  0.0045
19639W        W24039   1.276   6.610  24.190  0.0992  0.1987 -0.1363
19640W        W24040  15.559   3.595   2.328  0.3177 -0.1914 -0.0817
19641W        W24041   0.228   0.072   3.952  0.1846  0.2453 -0.1189
19642W        W24042   8.717   3.452  17.758 -0.4995  0.0582 -0.0556
19643W        W24043   3.581   1.934  17.300  0.2967  0.2123  0.1365
19644W        W24044   3.738   5.094   9.667 -0.2288  0.3918  0.0960
19645W        W24045  14.737   7.803   0.798  0.0432 -0.2514  0.0974
19646W        W24046  18.797   5.397  28.231 -0.0519  0.1758  0.1591
19647W        W24047  11.769   7.493  30.176 -0.0194 -0.0357 -0.2710
19648W        W24048  21.471   3.478  12.407 -0.1110 -0.0795 -0.0721
19649W        W24049  23.966   3.752  13.084  0.5229 -0.1125  0.0500
19650W        W24050  20.187   1.881  27.739 -0.0125 -0.1593 -0.0373
19651W        W24051   1.739   4.141  20.834 -0.0563 -0.2998  0.0043
19652W        W24052  17.336   6.784  31.528 -0.0565 -0.1667 -0.1174
19653W        W24053   1.116   5.585  26.489 -0.5154  0.2074 -0.3359
19654W        W24054  12.944   0.158   6.873 -0.2001  0.2951  0.2333
19655W        W24055  22.890   2.924  30.988  0.1445 -0.0072  0.1283
19656W        W24056  18.429   5.759   8.075  0.0305 -0.2208  0.1661
19657W        W24057   0.987   1.807  23.348 -0.1215  0.0480 -0.0730
19658W        W24058   8.158   0.705  21.558  0.0801  0.0336  0.1648
19659W        W24059  23.509   6.944   3.201  0.1877  0.0499  0.0219
19660W        W24060  14.104   4.766  26.536  0.0439 -0.0568 -0.4169
19661W        W24061  11.567   5.499   7.333 -0.3656  0.0683  0.1437
19662W        W24062  13.067   1.712  22.109  0.0330  0.4178 -0.0369
19663W        W24063  13.875   1.022   2.957 -0.2295  0.1011 -0.0901
19664W        W24064  13.830   7.137  25.962 -0.0907  0.2511  0.3310
19665W        W24065  21.253   4.606  23.066  0.1218  0.2278 -0.0554
19666W        W24066  23.455   2.274  20.995 -0.0129  0.1987 -0.0204
19667W        W24067   2.343   6.641   0.453  0.1837  0.1029  0.0281
19668W        W24068   7.287   5.757  32.291 -0.1233 -0.0879  0.0718
19669W        W24069   8.297   4.599   7.393 -0.2498  0.0468 -0.1650
19670W        W24070  19.296   6.963   2.844 -0.0031 -0.0998  0.1820
19671W        W24071  12.877   2.263  12.030  0.1457 -0.3212 -0.2049
19672W        W24072   4.570   0.368  10.086  0.2319 -0.3727  0.0201
19673W        W24073   9.727   1.384   8.097 -0.0208  0.0479  0.0679
19674W        W24074  19.444   3.960  13.985  0.2054  0.1859 -0.3393
19675W        W24075  18.005   2.152   5.149  0.3441  0.0651 -0.2734
19676W        W24076  11.471   1.350   4.445  0.2475  0.1709  0.1307
19677W        W24077  23.724   7.711  27.570 -0.2635  0.0493 -0.2796
19678W        W24078   7.597   4.334  21.179  0.0125 -0.1805  0.0540
19679W        W24079  15.986   5.927  23.163  0.1176  0.0542  0.1337
19680W        W24080   9.310   7.843   6.854  0.0577  0.0672 -0.2301
19681W        W24081   5.092   2.648   3.263  0.1176  0.0576  0.1278
19682W        W24082  10.744   1.447   1.803 -0.1063 -0.1753  0.0805
19683W        W24083   3.522   4.694  27.554  0.1517  0.3388  0.0477
19684W        W24084  23.726   6.039   3.162 -0.0570 -0.0166 -0.2935
19685W        W24085  18.940   1.704   2.984  0.1498 -0.1173 -0.1720
19686W        W24086  20.665   2.376  11.398  0.2742 -0.0434  0.0221
19687W        W24087   4.452   3.993  17.023 -0.0171  0.4935 -0.1030
19688W        W24088  23.773   2.871   5.578  0.1087  0.1028 -0.1345
19689W        W24089  17.985   1.017  10.635  0.0385  0.0279 -0.1947
19690W        W24090  22.402   7.189   8.711  0.0775  0.2148  0.0895
19691W        W24091   2.679   5.698  23.860 -0.1651 -0.0850 -0.0946
19692W        W24092  16.524   7.202   1.367  0.0890 -0.0935 -0.5226
19693W        W24093  12.872   7.001   6.505 -0.0799 -0.2909 -0.0987
19694W        W24094  21.979   7.313  13.952  0.1370  0.3525 -0.3122
19695W        W24095  16.794   2.443  26.936  0.0057  0.0431  0.0100
19696W        W24096   1.516   2.957  28.870 -0.0244  0.1570 -0.1937
19697W        W24097   4.858   7.642  31.237  0.2064  0.4222 -0.0455
19698W        W24098  19.639   3.744  15.829 -0.0469  0.1408  0.0757
19699W        W24099  16.914   7.500  15.125 -0.0429  0.1294  0.0364
19700W        W24100  19.663   4.421   8.476  0.1771  0.2114 -0.0557
19701W        W24101  21.827   1.544   3.253  0.1980 -0.0275  0.1215
19702W        W24102  20.767   5.032  29.540 -0.1691 -0.3065  0.3279
19703W        W24103   3.235   6.918  25.191  0.4795  0.3355 -0.0713
19704W        W24104  24.277   0.332  10.767 -0.0611 -0.1467 -0.1869
19705W        W24105  20.399   4.677  26.329  0.5056 -0.2507 -0.3025
19706W        W24106   6.851   3.965  23.304  0.0869  0.1987  0.0424
19707W        W24107  13.381   7.845   6.963 -0.1573 -0.2057 -0.0453
19708W        W24108  15.679   7.705   2.848  0.1539  0.1392  0.0850
19709W        W24109  17.294   5.136  12.058 -0.0353 -0.1112 -0.2777
19710W        W24110  21.258   2.860  10.438  0.1584  0.1663  0.2890
19711W        W24111  12.883   6.228   0.715 -0.0314  0.0241  0.0206
19712W        W24112  20.745   4.066   6.696 -0.0996  0.0429  0.1025
19713W        W24113  15.533   1.054   0.347 -0.1206  0.1050  0.0740
19714W        W24114  17.199   3.319  10.330 -0.0934 -0.0236 -0.0583
19715W        W24115   0.715   7.516   6.710 -0.2119  0.2542 -0.0628
19716W        W24116  22.587   3.318  25.946  0.1789  0.1147 -0.0827
19717W        W24117   9.009   7.775   5.094  0.0497 -0.0636 -0.1256
19718W        W24118  16.378   3.499   5.527  0.0330 -0.0069  0.0997
19719W        W24119   5.084   4.674  31.719 -0.0356  0.1498 -0.0137
19720W        W24120  11.041   3.635   2.475  0.3658  0.1708  0.0307
19721W        W24121  24.111   4.025   7.444 -0.0116 -0.1804 -0.3152
19722W        W24122  19.615   4.119  16.195 -0.1359 -0.1016 -0.2437
19723W        W24123  22.991   3.929  25.391 -0.0208 -0.1091 -0.1736
19724W        W24124  14.678   2.616   8.413  0.1601 -0.4084 -0.0146
19725W        W24125  12.385   7.306  21.338 -0.1099 -0.2102  0.0717
19726W        W24126  12.358   3.317   9.522  0.2113  0.2559 -0.5489
19727W        W24127   3.315   7.584  16.548 -0.0701 -0.1052  0.1472
19728W        W24128  18.548   7.020  25.048 -0.1811  0.2987  0.0791
19729W        W24129   9.989   3.539  28.492 -0.2286  0.1007 -0.1785
19730W        W24130  11.877   3.585  22.132  0.0171  0.0744  0.0734
19731W        W24131   0.307   6.239  27.380 -0.2278  0.2234 -0.1163
19732W        W24132  19.415   1.499  15.586 -0.0272 -0.0012 -0.1339
19733W        W24133  23.008   5.729   7.079  0.0849  0.1161  0.0165
19734W        W24134  24.294   5.067  29.594  0.4783 -0.2514 -0.0452
19735W        W24135  25.092   4.288  19.426 -0.0400  0.1486  0.0625
19736W        W24136   7.930   4.973  21.767  0.1734  0.1415 -0.0385
19737W        W24137   0.221   4.024   8.311  0.1662  0.1083  0.0860
19738W        W24138   5.651   6.946  27.755 -0.0974  0.0054 -0.0209
19739W        W24139  21.009   6.246  31.412  0.0068 -0.3088  0.0451
19740W        W24140  20.494   4.280  14.339 -0.0294  0.0972  0.1687
19741W        W24141  16.895   5.894   0.835  0.0345 -0.1477 -0.2503
19742W        W24142   2.863   1.316  25.442 -0.0576  0.0590 -0.1452
19743W        W24143  22.230   1.308  14.483 -0.0272  0.2548  0.0934
19744W        W24144   8.127   2.250  25.820  0.0096  0.1841 -0.0301
19745W        W24145   4.892   2.168   5.235  0.4520  0.1543  0.0418
19746W        W24146  20.430   5.612   1.164 -0.0645 -0.0920  0.0940
19747W        W24147  24.610   4.464   7.945  0.1311 -0.1404  0.0770
19748W        W24148   4.960   1.270  16.542  0.0909  0.1244 -0.1726
19749W        W24149   1.166   7.765  30.552 -0.0408  0.2433 -0.0416
19750W        W24150   6.585   6.565   5.492 -0.2061 -0.2845 -0.0509
19751W        W24151  18.869   7.168  25.399 -0.0996  0.1758  0.2673
19752W        W24152   2.109   2.153  11.818  0.1675 -0.3272  0.0053
19753W        W24153  15.679   0.695  23.367 -0.0278  0.2428 -0.1601
19754W        W24154   3.108   1.948  10.965 -0.1844  0.2298  0.1754
19755W        W24155  23.000   0.467   6.151  0.1832  0.1309  0.1354
19756W        W24156   4.214   7.239  15.200  0.3343  0.2217 -0.1972
19757W        W24157  22.110   4.290  13.072  0.2446 -0.0210  0.1204
19758W        W24158  21.989   2.430  11.944  0.0462  0.2156  0.0188
19759W        W24159  19.064   1.707  10.728  0.1073 -0.1133 -0.2213
19760W        W24160  20.704   2.328   5.902  0.0250  0.1515  0.2991
19761W        W24161  14.309   0.566   5.599  0.0274  0.0216  0.0574
19762W        W24162  24.568   5.564   1.750 -0.0954  0.0679  0.0517
19763W        W24163   8.467   2.725  23.555 -0.1446  0.2793  0.0605
19764W        W24164  16.845   7.225   2.101  0.0577  0.0408 -0.0565
19765W        W24165   0.147   2.381   2.976 -0.2308  0.1530 -0.1325
19766W        W24166  13.721   3.204   4.275 -0.2536 -0.2289 -0.2039
19767W        W24167   1.541   1.979  29.528 -0.2939 -0.0563 -0.1615
19768W        W24168  19.323   1.306  32.382  0.1348 -0.1195 -0.2751
19769W        W24169   6.039   6.388  20.306 -0.1365  0.0709  0.0478
19770W        W24170  18.933   7.035  10.594  0.3087 -0.1387  0.0469
19771W        W24171  19.843   6.011   6.574 -0.2495 -0.1143 -0.0322
19772W        W24172   9.414   6.380  19.327 -0.2423  0.0097 -0.2442
19773W        W24173  24.295   3.469  10.069 -0.0793 -0.0836 -0.1241
19774W        W24174   5.513   3.189  16.098 -0.1774 -0.2902  0.0701
19775W        W24175  18.670   1.928  27.875 -0.0089  0.2013 -0.2405
19776W        W24176   4.432   6.277   6.646 -0.4537  0.3151  0.2167
19777W        W24177  24.317   3.784  23.622  0.0021  0.1500  0.0966
19778W        W24178   1.278   0.825  25.676  0.1628 -0.0428 -0.3948
19779W        W24179   0.760   5.942  28.168 -0.1382 -0.2749  0.0408
19780W        W24180  16.174   7.229   0.813 -0.0346 -0.1536  0.2815
19781W        W24181   2.513   4.698  10.999  0.2566 -0.0205 -0.1683
19782W        W24182  13.493   2.712  25.113 -0.1817 -0.0035 -0.0872
19783W        W24183  13.033   5.868   4.022 -0.1670  0.0680 -0.0912
19784W        W24184  13.395   1.779   5.683  0.0409 -0.0809 -0.0959
19785W        W24185  19.622   3.380   4.412 -0.1038  0.0961  0.0470
19786W        W24186  20.180   2.520  17.088  0.0567 -0.0861 -0.0777
19787W        W24187   8.587   4.033  25.744 -0.0767  0.0172 -0.0820
19788W        W24188   8.121   4.151   5.988  0.0219  0.1845 -0.1405
19789W        W24189   8.924   1.416   1.400 -0.1126  0.0506 -0.0935
19790W        W24190   3.097   2.689  31.943 -0.3195 -0.1388 -0.1528
19791W        W24191  11.269   6.925   4.794  0.0858  0.1883  0.3391
19792W        W24192   7.663   2.983  17.958 -0.1166 -0.0304 -0.1611
19793W        W24193  23.426   3.501  28.793 -0.0297 -0.0442 -0.0933
19794W        W24194   9.419   1.977   2.451  0.0625  0.2824  0.3077
19795W        W24195   4.114   0.801  25.050 -0.0176 -0.1744  0.0578
19796W        W24196   1.821   4.056   3.132 -0.1488  0.4165  0.1019
19797W        W24197  13.007   2.178  12.890 -0.0553  0.0891 -0.0528
19798W        W24198  15.635   6.441   9.949 -0.4487  0.1395  0.1602
19799W        W24199  16.688   3.789  26.812  0.0895  0.1408  0.2187
19800W        W24200  21.481   5.968  16.362  0.5351  0.1403 -0.2675
19801W        W24201   4.684   2.714  15.759 -0.2050  0.1920 -0.0683
19802W        W24202  23.752   1.481  11.077 -0.2089  0.3309  0.2055
19803W        W24203   2.461   2.821  21.508  0.0858  0.0217 -0.1444
19804W        W24204   0.822   6.475  11.353 -0.2478 -0.1861  0.1208
19805W        W24205  22.880   6.255   1.388  0.2352  0.1437 -0.0363
19806W        W24206  10.797   4.461  29.600  0.0190 -0.1226 -0.0269
19807W        W24207   7.341   0.604  24.514  0.0073  0.0533 -0.1871
19808W        W24208  14.183   2.562  28.007 -0.0842  0.1185  0.0629
19809W        W24209  20.961   0.917  26.170  0.0419  0.0213 -0.0727
19810W        W24210   8.223   5.338  30.468 -0.0404 -0.2567 -0.1134
19811W        W24211   0.306   5.662  24.546  0.1158 -0.0693  0.0714
19812W        W24212  18.641   1.641  28.376  0.0256 -0.0013  0.0671
19813W        W24213  12.583   6.291   8.909 -0.2000 -0.1347 -0.1177
19814W        W24214   6.968   0.053  30.987 -0.4897 -0.0223  0.0205
19815W        W24215   5.286   3.586  26.200  0.2660 -0.1611  0.1229
19816W        W24216  20.841   3.053  26.454  0.1275 -0.0646  0.1746
19817W        W24217   7.197   3.811  22.910 -0.1003 -0.2197 -0.4372
19818W        W24218  13.754   4.961   8.783 -0.0402 -0.0805 -0.0745
19819W        W24219  14.925   1.809  30.266  0.0135  0.1730  0.0992
19820W        W24220   6.498   1.745   3.171  0.0728  0.1009 -0.4135
19821W        W24221  21.234   3.794  12.951 -0.0765  0.0402  0.1245
19822W        W24222  11.551   1.104  11.056 -0.1791  0.3374 -0.3256
19823W        W24223  19.265   4.185   6.835  0.1294 -0.1559 -0.0014
19824W        W24224   2.319   4.700   9.582 -0.4405  0.0721  0.6695
19825W        W24225  17.630   3.683  12.245  0.3323 -0.1292 -0.3358
19826W        W24226  23.764   6.820  21.180 -0.0182  0.2790  0.1331
19827W        W24227  12.422   6.034  26.024  0.1671  0.0281  0.2106
19828W        W24228   7.422   7.297   5.803 -0.2316  0.0275  0.1523
19829W        W24229   8.520   0.944  28.380 -0.1187  0.2465  0.2193
19830W        W24230   9.246   0.272  14.874  0.0237  0.1636  0.1798
19831W        W24231   0.252   7.151  29.894  0.1579 -0.1998 -0.0661
19832W        W24232  16.603   7.739  11.145 -0.0242 -0.0241 -0.2256
19833W        W24233  23.243   4.323   7.493 -0.3416  0.5133 -0.0250
19834W        W24234   1.544   5.022   3.374  0.0799  0.3595  0.0235
19835W        W24235  18.991   3.339  25.636  0.0523  0.0386  0.1706
19836W        W24236   6.633   4.615  31.295 -0.1259 -0.0871  0.2501
19837W        W24237  13.045   0.802  13.266  0.0062  0.1811 -0.2586
19838W        W24238   8.807   1.187   2.813 -0.0147  0.1459 -0.1390
19839W        W24239  16.671   6.387   3.808  0.0583 -0.1810 -0.1903
19840W        W24240  20.920   0.855  18.228 -0.1495  0.0784 -0.3424
19841W        W24241  20.090   1.252  29.932 -0.0905 -0.3258  0.2197
19842W        W24242   0.090   0.427  29.085  0.0539 -0.2347 -0.1366
19843W        W24243   0.414   2.642  29.743  0.0011 -0.0971 -0.1660
19844W        W24244  19.770   4.289  10.271 -0.1014  0.0662 -0.1014
19845W        W24245   9.695   5.217  31.177  0.3059  0.0546 -0.2993
19846W        W24246   1.965   1.667  31.823  0.1194 -0.0068  0.0265
19847W        W24247  11.334   0.485  24.515  0.2175 -0.0457  0.1780
19848W        W24248  14.135   7.478  13.512 -0.0694 -0.1110  0.1223
19849W        W24249   9.862   5.734  28.995 -0.0172  0.0509  0.1304
19850W        W24250   0.583   5.471  19.256 -0.0080 -0.2936 -0.1831
19851W        W24251  10.475   6.486   6.623 -0.2923 -0.0239  0.1159
19852W        W24252  21.913   6.781  11.781 -0.0213 -0.1363  0.0283
19853W        W24253   6.590   1.952  19.456 -0.1082  0.0365  0.1183
19854W        W24254   7.828   3.791  22.042  0.1793  0.2119 -0.3110
19855W        W24255  16.589   0.679   9.906 -0.0606  0.0476  0.2222
19856W        W24256   7.266   0.394  19.686  0.0920  0.0761 -0.1796
19857W        W24257  19.580   6.588  27.952  0.2985 -0.0748  0.3769
19858W        W24258  12.765   2.235  26.933  0.1395 -0.0244 -0.1025
19859W        W24259  10.880   4.339  18.780  0.1354 -0.0519 -0.0926
19860W        W24260  11.788   4.362  27.519 -0.1468  0.3511 -0.2102
19861W        W24261  16.699   7.860  14.820 -0.0950  0.0102 -0.1157
19862W        W24262   1.487   5.190  18.963  0.0217  0.1543 -0.1409
19863W        W24263  23.576   0.301   6.900  0.0319 -0.1137  0.1153
19864W        W24264   7.482   3.063   8.205  0.1325 -0.1349 -0.3271
19865W        W24265   2.496   2.184  10.333  0.1425  0.0383  0.0129
19866W        W24266   2.327   0.429  19.183 -0.4823  0.0748 -0.1311
19867W        W24267   7.905   6.634  22.334  0.1273  0.0628 -0.3756
19868W        W24268  20.576   5.194   6.244 -0.0107 -0.1854 -0.0198
19869W        W24269  19.050   6.134  24.734 -0.1549 -0.1505  0.0907
19870W        W24270   3.625   5.800  19.527  0.0792 -0.2115  0.1311
19871W        W24271  17.875   4.514  27.370  0.0019  0.0025 -0.4176
19872W        W24272  18.771   0.925   1.003 -0.1245  0.0494 -0.0421
19873W        W24273  15.048   1.616  31.557 -0.3994  0.1584 -0.1113
19874W        W24274  16.657   2.638  23.819  0.1239  0.0787  0.4388
19875W        W24275  21.213   2.995   3.504 -0.2226  0.0158 -0.1313
19876W        W24276  19.692   3.425   0.005 -0.1637 -0.0472  0.0407
19877W        W24277  18.021   2.000  25.313  0.1777 -0.2195 -0.2741
19878W        W24278  13.532   0.840  10.671  0.0311  0.1627  0.1306
19879W        W24279  16.146   0.347  10.818  0.0305 -0.2171 -0.2720
19880W        W24280  18.595   1.233  23.755 -0.1952  0.1011 -0.2805
19881W        W24281  15.476   6.184  29.039 -0.0225 -0.1831 -0.3420
19882W        W24282  16.500   3.393   7.208 -0.0923  0.2516 -0.3334
19883W        W24283  24.706   1.714   8.551  0.5598 -0.0612 -0.2545
19884W        W24284  15.681   4.320  31.702  0.2286  0.0412  0.2354
19885W        W24285   7.916   5.334   7.389  0.0979 -0.2079  0.2220
19886W        W24286   4.167   3.436  30.046 -0.0461 -0.0361  0.2132
19887W        W24287   6.888   1.375  13.168  0.3247  0.0595  0.0912
19888W        W24288   2.178   7.041  23.873  0.1532  0.0433  0.1168
19889W        W24289   4.029   1.075  15.551 -0.2598  0.3100 -0.0656
19890W        W24290  23.060   0.361  11.292 -0.0158 -0.0547  0.0269
19891W        W24291   8.102   3.745  24.400  0.0299  0.0090 -0.0027
19892W        W24292  10.250   6.567   4.363 -0.1989 -0.2417  0.0138
19893W        W24293  13.626   3.976  27.273 -0.0714 -0.1435 -0.1785
19894W        W24294   5.304   7.047  32.283  0.0442  0.3996  0.3259
19895W        W24295   1.158   2.939   6.110 -0.3424 -0.3889 -0.0465
19896W        W24296   5.269   4.859  25.159 -0.0645 -0.0864 -0.0465
19897W        W24297   9.996   1.651  31.467 -0.0443  0.0086 -0.0947
19898W        W24298  24.952   0.471  29.922  0.0284 -0.1879  0.1657
19899W        W24299  20.298   4.545  17.256  0.0079  0.1232 -0.0477
19900W        W24300   6.534   2.930  18.950  0.3383  0.3362  0.2049
19901W        W24301   1.782   1.190  11.976  0.1613 -0.1875 -0.2175
19902W        W24302  22.845   6.986  27.688  0.0802 -0.1857  0.2478
19903W        W24303  20.621   0.042   1.795  0.0264  0.1448 -0.0783
19904W        W24304  16.071   1.208   7.407 -0.1865 -0.2585 -0.4510
19905W        W24305  24.296   5.872  30.245 -0.0313 -0.1220  0.0615
19906W        W24306   2.535   5.888  21.729 -0.4355  0.0468 -0.0223
19907W        W24307  22.274   5.252  29.985  0.4728  0.0576  0.1292
19908W        W24308  24.013   4.984  32.242  0.1032  0.1279  0.2296
19909W        W24309  20.447   1.848   5.936 -0.1788  0.0234 -0.0114
19910W        W24310  22.058   0.573   8.696  0.0275  0.0858 -0.1991
19911W        W24311   8.486   7.557   2.157  0.0054  0.2105  0.1354
19912W        W24312   2.958   5.492  22.063 -0.1901  0.1048 -0.0241
19913W        W24313  15.613   2.354   8.861 -0.0212 -0.0508 -0.2155
19914W        W24314  12.305   0.681  25.508  0.0277 -0.1425 -0.1721
19915W        W24315   2.445   4.010  23.061 -0.0968  0.0450 -0.1717
19916W        W24316  13.610   5.509   2.068 -0.1549  0.1975 -0.3108
19917W        W24317  23.386   0.351   0.942  0.4451 -0.0335  0.0393
19918W        W24318   1.631   1.425  22.193 -0.0224  0.3302 -0.1797
19919W        W24319   6.584   5.182  15.479 -0.1722 -0.1154 -0.1296
19920W        W24320  21.429   3.828   5.257  0.0834 -0.2948 -0.1690
19921W        W24321   8.976   2.512  22.821 -0.1128  0.2675 -0.0504
19922W        W24322  14.466   2.625  12.016 -0.0131  0.2705  0.1650
19923W        W24323   7.295   5.469  28.035 -0.1370 -0.1590  0.0467
19924W        W24324  11.969   3.802   8.634  0.3038 -0.1141  0.1999
19925W        W24325   4.564   0.373   5.239 -0.1859  0.1125 -0.1968
19926W        W24326  16.800   6.373   2.205  0.0653 -0.1582 -0.2118
19927W        W24327  21.589   6.639  30.629 -0.2169 -0.1117 -0.2634
19928W        W24328   3.748   5.271   6.296 -0.0312 -0.1071 -0.1062
19929W        W24329   1.011   6.787   6.266 -0.2637  0.2088 -0.0285
19930W        W24330  24.297   6.651  30.774 -0.3448 -0.1898  0.2472
19931W        W24331  23.828   4.394  30.193 -0.1233  0.0918 -0.0477
19932W        W24332   7.930   7.207   7.795 -0.1593 -0.1017 -0.2551
19933W        W24333   2.377   2.691  11.032 -0.1668 -0.1282  0.0555
19934W        W24334  22.952   4.260  25.839 -0.1723 -0.3133 -0.0616
19935W        W24335  23.351   7.080  23.394 -0.0814 -0.1723  0.0101
19936W        W24336  19.039   1.895  29.080  0.0110 -0.0432  0.1444
19937W        W24337   2.548   1.206  28.690 -0.0653  0.1444  0.2749
19938W        W24338  11.889   3.812  26.909 -0.2388 -0.1446  0.0421
19939W        W24339   8.324   3.294  27.693  0.0224  0.1015 -0.2168
19940W        W24340  14.828   6.281   0.510  0.0073 -0.0970  0.0115
19941W        W24341   1.244   7.440  29.056 -0.1723  0.3387 -0.2309
19942W        W24342   7.110   3.888   5.742 -0.0777  0.2544  0.1875
19943W        W24343  11.048   5.790  11.315 -0.1770  0.1010  0.3815
19944W        W24344  24.144   5.775  31.310  0.0097 -0.1209 -0.0526
19945W        W24345   7.201   2.218  13.697  0.0603  0.1105 -0.2708
19946W        W24346   4.479   2.075  32.117  0.1475  0.1677 -0.1664
19947W        W24347  18.041   6.357  18.603 -0.0460  0.0834 -0.2175
19948W        W24348   0.625   1.626   7.031 -0.2564  0.3240  0.1171
19949W        W24349   4.519   6.388  26.944 -0.2248 -0.1119  0.0158
19950W        W24350  21.490   3.812  26.890 -0.0943 -0.0550 -0.0448
19951W        W24351  20.529   3.693   4.301 -0.2900 -0.1011  0.2584
19952W        W24352  10.031   7.081  19.483  0.1238 -0.0466  0.0109
19953W        W24353  17.968   5.835   2.770  0.4751  0.3182  0.2159
19954W        W24354  23.225   3.611   0.854  0.0130 -0.0590  0.3104
19955W        W24355  10.153   5.699  10.534  0.0001 -0.1628  0.3059
19956W        W24356  10.286   7.621  18.932 -0.0099  0.2074  0.0050
19957W        W24357  16.340   3.964  12.395  0.3433 -0.2072 -0.2610
19958W        W24358   3.249   0.619   1.223 -0.1374  0.0038  0.1479
19959W        W24359  24.435   3.855  31.934 -0.0714  0.0330  0.1217
19960W        W24360  10.908   4.821   2.636 -0.0598  0.2388 -0.0529
19961W        W24361   4.168   6.936   3.349 -0.1490 -0.0212 -0.1936
19962W        W24362  20.446   6.556  23.993 -0.3671  0.1588 -0.0253
19963W        W24363  13.499   7.346  26.229  0.1368  0.2433  0.0097
19964W        W24364   6.901   1.806  28.388 -0.1226  0.0045  0.1904
19965W        W24365  16.004   1.581   3.840 -0.3165  0.0014 -0.2716
19966W        W24366  18.737   1.666   9.784  0.1539 -0.1428 -0.1024
19967W        W24367  14.468   7.221   6.123  0.0406  0.1070  0.4590
19968W        W24368  14.545   6.526   1.989  0.3403 -0.1700 -0.3513
19969W        W24369  10.902   6.124  17.317 -0.1214  0.0681  0.1329
19970W        W24370   8.270   7.680   8.516  0.0792 -0.0273 -0.0672
19971W        W24371   4.756   7.216  23.426  0.2150 -0.1265  0.1422
19972W        W24372  24.759   7.852   1.134 -0.1636 -0.2233  0.1294
19973W        W24373  17.933   2.726  22.057 -0.0880  0.1512  0.1116
19974W        W24374   6.658   2.829   3.252  0.0235  0.2681 -0.3314
19975W        W24375   7.980   0.235   0.594  0.0783  0.0498 -0.1749
19976W        W24376  19.083   2.312  30.537 -0.3752  0.1422 -0.0370
19977W        W24377  16.299   5.291  32.390  0.1271  0.1267  0.1233
19978W        W24378   2.903   7.100   1.372  0.1883 -0.1802 -0.1726
19979W        W24379  19.557   7.400   6.543  0.1221 -0.3635  0.4334
19980W        W24380  21.182   3.457  29.914  0.2415  0.0303 -0.1133
19981W        W24381  17.177   7.263  16.972 -0.0178 -0.1047 -0.0250
19982W        W24382  21.218   5.870  13.641 -0.4355 -0.3562  0.0141
19983W        W24383   6.801   6.450  31.178  0.0304  0.0906  0.0797
19984W        W24384  10.083   5.274  24.752  0.2159 -0.0938  0.2453
19985W        W24385  15.089   5.828   5.750  0.0152 -0.1709 -0.1461
19986W        W24386   8.973   7.094  20.845 -0.0938  0.4009  0.1030
19987W        W24387   0.325   3.008   0.439 -0.0321 -0.0620  0.1014
19988W        W24388  20.094   4.274  23.427  0.3307 -0.0078  0.1516
19989W        W24389   5.076   6.802  20.761 -0.1532  0.0960  0.1426
19990W        W24390   2.731   7.789  26.698  0.0902  0.4171 -0.1199
19991W        W24391  13.594   3.019  24.665 -0.0586  0.1862 -0.0670
19992W        W24392  10.472   5.720  31.425 -0.0097 -0.0254 -0.1556
19993W        W24393   9.065   5.002  21.611  0.1565 -0.3644  0.0140
19994W        W24394   4.661   4.821  30.229 -0.0158  0.2432  0.1328
19995W        W24395  12.645   0.343   7.809 -0.0613 -0.0324  0.0343
19996W        W24396   5.358   2.124  27.959 -0.1074  0.0605 -0.0714
19997W        W24397   8.352   7.276  17.639  0.0074  0.0076  0.3647
19998W        W24398  23.375   1.358  21.456 -0.1239  0.0788  0.1136
19999W        W24399   4.033   5.037   5.970 -0.1365 -0.1774 -0.0993
20000W        W24400   8.425   1.995  25.412 -0.0372 -0.5288 -0.1754
20001W        W24401   7.366   4.180   3.971  0.0853  0.1017 -0.0846
20002W        W24402   1.509   1.600   9.677  0.1201 -0.0027  0.2142
20003W        W24403  16.043   3.305   8.454 -0.1455 -0.0422 -0.0982
20004W        W24404  15.000   4.849   9.824  0.1125 -0.1972 -0.1160
20005W        W24405  20.515   0.441  26.824 -0.2631  0.2110 -0.1781
20006W        W24406  18.554   4.548  14.670  0.1409  0.0948  0.0723
20007W        W24407  12.083   5.263   7.718 -0.0564  0.2835  0.0769
20008W        W24408  11.807   7.673   9.037  0.1064 -0.3406 -0.0139
20009W        W24409  20.948   7.124  10.724  0.1101  0.3045 -0.0470
20010W        W24410   8.345   1.616  27.513 -0.0151 -0.2095 -0.0579
20011W        W24411   8.648   6.354  29.154 -0.0067  0.0171  0.1251
20012W        W24412  11.552   3.452  27.074 -0.1653 -0.2163 -0.4089
20013W        W24413  15.907   1.666   7.350 -0.2298 -0.0677  0.0496
20014W        W24414  20.690   5.617   9.635 -0.1742  0.1193 -0.3817
20015W        W24415  24.352   5.285   7.971  0.0223 -0.1893  0.0186
20016W        W24416   4.384   6.732  18.657 -0.2218  0.1024  0.1482
20017W        W24417  10.553   7.572   8.432  0.1999 -0.0826 -0.2486
20018W        W24418   0.790   6.241   3.870 -0.3332  0.0819  0.0658
20019W        W24419  21.429   5.331   8.200 -0.2539  0.0090 -0.0697
20020W        W24420   3.527   6.488   2.748  0.0533  0.0226  0.1179
20021W        W24421   3.126   0.729  30.736 -0.3654  0.1828  0.0858
20022W        W24422   4.551   2.252  15.470  0.1847  0.0623 -0.0272
20023W        W24423  24.893   4.972   3.341 -0.1035  0.2875 -0.0494
20024W        W24424   5.520   1.525   3.227 -0.0650  0.0621 -0.1463
20025W        W24425   2.325   5.747  20.362  0.2082  0.0077 -0.0993
20026W        W24426   9.449   2.080  19.442  0.0167  0.0043 -0.2915
20027W        W24427  22.352   7.573  11.217  0.1369  0.0167 -0.2192
20028W        W24428   0.336   1.916  28.654 -0.1024  0.1146  0.4088
20029W        W24429  17.534   7.719  10.507  0.0274  0.1714  0.1343
20030W        W24430   8.419   3.119   2.884 -0.3867 -0.2959 -0.1812
20031W        W24431  11.246   3.138  22.146  0.0551  0.0670  0.1457
20032W        W24432  18.697   1.762  10.315 -0.1866 -0.2400 -0.0832
20033W        W24433   6.837   2.616   0.387  0.1194 -0.2217 -0.3921
20034W        W24434  20.886   3.752  10.815  0.1376  0.1222  0.3990
20035W        W24435   8.186   4.528  22.987  0.0160  0.1916  0.0913
20036W        W24436  17.073   6.763   4.909  0.0866 -0.0729  0.1278
20037W        W24437  13.057   6.512   5.321  0.0733 -0.2586  0.0165
20038W        W24438   0.894   2.961  19.538 -0.1113  0.2169 -0.0731
20039W        W24439  21.205   3.225  13.846  0.1615 -0.0033 -0.0409
20040W        W24440   3.205   3.259   7.895  0.0044  0.4721 -0.1816
20041W        W24441   3.233   5.538  18.253 -0.1508  0.2896  0.1141
20042W        W24442  24.271   1.503  30.265 -0.0816  0.2144  0.0051
20043W        W24443  21.002   6.412  15.662 -0.1728  0.0517 -0.0212
20044W        W24444   5.854   5.383   4.486  0.0182 -0.0091 -0.0273
20045W        W24445   4.963   5.997  21.807 -0.0555 -0.1034  0.0347
20046W        W24446  16.504   5.986   1.935 -0.0378 -0.0558  0.0364
20047W        W24447  15.047   3.174  31.133 -0.0815 -0.3182  0.0963
20048W        W24448   2.185   2.546  25.121 -0.0938  0.0752  0.0501
20049W        W24449  11.180   0.177  22.115  0.1596 -0.2248  0.0549
20050W        W24450   8.230   7.350   4.064  0.2289 -0.2467 -0.0756
20051W        W24451  20.306   6.061   7.580 -0.1682  0.0803  0.0596
20052W        W24452  23.220   3.114  29.758 -0.4345 -0.0651 -0.2527
20053W        W24453  16.164   5.665   6.232  0.0762  0.2164 -0.2373
20054W        W24454   4.281   1.398  21.164 -0.3479  0.0659 -0.3180
20055W        W24455   3.860   0.109  23.635  0.2044 -0.0954 -0.1665
20056W        W24456  23.199   1.453   2.641  0.3045 -0.1704 -0.0489
20057W        W24457   2.842   5.042   5.973  0.0285 -0.0829  0.1325
20058W        W24458   6.031   1.560   0.587  0.0757  0.2458 -0.1760
20059W        W24459  23.575   0.399   0.248 -0.0873 -0.0724  0.0370
20060W        W24460   3.095   3.077   5.996  0.2666 -0.1533 -0.2639
20061W        W24461  14.642   5.050  22.848 -0.0610  0.2213 -0.0605
20062W        W24462   4.136   3.320  28.311  0.1359  0.0007 -0.0184
20063W        W24463   0.590   6.738   3.779  0.0381 -0.0016  0.2681
20064W        W24464   2.289   5.603  10.027 -0.1861  0.1130  0.1900
20065W        W24465  18.515   0.216  17.189  0.1911  0.0060  0.3056
20066W        W24466   0.496   4.365  26.475 -0.0525  0.3228 -0.1072
20067W        W24467   7.683   0.963   6.397 -0.0908 -0.0196 -0.1861
20068W        W24468  20.831   7.712   1.375 -0.2596 -0.2448  0.0947
20069W        W24469  12.404   5.209   6.322 -0.0480  0.2034 -0.1545
20070W        W24470   8.515   4.298  17.716  0.2100  0.1918 -0.0310
20071W        W24471  22.056   1.900  31.660 -0.1147  0.1252 -0.0974
20072W        W24472   1.045   1.201  27.515  0.0205  0.1276 -0.0872
20073W        W24473   4.543   1.958  22.109  0.1915  0.1720 -0.0268
20074W        W24474  20.511   1.616  12.796  0.2534 -0.1757 -0.1316
20075W        W24475  14.614   6.661   9.712  0.1443  0.2342  0.0691
20076W        W24476  14.564   7.253  13.683 -0.0809 -0.1107 -0.0125
20077W        W24477   4.723   4.706  27.538  0.3210  0.0306  0.0797
20078W        W24478  23.879   3.637  30.019 -0.2361  0.0075 -0.2234
20079W        W24479  15.179   5.428   3.676 -0.4494 -0.1306  0.1636
20080W        W24480   8.623   2.023  14.973 -0.2172  0.3316 -0.1946
20081W        W24481  10.252   6.632  32.268  0.0463  0.0017  0.0376
20082W        W24482   8.535   6.732  18.967 -0.0814  0.0257 -0.2351
20083W        W24483  12.157   1.121   1.467  0.1337  0.1256 -0.0851
20084W        W24484  18.460   2.762   0.653  0.0307  0.1134 -0.1991
20085W        W24485  23.582   1.677   7.266  0.1091  0.3077  0.0531
20086W        W24486  20.592   0.277  12.417 -0.1463 -0.1527  0.0956
20087W        W24487   0.012   7.555  12.021  0.3145 -0.0129  0.1853
20088W        W24488   5.193   4.918  26.147  0.0286  0.1015 -0.2759
20089W        W24489   5.191   2.385  17.949 -0.1081  0.0403 -0.1366
20090W        W24490  12.513   2.660  12.049 -0.4317 -0.1185  0.0175
20091W        W24491  22.095   5.880   8.193  0.1608 -0.1172  0.1956
20092W        W24492  22.481   3.064   4.018 -0.4578 -0.1934 -0.1142
20093W        W24493   3.290   0.508  10.740  0.3055 -0.0544 -0.0399
20094W        W24494   1.721   0.683  26.401 -0.1554 -0.1513 -0.2192
20095W        W24495  15.817   1.018  16.222  0.0288  0.0827  0.1360
20096W        W24496  16.308   4.633  26.391  0.2150  0.0015 -0.0975
20097W        W24497  15.366   2.553   2.271  0.3818  0.1825 -0.1036
20098W        W24498   9.209   3.697   1.090 -0.0939 -0.1529  0.3311
20099W        W24499  18.405   5.718  30.683 -0.1082  0.2129 -0.0420
20100W        W24500  12.599   5.373  26.442  0.1975 -0.1211 -0.0277
20101W        W24501   2.007   2.583  21.824  0.0445 -0.0110  0.2625
20102W        W24502  17.899   6.084   7.444 -0.2584  0.0147 -0.1821
20103W        W24503  21.729   2.976  29.091 -0.5025  0.2509  0.2437
20104W        W24504  16.785   4.863  17.829 -0.1331  0.1592  0.0435
20105W        W24505   4.196   0.680  16.564  0.0937  0.2008 -0.0028
20106W        W24506   6.549   2.741   7.837 -0.0780 -0.0869  0.0290
20107W        W24507   9.256   7.231  27.079 -0.2533 -0.2534 -0.0394
20108W        W24508  19.475   0.576  27.047  0.0847 -0.0932  0.1144
20109W        W24509   1.548   1.154  21.736  0.0730 -0.4016 -0.0915
20110W        W24510  24.380   2.426  23.243 -0.2592 -0.2242 -0.1494
20111W        W24511   2.383   0.717  29.045 -0.0935  0.2445  0.5932
20112W        W24512   8.994   6.152  18.444  0.0603  0.1392  0.0315
20113W        W24513   4.810   7.258   5.853  0.4340  0.1453  0.1434
20114W        W24514  15.667   7.001   0.073  0.1610 -0.5494  0.0047
20115W        W24515   1.716   5.204  17.963 -0.2940 -0.0749  0.2414
20116W        W24516  24.499   1.631  31.263  0.0000 -0.0324 -0.0349
20117W        W24517  21.957   2.881   6.023 -0.2546  0.2285 -0.0620
20118W        W24518  11.753   2.568  11.006  0.1968 -0.0789  0.0450
20119W        W24519  17.161   1.302   3.036  0.3476  0.1278  0.1482
20120W        W24520   3.471   6.008  30.477  0.0467 -0.0324  0.3392
20121W        W24521  13.831   3.993  11.422  0.0774 -0.2924  0.0363
20122W        W24522  16.856   5.691  12.694  0.2528  0.0110 -0.1255
20123W        W24523   7.654   0.200  15.006  0.0712 -0.2105 -0.2025
20124W        W24524   1.499   2.302  30.346  0.0611 -0.0360  0.0617
20125W        W24525   5.450   5.519  26.216  0.2118  0.2558  0.4403
20126W        W24526  21.219   3.069  29.092 -0.0487  0.0001  0.1693
20127W        W24527   2.633   7.536  27.891 -0.3456  0.0933 -0.0475
20128W        W24528   2.827   0.250   8.522  0.0382 -0.1003  0.2803
20129W        W24529  15.316   2.519   3.088  0.1327 -0.2482 -0.0378
20130W        W24530  22.595   1.479  14.209  0.2343 -0.0435 -0.2466
20131W        W24531  21.514   1.459  25.079 -0.0348  0.1849 -0.0020
20132W        W24532  12.667   2.157   6.510  0.0615  0.1554  0.0115
20133W        W24533  21.288   7.243   3.508 -0.0262  0.1813 -0.3408
20134W        W24534  17.083   5.105  30.850 -0.1143 -0.0181  0.3152
20135W        W24535  13.709   2.009  11.736 -0.1182 -0.1732 -0.0745
20136W        W24536   5.976   6.367   4.681  0.0351  0.1262 -0.1188
20137W        W24537   1.974   3.084   8.405 -0.1237 -0.3756  0.0278
20138W        W24538   6.030   4.638  22.196 -0.0461 -0.2082  0.1214
20139W        W24539  22.848   3.986   0.910 -0.0422  0.3057 -0.5387
20140W        W24540  13.540   5.803  23.325  0.1361 -0.0921 -0.2018
20141W        W24541   9.274   7.516   5.881  0.2947  0.0730 -0.1689
20142W        W24542   4.614   5.729  18.519  0.2314 -0.1333  0.0002
20143W        W24543  20.985   5.521   8.067 -0.0192 -0.3554 -0.1317
20144W        W24544   5.191   5.080  23.163 -0.0142  0.0687 -0.0504
20145W        W24545   7.914   6.865  24.849 -0.0786 -0.1445  0.0066
20146W        W24546   6.516   3.365   7.219  0.0580 -0.1131  0.1171
20147W        W24547   3.185   0.854  32.096  0.0338 -0.0571  0.2229
20148W        W24548  11.227   3.997  25.670  0.0250 -0.3894 -0.0509
20149W        W24549  17.377   0.890   2.208 -0.3421  0.1277  0.1417
20150W        W24550   4.909   2.493  22.977  0.0749  0.0651  0.0678
20151W        W24551  14.809   1.614   1.508  0.3784  0.0605  0.0685
20152W        W24552  20.927   0.476  12.068 -0.1864 -0.1474 -0.0210
20153W        W24553  16.652   6.538  26.518  0.0605  0.3835  0.1199
20154W        W24554  16.083   2.986  12.104  0.0131  0.1201 -0.0695
20155W        W24555  19.756   6.910  16.239 -0.1182 -0.0157  0.2031
20156W        W24556  22.874   3.750  27.231  0.1742  0.0762 -0.0475
20157W        W24557  24.327   2.643  29.889  0.0991 -0.0570  0.3038
20158W        W24558  21.719   3.759   2.920 -0.1728 -0.2744  0.1646
20159W        W24559  10.854   1.243   4.729  0.2877 -0.0359  0.1206
20160W        W24560  20.342   3.197   6.919 -0.0632  0.2426  0.0953
20161W        W24561   2.374   2.018  26.191  0.0078 -0.1523 -0.0608
20162W        W24562   9.070   2.361  29.875 -0.1002 -0.3462  0.0668
20163W        W24563  12.929   1.196  18.714 -0.0264 -0.1006 -0.0122
20164W        W24564   9.119   4.883  20.709  0.1824  0.0169  0.2738
20165W        W24565   3.237   7.196  29.975 -0.0158 -0.2151 -0.0098
20166W        W24566   5.254   2.530  17.070 -0.0979 -0.0364  0.0846
20167W        W24567   8.923   7.761   2.358 -0.1698 -0.0516 -0.1182
20168W        W24568   3.928   7.465  25.496 -0.1488 -0.2515  0.0391
20169W        W24569   3.136   0.694  29.684  0.2620  0.4833 -0.2599
20170W        W24570  21.618   3.358  27.080 -0.2441 -0.0661 -0.0532
20171W        W24571  23.432   3.749  21.467  0.0735 -0.0246  0.4491
20172W        W24572   6.424   3.419  31.236 -0.0371 -0.0899 -0.2159
20173W        W24573   3.159   2.338  25.224  0.1451  0.2395 -0.0167
20174W        W24574   4.186   3.575  21.478 -0.1783 -0.3046  0.1499
20175W        W24575   1.978   5.929   5.434  0.0420  0.0396 -0.1738
20176W        W24576  24.703   1.942  22.742  0.0255  0.0327  0.2784
20177W        W24577   2.916   2.519  20.448  0.0536 -0.2661  0.1258
20178W        W24578  14.503   2.712   1.358 -0.2124 -0.0021  0.1211
20179W        W24579  11.245   1.308  19.441  0.1112 -0.0090  0.0184
20180W        W24580  23.835   0.336   1.154  0.0277  0.2888  0.1871
20181W        W24581  23.635   0.705  26.657  0.3731 -0.1985  0.3556
20182W        W24582  24.952   2.778   0.151  0.1128  0.1211 -0.0244
20183W        W24583  11.973   7.332  25.654  0.1700 -0.0551 -0.0471
20184W        W24584   8.135   0.086   4.744 -0.0577 -0.1460 -0.0527
20185W        W24585  11.275   7.348  30.469 -0.0307  0.3087 -0.2972
20186W        W24586   9.164   7.444  23.284 -0.0232  0.1106  0.3171
20187W        W24587   9.046   5.811  28.083 -0.0756  0.1996  0.0225
20188W        W24588  24.746   5.893  12.493  0.0104  0.1314 -0.1162
20189W        W24589  18.843   2.134  13.289 -0.0164 -0.0896 -0.0108
20190W        W24590  15.181   7.441  10.820 -0.0227  0.1467 -0.3498
20191W        W24591  24.216   2.204  32.389  0.1551 -0.1215 -0.0836
20192W        W24592   5.628   2.747  15.433 -0.3953  0.0197  0.2176
20193W        W24593  18.914   4.474  30.118 -0.2680  0.1670  0.0299
20194W        W24594   4.889   4.601   3.229  0.0353 -0.1113  0.0323
20195W        W24595   5.115   1.071   5.996  0.0638 -0.1706 -0.0077
20196W        W24596   0.065   0.424   9.078  0.0369 -0.2685 -0.1189
20197W        W24597  21.739   2.349  15.742 -0.0048 -0.0291  0.1682
20198W        W24598  17.608   7.526  22.832 -0.0716  0.1168 -0.1930
20199W        W24599  24.569   4.073   7.196  0.0300 -0.1594  0.1471
20200W        W24600  23.632   4.196  13.930  0.1027 -0.0445  0.5426
20201W        W24601  13.173   1.601  25.213 -0.1916 -0.1059 -0.2064
20202W        W24602  19.254   4.309   1.563 -0.1472 -0.1303 -0.1372
20203W        W24603  12.386   1.636  24.694 -0.5457  0.2115  0.0318
20204W        W24604   8.636   6.966  22.978 -0.4487 -0.1213  0.1725
20205W        W24605   3.467   6.414  32.066  0.1652  0.2814  0.1276
20206W        W24606  18.468   2.301  25.427  0.1357  0.1482 -0.0537
20207W        W24607  20.584   2.694  26.982  0.0424 -0.5205 -0.1064
20208W        W24608   5.039   7.784  28.158 -0.0811 -0.2627 -0.0463
20209W        W24609  16.135   6.894   1.930  0.2001  0.1339  0.2048
20210W        W24610   1.558   5.843   6.922  0.0453  0.0498  0.0156
20211W        W24611   3.054   7.819  19.591 -0.1260 -0.2475  0.0169
20212W        W24612   4.682   6.244  20.397  0.0653 -0.0019  0.1657
20213W        W24613   2.225   0.204  29.392 -0.1294  0.0567 -0.3469
20214W        W24614  22.635   3.773   0.535  0.0781 -0.3218  0.0833
20215W        W24615   4.778   4.247  16.735  0.0237 -0.0476 -0.1704
20216W        W24616  15.374   1.455  30.020  0.0845 -0.3739  0.1025
20217W        W24617  24.520   0.324   0.023  0.0126 -0.0970 -0.0068
20218W        W24618  15.879   1.575  13.122  0.2309  0.0945 -0.0544
20219W        W24619  19.566   6.168   4.280  0.0390  0.0685 -0.0275
20220W        W24620  12.594   2.732  10.388 -0.1958 -0.0072 -0.3588
20221W        W24621  22.211   2.993   0.621 -0.0429  0.0656 -0.0973
20222W        W24622  25.044   0.673  28.137  0.0727 -0.2441  0.0474
20223W        W24623   5.752   0.965   5.313 -0.3814 -0.1377 -0.1804
20224W        W24624  21.838   2.565  15.222 -0.0853  0.0183 -0.0361
20225W        W24625  20.034   5.609  12.114 -0.1232 -0.1894  0.1078
20226W        W24626  19.940   0.951  12.835  0.0468  0.0439 -0.2535
20227W        W24627  14.478   5.452  27.766 -0.0109 -0.1927 -0.0461
20228W        W24628  20.283   2.126  17.629  0.2130 -0.1000  0.1208
20229W        W24629  17.107   4.970  28.082 -0.0855  0.0386 -0.0202
20230W        W24630   0.815   3.955  26.485 -0.0423 -0.3220  0.0326
20231W        W24631  13.273   6.344  31.449 -0.0513  0.1125 -0.1840
20232W        W24632  10.985   2.655  20.533  0.0605 -0.0362 -0.0279
20233W        W24633  24.731   6.839   0.112 -0.1139  0.0195 -0.0074
20234W        W24634  19.439   0.233   2.911 -0.0711 -0.3835 -0.0140
20235W        W24635  20.852   7.160   6.643 -0.1495 -0.1182 -0.2581
20236W        W24636  23.082   7.782  28.147  0.1802 -0.3421 -0.1779
20237W        W24637   1.610   5.579  31.096  0.0463  0.2351  0.1404
20238W        W24638   6.909   1.395  26.038 -0.0588 -0.1888  0.1321
20239W        W24639   2.681   5.490  10.741 -0.1031  0.0656  0.0441
20240W        W24640   4.631   7.142   5.233 -0.1677  0.0044 -0.2930
20241W        W24641  21.382   7.482  17.105  0.1888  0.1101 -0.0721
20242W        W24642  16.728   3.529  23.340  0.0383 -0.1105 -0.3312
20243W        W24643   8.602   3.418  31.941  0.0069 -0.0592  0.1688
20244W        W24644  23.241   1.534  24.036 -0.3246 -0.2655 -0.2127
20245W        W24645  24.238   0.107   6.772 -0.1406  0.2913  0.1293
20246W        W24646  23.776   1.219   6.862  0.0972  0.1741  0.1806
20247W        W24647   9.813   3.616  31.709  0.1336 -0.2343  0.1080
20248W        W24648  10.362   1.377  32.431 -0.0079  0.2602 -0.1322
20249W        W24649   8.661   5.942  26.320 -0.0271 -0.1600  0.1523
20250W        W24650   1.234   5.759  21.342  0.2526 -0.1648 -0.1443
20251W        W24651   8.407   4.200  18.447 -0.0447  0.0592 -0.2674
20252W        W24652   4.830   3.146  25.479  0.1553 -0.1001  0.0176
20253W        W24653   4.942   2.277  15.876  0.0445 -0.2088 -0.1484
20254W        W24654   7.005   1.644   3.062  0.1688 -0.1758  0.0543
20255W        W24655  13.651   4.620  24.883 -0.2282 -0.0809  0.1744
20256W        W24656  12.552   0.894  27.640 -0.0964 -0.0973  0.1162
20257W        W24657  19.124   1.239  25.843  0.0032  0.0247  0.0798
20258W        W24658  24.390   2.183   3.918  0.0606 -0.0380  0.0790
20259W        W24659  13.389   1.537  12.624 -0.0792 -0.2608  0.1377
20260W        W24660  19.403   1.221  26.985 -0.0413 -0.2495 -0.3244
20261W        W24661  17.320   5.416  16.295 -0.2219  0.0661 -0.1123
20262W        W24662   6.008   3.385  23.238 -0.0306  0.2244 -0.1036
20263W        W24663  13.100   0.874   5.812  0.0453 -0.0676  0.4000
20264W        W24664   6.173   6.952  27.768  0.3847 -0.0751 -0.1122
20265W        W24665   8.022   6.388   3.883 -0.3561 -0.0920 -0.2956
20266W        W24666  23.728   4.672  10.570  0.2697 -0.0943 -0.0351
20267W        W24667  22.035   2.847  27.142  0.2009 -0.2421 -0.0303
20268W        W24668  14.067   6.613  22.037  0.0982 -0.0979  0.0951
20269W        W24669   2.875   7.620   1.593 -0.2753  0.0111 -0.0397
20270W        W24670  23.436   6.748   5.488 -0.0659 -0.1617 -0.0676
20271W        W24671   0.462   6.232  11.881 -0.1370  0.0099 -0.0248
20272W        W24672   0.931   4.358   9.056  0.4125 -0.0347  0.2003
20273W        W24673   5.637   2.966  29.503 -0.2277  0.2405 -0.0909
20274W        W24674  18.246   2.518   7.523 -0.2164  0.1716 -0.0319
20275W        W24675  21.169   2.363   5.596  0.0273 -0.1963 -0.0040
20276W        W24676  21.157   1.270  24.711 -0.0535 -0.0825 -0.0132
20277W        W24677  11.218   5.874   2.399  0.1362  0.2187 -0.1223
20278W        W24678   0.660   3.335  22.905  0.2930  0.0438  0.0236
20279W        W24679  14.409   4.945  11.571  0.2076 -0.1084 -0.1556
20280W        W24680  11.795   7.402   5.214 -0.0390 -0.1524  0.2849
20281W        W24681   2.046   5.271  22.134 -0.0665 -0.2759 -0.0484
20282W        W24682  22.127   0.648  27.340 -0.1841  0.1771  0.2729
20283W        W24683  12.800   0.218   8.703  0.0002  0.0185 -0.0053
20284W        W24684   9.813   4.286  16.660  0.0258 -0.1682  0.0254
20285W        W24685  22.395   5.473   3.660 -0.2128  0.0390  0.2526
20286W        W24686  16.881   2.668  27.440 -0.0963 -0.1204  0.2054
20287W        W24687  22.565   6.943   3.441  0.1021 -0.0467  0.2771
20288W        W24688  23.569   1.817   3.559  0.1584 -0.3116 -0.1294
20289W        W24689   6.290   2.297  30.836  0.2088 -0.3054 -0.0232
20290W        W24690   5.113   3.553  15.546 -0.2645  0.2842 -0.0052
20291W        W24691  10.718   2.320  22.304  0.0039 -0.0276 -0.3194
20292W        W24692  20.933   7.061  30.320  0.0640 -0.1471  0.1707
20293W        W24693   4.164   6.024  20.397  0.2485  0.0719  0.2327
20294W        W24694   0.459   2.003   0.655  0.0268 -0.3073  0.1005
20295W        W24695   3.756   3.716   7.944 -0.1081 -0.1668  0.1818
20296W        W24696   4.156   0.237  20.523  0.4142  0.0658 -0.2224
20297W        W24697  15.037   2.384  23.107  0.0687 -0.0411 -0.3997
20298W        W24698  24.222   7.316  22.359 -0.2507  0.0698  0.0880
20299W        W24699   1.552   1.060   1.007 -0.2477  0.0731  0.1781
20300W        W24700  19.745   0.701  23.206 -0.0535 -0.0974  0.0431
20301W        W24701  20.062   3.278   7.824 -0.0381  0.1204 -0.0558
20302W        W24702   2.670   4.970   3.724  0.1121 -0.2141 -0.2920
20303W        W24703   7.680   1.652   7.661 -0.3035  0.2281 -0.1917
20304W        W24704  17.930   5.233   9.808  0.1690 -0.1066  0.3517
20305W        W24705  13.304   0.887   6.642  0.1027  0.1696  0.1632
20306W        W24706  21.269   1.429   0.884 -0.1882 -0.0799 -0.4841
20307W        W24707   7.099   1.411  15.476 -0.1322 -0.2103  0.0105
20308W        W24708  11.288   5.204  21.132 -0.1634 -0.0886 -0.0202
20309W        W24709  20.682   4.539   2.280  0.0423 -0.0335 -0.2920
20310W        W24710   6.266   7.697  20.439  0.0877  0.1743  0.1918
20311W        W24711  23.237   3.800   6.962  0.0975  0.1132  0.1283
20312W        W24712  12.199   3.554  28.821 -0.0602  0.2794  0.0747
20313W        W24713   2.700   6.070   0.443  0.1347 -0.0242 -0.0888
20314W        W24714   3.972   6.441  25.846 -0.0537  0.0544  0.0946
20315W        W24715   1.316   3.583   4.885  0.2000 -0.0588 -0.5438
20316W        W24716   7.261   2.401   0.108 -0.1555 -0.1220  0.1038
20317W        W24717  15.684   5.808  26.035  0.3663 -0.1779 -0.0875
20318W        W24718  14.283   4.028   5.677 -0.0094 -0.1791 -0.1621
20319W        W24719  16.989   0.440  29.793  0.0437  0.0243  0.0442
20320W        W24720   4.279   6.304  28.743  0.0701 -0.1413  0.1019
20321W        W24721   5.510   2.041   9.092 -0.1398 -0.1179  0.0463
20322W        W24722  10.423   6.804  19.218  0.2313 -0.0353  0.0743
20323W        W24723   2.542   7.860   5.346 -0.0465 -0.1318  0.0814
20324W        W24724   3.979   4.312  22.271 -0.1888  0.0884 -0.1649
20325W        W24725  24.559   4.661   7.006  0.1641 -0.0856  0.2360
20326W        W24726  11.799   2.184  32.196 -0.0117  0.2172 -0.0090
20327W        W24727   8.058   2.011   0.718 -0.1581 -0.1247 -0.1076
20328W        W24728   9.578   0.198   8.228  0.0277 -0.2539  0.3061
20329W        W24729   6.965   4.595   6.790 -0.1616  0.0720 -0.0359
20330W        W24730  15.085   2.537  31.853  0.3290  0.1268  0.0357
20331W        W24731  10.083   1.963  24.302 -0.1859  0.0618  0.0272
20332W        W24732  23.358   6.290  12.367 -0.0510  0.2433 -0.0874
20333W        W24733  13.880   3.946  29.136 -0.0508 -0.2152  0.2203
20334W        W24734   4.018   4.471  21.589 -0.1945  0.2464 -0.0898
20335W        W24735   4.684   2.968   2.490 -0.2081  0.0983 -0.0247
20336W        W24736  15.337   5.336  21.439 -0.0771 -0.0901  0.1561
20337W        W24737  13.673   1.886  32.285  0.1396  0.2708 -0.2185
20338W        W24738  21.894   5.778   2.960  0.2404  0.0887  0.0602
20339W        W24739   0.962   2.689   0.813 -0.1359 -0.2531  0.0007
20340W        W24740  17.181   4.984  14.078 -0.0641  0.0705  0.2101
20341W        W24741  21.147   4.904   8.612  0.1435  0.1357 -0.4597
20342W        W24742  11.609   0.377   5.487 -0.1015 -0.0201 -0.3188
20343W        W24743   3.941   6.554   3.597  0.0598  0.2361 -0.1026
20344W        W24744   8.200   5.102  26.479 -0.0896  0.1010 -0.0650
20345W        W24745  21.316   0.040  32.458 -0.1031 -0.1576  0.1327
20346W        W24746  24.499   0.182   4.850  0.1000  0.0576 -0.0347
20347W        W24747  15.510   6.221   1.685  0.1256 -0.0316 -0.1471
20348W        W24748  12.481   1.617  26.369  0.1616 -0.1833 -0.0112
20349W        W24749   5.518   4.017  22.106  0.1285 -0.0655  0.0255
20350W        W24750  15.256   3.274   1.404  0.0323 -0.1438 -0.0216
20351W        W24751   7.368   3.586   6.947 -0.1910  0.0442  0.0828
20352W        W24752  19.552   0.835   7.121 -0.0952 -0.2747  0.2894
20353W        W24753  16.174   1.244  21.545 -0.0353 -0.3285  0.0026
20354W        W24754  23.059   6.700  24.747 -0.0185 -0.0108  0.1412
20355W        W24755  11.356   3.609  19.510  0.0724 -0.3460 -0.1435
20356W        W24756  14.709   7.756  23.914 -0.1471 -0.3184 -0.2604
20357W        W24757  20.326   5.377  13.655 -0.3714  0.0482 -0.2045
20358W        W24758  17.392   7.750  31.009  0.0241 -0.0613 -0.0645
20359W        W24759   9.382   1.437  23.549  0.0162 -0.0103 -0.0358
20360W        W24760  10.822   0.752  21.678 -0.0757  0.2142 -0.3714
20361W        W24761   1.612   1.870  30.021 -0.2230 -0.0805 -0.0775
20362W        W24762  24.015   6.141  13.065 -0.3189 -0.2013 -0.1167
20363W        W24763  10.339   1.030  31.386 -0.0546 -0.0679 -0.0202
20364W        W24764   0.813   2.719  20.137 -0.0991  0.0040  0.0161
20365W        W24765   8.352   1.195  16.221  0.2065  0.0233 -0.1258
20366W        W24766   5.460   5.868  31.651 -0.3556  0.0665 -0.1128
20367W        W24767  11.197   5.556   8.039 -0.0162  0.1795  0.0585
20368W        W24768   7.326   2.487   8.096  0.3596 -0.0525 -0.1978
20369W        W24769  18.676   2.455  16.414  0.2207  0.1106  0.1237
20370W        W24770  25.023   2.085  19.563  0.1965  0.3099 -0.2035
20371W        W24771   9.028   0.263  24.013 -0.1384 -0.0270 -0.0918
20372W        W24772  17.231   1.513  23.220  0.0034 -0.1277 -0.0543
20373W        W24773   4.438   5.987  21.673 -0.1368  0.1190 -0.1512
20374W        W24774  22.924   2.462  23.328  0.2944  0.5590  0.0689
20375W        W24775   5.353   0.377   5.277  0.0398  0.0622  0.0180
20376W        W24776  21.012   3.317   5.944  0.0656 -0.1098  0.2011
20377W        W24777  20.607   0.686  22.032  0.1266  0.1708  0.2011
20378W        W24778  12.255   7.091  32.107 -0.0624  0.0124 -0.0566
20379W        W24779  16.374   2.127  12.932 -0.2666 -0.1320 -0.0689
20380W        W24780  15.649   6.892   2.392 -0.1544 -0.2022  0.0217
20381W        W24781  20.976   5.799  17.237  0.3665 -0.1085 -0.2586
20382W        W24782   7.669   2.676  21.795 -0.1726 -0.2140 -0.1621
20383W        W24783   3.822   6.830  10.603  0.1707  0.2786  0.0398
20384W        W24784   3.848   6.777  22.105 -0.0783  0.2200 -0.0574
20385W        W24785   8.145   1.929  22.435 -0.1256 -0.1425 -0.0580
20386W        W24786  14.654   0.223   4.047 -0.0740  0.1341 -0.1805
20387W        W24787  22.062   4.407  24.943  0.1001  0.3224  0.0994
20388W        W24788   2.075   0.399  26.145  0.0638  0.0605  0.4062
20389W        W24789  20.464   0.035  11.393  0.4281  0.3110  0.1453
20390W        W24790   7.431   3.580  32.144 -0.0006 -0.1114 -0.3583
20391W        W24791   1.122   4.908   4.709 -0.3312  0.2180 -0.0686
20392W        W24792  21.635   5.090  22.535  0.1020  0.1427  0.4469
20393W        W24793  18.788   5.114   6.459  0.0256  0.3619  0.1359
20394W        W24794   1.730   1.790   4.332 -0.0601 -0.2096  0.2046
20395W        W24795  16.138   0.416  14.436  0.1634 -0.0714  0.3833
20396W        W24796  16.175   3.034  22.537 -0.1733 -0.0615  0.0919
20397W        W24797   7.686   5.200   0.183 -0.0456 -0.3525  0.1237
20398W        W24798  16.850   2.799  25.898 -0.0999 -0.0226  0.5030
20399W        W24799  20.699   7.798  28.455  0.3734 -0.1118  0.1423
20400W        W24800  22.142   2.679   6.948  0.0182  0.2492 -0.2385
20401W        W24801   2.014   1.082  10.634  0.3417  0.1450 -0.0219
20402W        W24802  10.980   0.711   6.818 -0.0343 -0.0864 -0.1586
20403W        W24803  13.150   7.676   4.406 -0.2581  0.2346  0.0490
20404W        W24804   8.212   3.230   9.780  0.0621 -0.1910  0.0681
20405W        W24805  17.232   2.733   9.259  0.0068  0.1865  0.1967
20406W        W24806  24.028   5.010  26.039 -0.1848  0.3134  0.0044
20407W        W24807   2.724   2.601  25.183  0.0101  0.0941  0.0138
20408W        W24808  12.647   5.670   0.531  0.0673  0.0642 -0.1205
20409W        W24809  16.838   7.849  26.666 -0.1127  0.2660  0.2121
20410W        W24810   9.000   4.368   3.036 -0.0677 -0.1317  0.0813
20411W        W24811   3.834   0.183   9.513  0.0308 -0.1958 -0.1237
20412W        W24812  20.622   4.256  18.500 -0.2396 -0.0254  0.0486
20413W        W24813  20.885   5.959   6.415 -0.3758 -0.0559  0.1695
20414W        W24814   0.855   5.867   6.274 -0.2033  0.0801  0.2121
20415W        W24815   9.558   5.890  29.492  0.0253 -0.0177  0.1082
20416W        W24816   0.737   3.232  24.235  0.2852  0.0615  0.2511
20417W        W24817  18.575   0.090  29.359 -0.1489  0.0058  0.2171
20418W        W24818   5.999   7.379   9.044 -0.0088 -0.2551 -0.1168
20419W        W24819   2.972   1.695   1.735 -0.0345  0.2852  0.0633
20420W        W24820   8.862   7.422  23.676  0.1847  0.0912 -0.1552
20421W        W24821  10.255   1.537  31.049  0.0292 -0.2951  0.5433
20422W        W24822   8.974   3.290   7.555 -0.1417 -0.0089 -0.2112
20423W        W24823  14.665   5.794  24.839  0.2131  0.0967  0.0187
20424W        W24824  15.874   5.228  26.753  0.0363  0.1553  0.0541
20425W        W24825  21.056   5.546   3.955  0.1106  0.3699  0.2323
20426W        W24826  24.703   4.167  11.588  0.1923 -0.1257 -0.0237
20427W        W24827   6.171   1.308   1.403 -0.0512 -0.1669  0.1392
20428W        W24828   4.591   3.850  23.599  0.2479  0.0350 -0.0190
20429W        W24829  13.037   1.797   2.669 -0.3446  0.0524 -0.1365
20430W        W24830  20.455   0.798  23.679 -0.3074  0.0188 -0.3496
20431W        W24831  17.922   7.726   5.209 -0.0033  0.1166  0.0902
20432W        W24832  15.487   3.572  25.596  0.3615  0.0997  0.1017
20433W        W24833  19.361   0.288  29.994  0.2379  0.1858  0.0364
20434W        W24834   3.983   3.482   0.091 -0.1984  0.0161 -0.4099
20435W        W24835  21.528   0.179  26.590 -0.2008 -0.0503 -0.2100
20436W        W24836   9.197   1.551  18.139  0.2338 -0.1853  0.1785
20437W        W24837   9.009   6.777  29.486  0.1212  0.2194  0.2287
20438W        W24838   0.818   4.725  25.717 -0.0567 -0.3217 -0.1032
20439W        W24839   1.693   6.140  19.909 -0.1244  0.0224  0.1422
20440W        W24840  16.856   6.188  15.656  0.2508 -0.0031 -0.4223
20441W        W24841  18.298   7.567  27.155  0.0231  0.3368  0.0073
20442W        W24842   4.668   0.087  27.077  0.0730 -0.0118  0.1059
20443W        W24843   0.418   6.350   4.958 -0.0092  0.0348  0.1794
20444W        W24844  22.514   4.919   6.070  0.0092 -0.2260 -0.0618
20445W        W24845  15.695   4.660  23.264 -0.0301  0.0487 -0.2492
20446W        W24846   6.336   1.703   1.030 -0.1830 -0.3325  0.2174
20447W        W24847   5.655   6.684  20.604  0.0469  0.0668  0.1853
20448W        W24848  22.410   0.557  23.276  0.0915 -0.2903 -0.1197
20449W        W24849  16.977   5.078  25.462 -0.1186  0.0718  0.2660
20450W        W24850   9.454   0.992   3.749 -0.1831 -0.1548  0.0568
20451W        W24851  14.471   1.656  31.616 -0.2527 -0.1407  0.2348
20452W        W24852   3.549   0.925   3.737  0.1157 -0.0911 -0.0544
20453W        W24853  10.492   1.400   7.947  0.0549  0.1028  0.0103
20454W        W24854   1.965   3.362  19.018 -0.1184  0.0827 -0.2646
20455W        W24855  24.667   0.937  25.596 -0.0377 -0.2784 -0.2062
20456W        W24856   8.424   6.921   8.290 -0.3735  0.0499 -0.0997
20457W        W24857   2.391   2.617  19.206  0.0935  0.0264 -0.1144
20458W        W24858  16.428   0.551   1.357  0.4201 -0.2839  0.0498
20459W        W24859  18.708   4.837   8.593  0.0050  0.2155 -0.1843
20460W        W24860  11.029   0.450   8.875  0.0627 -0.0211 -0.0417
20461W        W24861  16.271   7.166  16.566  0.0162 -0.1209 -0.0089
20462W        W24862   7.962   3.622   6.152  0.0539 -0.1537  0.3889
20463W        W24863   0.876   0.911  29.337 -0.3376  0.0239 -0.1141
20464W        W24864  19.800   1.402  25.059 -0.0202  0.0530 -0.0867
20465W        W24865  20.661   6.452  30.416 -0.1663  0.0546 -0.0185
20466W        W24866  20.207   5.452  30.452 -0.2596 -0.0967 -0.1712
20467W        W24867   7.797   2.446  17.301  0.0236 -0.0236 -0.1821
20468W        W24868  22.647   6.665   4.641 -0.2373 -0.1301 -0.1229
20469W        W24869  18.000   1.196  26.906  0.1514 -0.1723  0.1031
20470W        W24870  11.040   0.453  30.388 -0.0722 -0.0099  0.0041
20471W        W24871   5.895   2.373   9.976 -0.0562  0.1170  0.0748
20472W        W24872   2.939   2.928  27.768 -0.0695 -0.4898  0.1459
20473W        W24873  19.355   7.742  10.803 -0.1544  0.0688  0.3300
20474W        W24874   7.062   7.024   2.561  0.4139  0.2108  0.1396
20475W        W24875  17.675   6.883  14.693 -0.3055 -0.0302  0.0045
20476W        W24876  12.629   3.005  24.241  0.3081  0.0231  0.0836
20477W        W24877   7.017   5.821   0.160 -0.1203 -0.2395 -0.0069
20478W        W24878  11.325   0.860   5.938 -0.3846 -0.0443 -0.1563
20479W        W24879  20.420   6.509  15.707 -0.1800  0.1244  0.0415
20480W        W24880   5.106   1.027  30.461 -0.1780  0.1752 -0.0284
20481W        W24881  23.613   7.811   5.378 -0.1916  0.0744 -0.2826
20482W        W24882  14.723   5.446  13.117 -0.0547 -0.1209 -0.1004
20483W        W24883  11.138   3.991   8.613  0.0018  0.0323  0.4110
20484W        W24884  14.896   4.087  13.713  0.0988 -0.3439 -0.2209
20485W        W24885   9.788   0.129  10.340 -0.2068 -0.0184 -0.1525
20486W        W24886  14.833   6.850   3.281  0.1729  0.2095 -0.0870
20487W        W24887   6.951   1.346  32.312  0.1571  0.0385  0.0690
20488W        W24888   6.477   6.490  24.822  0.0714  0.0237  0.1603
20489W        W24889  11.469   7.566  23.261  0.3163  0.3125 -0.4318
20490W        W24890   2.811   4.478   0.496  0.0605 -0.1540 -0.2109
20491W        W24891   5.415   0.618  28.667  0.1372  0.1656 -0.1009
20492W        W24892  16.126   5.317  28.249  0.1377 -0.1782 -0.3012
20493W        W24893   9.734   5.893  17.428  0.2230  0.0653  0.1008
20494W        W24894  20.629   6.990  26.856 -0.1620 -0.0672 -0.1479
20495W        W24895  16.468   6.878  27.367  0.1800 -0.0006 -0.1049
20496W        W24896  17.997   4.028  25.012  0.1351 -0.0636  0.1279
20497W        W24897  18.461   5.780  13.380 -0.0261  0.2208 -0.1172
20498W        W24898  15.305   7.115   6.435 -0.1430  0.0554  0.3038
20499W        W24899  13.685   3.181  20.781 -0.0565  0.0573  0.0091
20500W        W24900  24.603   4.451  27.963  0.0261 -0.5117 -0.0257
20501W        W24901  18.753   7.029  15.216  0.1949 -0.1212 -0.0273
20502W        W24902  11.625   3.085  30.444 -0.3760  0.0449 -0.1911
20503W        W24903  16.697   0.167   6.797 -0.1871  0.2992  0.1160
20504W        W24904  24.556   1.235  13.291 -0.1488  0.0451 -0.0113
20505W        W24905   1.472   6.481  29.955  0.1733  0.0733  0.4059
20506W        W24906   9.500   1.177  19.994 -0.0943 -0.1755  0.0673
20507W        W24907   2.011   0.019  31.885 -0.0649 -0.0843  0.0235
20508W        W24908   1.813   3.643  31.669 -0.0336 -0.0052  0.3676
20509W        W24909   1.518   7.667  31.761 -0.1671 -0.3317 -0.3330
20510W        W24910   8.711   3.749   4.860 -0.0676  0.1194 -0.1151
20511W        W24911  21.589   6.284   7.002  0.0339 -0.1290  0.0351
20512W        W24912   0.063   2.818  28.769  0.1477 -0.0388  0.1238
20513W        W24913  18.757   0.051  31.655 -0.0562 -0.1049 -0.1369
20514W        W24914   4.432   7.556  11.024  0.0012  0.0625 -0.0652
20515W        W24915  22.982   3.651   7.905  0.1478 -0.0415  0.0702
20516W        W24916  11.807   4.179  17.249  0.0928 -0.1116  0.0317
20517W        W24917   6.988   2.722  17.474 -0.0774  0.1542  0.0839
20518W        W24918  20.034   4.171   1.783  0.3443  0.0415  0.2360
20519W        W24919  24.359   1.996   8.340  0.2515  0.0368 -0.0030
20520W        W24920   3.847   3.803  27.591 -0.3430 -0.2155  0.3564
20521W        W24921  17.012   3.132  32.448 -0.0216 -0.0105  0.1312
20522W        W24922  23.476   7.309   5.040  0.0747  0.3338 -0.0916
20523W        W24923  12.873   2.400  26.496 -0.3568  0.0512  0.0667
20524W        W24924  25.061   4.679  21.717 -0.3790  0.1431  0.0724
20525W        W24925   8.349   6.017  18.573 -0.2855 -0.1146  0.2065
20526W        W24926  10.526   0.505  11.213  0.2920  0.2203 -0.1633
20527W        W24927  17.121   6.654   5.945  0.0653 -0.0095 -0.0820
20528W        W24928  12.258   3.962  31.892  0.0362 -0.1169 -0.2255
20529W        W24929  15.116   6.190  31.603 -0.1218 -0.0315 -0.0178
20530W        W24930  14.708   5.851   8.198  0.0500 -0.1168  0.2754
20531W        W24931   8.228   3.130  22.503 -0.0775 -0.2263 -0.0758
20532W        W24932  21.773   5.861  25.521  0.0434 -0.0910 -0.0205
20533W        W24933  19.028   3.078   9.799 -0.2758  0.0569 -0.1217
20534W        W24934  21.702   4.607  23.308 -0.0638  0.1534  0.1622
20535W        W24935  13.203   0.282  20.699 -0.0179  0.0900 -0.3019
20536W        W24936  21.309   0.283  27.992 -0.1786  0.2846 -0.1374
20537W        W24937   3.847   5.560  31.281 -0.0174  0.2121 -0.2109
20538W        W24938  10.157   2.040  23.341 -0.2356 -0.0465  0.2837
20539W        W24939  19.831   7.753  29.751  0.3136  0.0737 -0.0653
20540W        W24940   6.797   6.135  16.091  0.1332 -0.2303  0.0535
20541W        W24941  18.091   6.833  28.646 -0.0403 -0.0019 -0.0363
20542W        W24942  17.192   0.039   4.547  0.1092  0.2915  0.3780
20543W        W24943  11.715   5.074   6.465 -0.3669  0.0658  0.3675
20544W        W24944   6.048   5.956   0.333 -0.0517 -0.1205  0.0309
20545W        W24945  12.044   3.358  20.934 -0.1725  0.3158  0.0040
20546W        W24946  21.449   4.211  22.716 -0.0891 -0.0823 -0.2132
20547W        W24947   1.181   3.248  22.992  0.0788  0.0169  0.1876
20548W        W24948  21.883   6.297  22.984 -0.2683  0.1842 -0.3039
20549W        W24949  19.226   4.941   7.671  0.0927  0.2487  0.2630
20550W        W24950  15.419   4.657   9.568 -0.0450 -0.1373  0.0872
20551W        W24951  15.539   7.456  24.627  0.1779  0.2279  0.2129
20552W        W24952  12.106   2.600  27.854  0.2451  0.2030 -0.0025
20553W        W24953   2.141   5.438  30.525 -0.2587  0.0111  0.3150
20554W        W24954  16.746   0.151   8.174 -0.1961  0.4131 -0.1183
20555W        W24955  15.514   4.302  25.074  0.0585  0.0788  0.0781
20556W        W24956  13.667   2.589  11.799 -0.0914  0.0817 -0.2268
20557W        W24957   2.779   3.002  16.314 -0.2180 -0.0653  0.0666
20558W        W24958   8.991   5.298   0.486  0.1772 -0.0846  0.0659
20559W        W24959   1.630   2.782   2.369 -0.2561  0.2933  0.2374
20560W        W24960   1.332   4.189   3.191  0.0226  0.0227  0.1812
20561W        W24961   4.121   7.690  31.964 -0.3452 -0.0212  0.0093
20562W        W24962  23.580   7.431  10.758 -0.1928 -0.1839  0.1718
20563W        W24963  17.674   0.111  17.966 -0.0669 -0.2486  0.1773
20564W        W24964   3.810   1.044  26.810  0.1486 -0.1478 -0.1718
20565W        W24965  16.498   0.576   0.558 -0.0477  0.1605 -0.1491
20566W        W24966   7.394   1.675  28.419  0.2553 -0.3068  0.2038
20567W        W24967   6.980   7.700  23.046 -0.1608 -0.2575 -0.1154
20568W        W24968  10.094   0.306  25.003 -0.2343 -0.1625  0.0396
20569W        W24969   2.729   2.301  21.479 -0.0589 -0.1330 -0.1445
20570W        W24970  17.739   7.241  27.917  0.1520  0.3462 -0.1896
20571W        W24971  18.810   7.467  11.327 -0.1678  0.3814  0.0191
20572W        W24972   5.975   3.280   5.399 -0.2295 -0.1505  0.2552
20573W        W24973  24.501   1.345  12.227  0.1777  0.3751  0.0942
20574W        W24974  14.159   4.280  22.360 -0.1871 -0.1563 -0.2151
20575W        W24975  16.576   5.946   7.914 -0.3488  0.1036  0.1209
20576W        W24976   2.053   6.041  18.438  0.3324 -0.4239 -0.3075
20577W        W24977  12.705   4.980   5.328  0.2977  0.1738  0.2409
20578W        W24978   6.846   7.161  23.064 -0.1652 -0.1568  0.0748
20579W        W24979  22.538   1.860  15.560  0.0350  0.3335 -0.1947
20580W        W24980   3.899   1.046   1.164 -0.2013 -0.0045  0.1732
20581W        W24981  18.809   4.904   2.097 -0.2245  0.2955  0.1352
20582W        W24982   5.452   7.189   2.955  0.2266 -0.0755 -0.0853
20583W        W24983  23.751   6.129  24.978 -0.1718 -0.0277 -0.1670
20584W        W24984  17.853   4.220   2.744  0.2069 -0.3619  0.0523
20585W        W24985  17.661   4.890  29.004  0.0537  0.3193 -0.1050
20586W        W24986  10.424   4.390   0.965  0.0239 -0.3783 -0.0394
20587W        W24987  12.887   1.238   0.970 -0.0065 -0.1500 -0.0481
20588W        W24988   1.873   4.104   7.477 -0.0130 -0.2335 -0.1089
20589W        W24989  14.660   1.329  28.920  0.0416 -0.2819 -0.1144
20590W        W24990  13.960   5.599  31.717  0.0570  0.0937  0.0346
20591W        W24991  11.561   5.412  10.612 -0.3304 -0.0693  0.0209
20592W        W24992   2.278   6.717   5.674 -0.0032 -0.1131 -0.0320
20593W        W24993   3.417   0.433  16.470 -0.1230 -0.0225  0.2267
20594W        W24994   9.536   0.048  24.036 -0.1279  0.0962 -0.1416
20595W        W24995  20.307   2.023   3.374 -0.0926 -0.1348 -0.0690
20596W        W24996   1.521   2.998  24.430  0.1566  0.0929  0.1274
20597W        W24997  15.161   3.889   5.914  0.3882  0.2561 -0.1933
20598W        W24998  22.896   3.373   3.923 -0.0967 -0.3833  0.0685
20599W        W24999   4.883   1.352  21.072  0.3207  0.0926  0.2446
20600W        W25000   4.900   2.862  17.344 -0.1079  0.2462 -0.0185
20601W        W25001   9.375   2.226   6.874 -0.0735 -0.0950 -0.1687
20602W        W25002   9.381   3.759  30.191 -0.2649 -0.1416 -0.4267
20603W        W25003  14.146   7.738  29.550  0.5446 -0.3788 -0.2525
20604W        W25004  16.426   0.510  12.843 -0.1924  0.1259  0.2391
20605W        W25005  17.386   1.019  14.197  0.0277 -0.2411 -0.1736
20606W        W25006  24.853   6.815   7.855 -0.0332  0.0368 -0.1459
20607W        W25007   4.944   7.624  18.893  0.1191 -0.1991  0.0617
20608W        W25008  22.992   1.146  24.310  0.1257 -0.2285  0.0050
20609W        W25009  16.150   2.115   8.702  0.0407 -0.1186 -0.1657
20610W        W25010  15.386   5.848  23.591  0.1716 -0.1527  0.0413
20611W        W25011  19.788   3.783  25.928 -0.2927  0.1724 -0.2926
20612W        W25012  20.880   3.378  31.523  0.2915 -0.2907  0.0405
20613W        W25013  18.847   4.044  28.920 -0.3706 -0.1066  0.1661
20614W        W25014  18.166   0.962  12.055  0.0194 -0.3291  0.1099
20615W        W25015   7.883   1.365  31.882  0.0539 -0.2319  0.0228
20616W        W25016   8.591   5.719  19.306  0.1032  0.0173  0.1549
20617W        W25017   5.664   1.747  21.400 -0.2116 -0.2414  0.0549
20618W        W25018  16.404   5.699  29.174 -0.3829  0.1568 -0.3614
20619W        W25019  16.048   0.742  31.919  0.0465  0.2159 -0.2256
20620W        W25020   8.457   3.135   5.368 -0.0619  0.1921  0.1150
20621W        W25021  23.320   3.322  31.372  0.0522  0.0539 -0.0615
20622W        W25022  23.417   0.672   1.314  0.1522  0.0717  0.0946
20623W        W25023  24.807   5.414  31.789 -0.0408 -0.0171  0.2874
20624W        W25024  23.603   3.504  26.109  0.1181 -0.2283 -0.0582
20625W        W25025  15.889   2.890   8.664  0.0785  0.1922  0.2366
20626W        W25026  15.597   0.223  15.777 -0.3462  0.0568  0.0174
20627W        W25027  24.554   6.858  28.185  0.3334 -0.1299  0.0201
20628W        W25028  17.659   2.364  12.597  0.0673  0.1920 -0.2132
20629W        W25029   8.100   0.702   7.458  0.0099 -0.1466 -0.0313
20630W        W25030  17.421   1.121  16.782 -0.0025 -0.0853 -0.0007
20631W        W25031   2.425   1.929   5.427 -0.1010  0.0190  0.0463
20632W        W25032   6.709   7.049  24.557  0.0722 -0.0705  0.2612
20633W        W25033  10.778   3.097  20.581 -0.2878 -0.1515 -0.2074
20634W        W25034  14.389   5.124  26.835  0.2037  0.2482  0.0131
20635W        W25035   7.898   3.133   9.373 -0.2569 -0.1370  0.1652
20636W        W25036  20.330   1.145  25.088  0.1784 -0.2290  0.0024
20637W        W25037  15.195   3.674   0.373  0.0869 -0.0769  0.2307
20638W        W25038   4.561   1.223  15.962  0.1481  0.2109 -0.1042
20639W        W25039  13.293   3.783   0.168 -0.1295 -0.1415  0.0877
20640W        W25040   3.010   0.373   9.903 -0.0460 -0.0161 -0.0716
20641W        W25041   0.269   2.033   1.846 -0.0665  0.0310 -0.1074
20642W        W25042  13.391   1.996  12.660  0.3716  0.0150  0.0781
20643W        W25043   9.052   6.085   8.082 -0.2362  0.1407 -0.2686
20644W        W25044  15.729   4.152  14.748  0.0831 -0.0251  0.0538
20645W        W25045   3.063   7.796  30.004  0.0368 -0.1689  0.0044
20646W        W25046   2.777   5.972  31.999 -0.1372 -0.0422  0.1509
20647W        W25047  24.126   4.957   6.840 -0.0451  0.1806 -0.2248
20648W        W25048   0.701   6.449  22.191  0.1501  0.1085 -0.3052
20649W        W25049  16.224   2.874   4.804 -0.0016 -0.3042 -0.0801
20650W        W25050   2.559   3.585   5.370 -0.1552  0.2381 -0.2277
20651W        W25051   2.046   7.680   5.973  0.0621 -0.3418 -0.0353
20652W        W25052   9.889   1.217   4.019  0.1469 -0.0715  0.1596
20653W        W25053  12.898   7.795  22.365 -0.0720 -0.0411  0.0091
20654W        W25054  18.878   0.813   7.847  0.2077 -0.2534 -0.3076
20655W        W25055   2.012   6.567   6.114  0.1932 -0.2467 -0.1219
20656W        W25056  21.300   1.813  10.398 -0.2332  0.2527  0.0494
20657W        W25057  24.084   4.919  10.045 -0.0203 -0.0929 -0.1019
20658W        W25058  13.642   7.695   6.478  0.0948  0.1082  0.2484
20659W        W25059   9.644   7.676  20.318 -0.0447 -0.1459 -0.1728
20660W        W25060   6.714   6.152   1.913 -0.2827  0.2319  0.1868
20661W        W25061   2.998   4.953  30.412 -0.0051  0.0478 -0.0449
20662W        W25062   8.441   5.624  28.446  0.1383  0.0470 -0.0442
20663W        W25063   3.319   0.297   8.220 -0.3060 -0.1193  0.0096
20664W        W25064  20.953   0.071   9.147 -0.0966  0.1467  0.2956
20665W        W25065  22.045   4.087   6.684  0.3517  0.2775 -0.1907
20666W        W25066  16.297   0.136   7.411  0.0486  0.1683 -0.0603
20667W        W25067  14.094   6.774   1.565  0.1083  0.2412  0.4364
20668W        W25068   7.735   2.537  15.956 -0.1733 -0.0103 -0.2180
20669W        W25069  18.807   0.747  10.841 -0.0403  0.1730 -0.0949
20670W        W25070   0.028   4.382  26.692  0.0560 -0.2118 -0.2323
20671W        W25071  10.163   7.701  31.886 -0.2102  0.3668  0.0113
20672W        W25072  10.911   2.655   9.361  0.1345  0.2284  0.0245
20673W        W25073   1.461   3.115  30.774 -0.5719  0.0119  0.2467
20674W        W25074  17.751   4.323  27.834  0.0447 -0.0228 -0.0727
20675W        W25075  14.611   5.348  26.441  0.3344  0.1371 -0.0746
20676W        W25076   6.440   3.794  22.302 -0.0513  0.0275 -0.1541
20677W        W25077  21.329   3.176  26.381 -0.3060  0.1694  0.2763
20678W        W25078   8.000   3.845   0.996  0.1601 -0.3334  0.0821
20679W        W25079   0.175   6.384   0.504  0.0722 -0.0045  0.1973
20680W        W25080  20.792   1.438  13.192 -0.1221  0.1824  0.1584
20681W        W25081  21.112   0.524   5.187  0.0225  0.1989 -0.2113
20682W        W25082   1.233   3.991  20.786  0.1902  0.1749 -0.2048
20683W        W25083   6.349   6.405   3.883 -0.0985 -0.2763 -0.2122
20684W        W25084  12.554   4.079  23.449 -0.1178  0.1584  0.3686
20685W        W25085  16.459   2.304  16.211 -0.1916  0.2926 -0.2525
20686W        W25086   2.955   4.555   6.181 -0.2582  0.1733  0.0919
20687W        W25087  16.309   5.561   0.723 -0.0618 -0.0005  0.3315
20688W        W25088  17.784   0.751  22.672 -0.1550  0.0864 -0.0718
20689W        W25089  11.450   4.031  11.687 -0.1873  0.0834 -0.0526
20690W        W25090  22.117   1.546   2.890  0.1355 -0.4153 -0.0908
20691W        W25091   4.994   4.002  17.181  0.0509  0.1012  0.1785
20692W        W25092  10.872   2.151   8.783 -0.2085  0.0924  0.1317
20693W        W25093   9.499   1.577   8.792 -0.0778  0.2570 -0.1645
20694W        W25094   5.970   4.139   5.747  0.2033  0.1333  0.0203
20695W        W25095  10.876   4.522   9.706 -0.0582  0.2922  0.0239
20696W        W25096   7.662   4.386  23.498 -0.2310 -0.2097 -0.0028
20697W        W25097   3.657   2.652  27.150 -0.1676  0.1263 -0.0719
20698W        W25098  11.631   0.050  24.333 -0.3323  0.0833 -0.0154
20699W        W25099  19.512   3.394  22.654 -0.1986 -0.1039  0.0657
20700W        W25100  10.327   3.434  10.832  0.1714  0.2097  0.1266
20701W        W25101  22.958   5.843   9.898 -0.0705  0.3026 -0.1670
20702W        W25102  19.270   7.076  28.040  0.0913  0.1471  0.1358
20703W        W25103  19.869   6.408   5.171  0.2559  0.0804 -0.0460
20704W        W25104   4.111   2.224   3.750  0.2454 -0.1150 -0.0475
20705W        W25105  19.282   2.623   5.458 -0.1321 -0.1311  0.0670
20706W        W25106  11.679   4.521  27.989  0.3219  0.3172  0.1633
20707W        W25107  21.393   1.066  32.279  0.0000  0.1985  0.0878
20708W        W25108  10.386   2.850  22.413 -0.0136  0.5285  0.1674
20709W        W25109  13.549   3.509   4.635 -0.0881  0.1098 -0.4108
20710W        W25110  14.376   3.040  13.502 -0.1490  0.1858 -0.1351
20711W        W25111   3.880   1.679  31.479  0.0455  0.0956  0.2041
20712W        W25112   8.550   4.618  14.990 -0.1433  0.1815 -0.0189
20713W        W25113  14.668   7.173  28.942 -0.1918  0.0149  0.1369
20714W        W25114  20.660   0.865   5.068 -0.1543 -0.0720 -0.0018
20715W        W25115  23.465   0.923  31.872 -0.2917  0.1068  0.0206
20716W        W25116  24.027   3.421  10.536  0.1211 -0.1763  0.2767
20717W        W25117   6.749   5.301   5.091 -0.5200  0.1345 -0.0967
20718W        W25118  13.114   2.822  26.045  0.2725 -0.1903  0.2133
20719W        W25119  25.071   7.012  26.547  0.0753  0.1078  0.0744
20720W        W25120  19.116   0.454  31.726 -0.3515  0.0192  0.3178
20721W        W25121   7.757   5.292  21.043  0.0047  0.0485 -0.3084
20722W        W25122   1.680   6.338  24.338 -0.1615 -0.3314 -0.3802
20723W        W25123  12.395   6.809  22.331 -0.0189 -0.1197  0.0195
20724W        W25124  16.509   6.492  15.310 -0.1031 -0.1729  0.0482
20725W        W25125   8.051   4.045  21.345  0.1752  0.0944  0.2640
20726W        W25126  15.732   6.010   7.036 -0.1791 -0.3760  0.0560
20727W        W25127  18.083   3.713  25.766  0.0379 -0.2359 -0.0553
20728W        W25128   2.385   1.283  17.842  0.1313  0.2739 -0.0886
20729W        W25129   3.330   4.544  26.084 -0.0297 -0.0544 -0.0441
20730W        W25130   7.603   6.374  18.472  0.0476  0.2902  0.0702
20731W        W25131  22.446   0.066  30.084  0.0625 -0.1301  0.0207
20732W        W25132  18.302   2.131   1.621  0.3100 -0.0043  0.2781
20733W        W25133  12.719   4.815   7.179 -0.0839 -0.0506 -0.2377
20734W        W25134   0.727   5.652  29.055  0.0940  0.0085 -0.1513
20735W        W25135  15.460   1.697  28.680  0.0165 -0.2892 -0.0357
20736W        W25136  20.305   5.126  15.341 -0.0488  0.3924 -0.1213
20737W        W25137   8.563   1.118   5.059  0.0451 -0.1490  0.0066
20738W        W25138  21.723   1.369   8.070  0.0120 -0.0491  0.0569
20739W        W25139  24.542   4.877  30.060  0.1943  0.1344  0.0668
20740W        W25140  16.329   1.034  32.230 -0.2135 -0.1244  0.0215
20741W        W25141  10.774   6.314   8.821  0.0275 -0.0851  0.0892
20742W        W25142  10.001   2.121  17.419 -0.0812  0.0082 -0.2482
20743W        W25143   5.185   4.286   4.877  0.2006  0.2227  0.1205
20744W        W25144  19.824   2.802  15.781  0.1530  0.2198 -0.0949
20745W        W25145  22.370   0.711   1.404  0.1940  0.0257 -0.0972
20746W        W25146  14.098   2.874  12.242  0.0943 -0.1882  0.0843
20747W        W25147  13.367   3.131   1.503 -0.0526 -0.2971  0.0911
20748W        W25148   3.831   2.570  31.681  0.1231  0.0729  0.4162
20749W        W25149   3.090   2.678  26.841  0.1096  0.0447 -0.1146
20750W        W25150  19.347   7.135  26.332  0.2012  0.0942  0.0841
20751W        W25151  10.016   5.325  20.689  0.2342  0.2344  0.1083
20752W        W25152   8.564   5.177  21.982 -0.1348  0.0247 -0.0515
20753W        W25153  15.607   2.527   6.813 -0.1852 -0.0442 -0.2050
20754W        W25154  17.761   2.542   2.479 -0.0971  0.0813 -0.0110
20755W        W25155  14.627   5.855   0.613  0.1735 -0.0864  0.0061
20756W        W25156   4.759   3.615   8.035  0.2225 -0.0544  0.0273
20757W        W25157  16.001   4.525  11.253  0.2800  0.2601  0.0800
20758W        W25158  11.994   6.475  21.629  0.0561 -0.3416 -0.0394
20759W        W25159  15.741   0.713   2.633  0.2201  0.0008  0.0025
20760W        W25160  14.692   3.540  11.555 -0.1422  0.2522 -0.0961
20761W        W25161   8.928   7.086  32.447 -0.0702 -0.1603 -0.0544
20762W        W25162  16.545   2.410  25.154 -0.3979  0.2390  0.1864
20763W        W25163  12.869   4.703  20.183  0.0257  0.1493 -0.1203
20764W        W25164  10.084   6.495  25.999  0.1695  0.2645 -0.1256
20765W        W25165   6.269   6.444   7.788 -0.1250  0.0157 -0.0649
20766W        W25166   8.536   2.598   2.844 -0.0897  0.5196 -0.0100
20767W        W25167  17.602   2.784  24.077  0.1326 -0.2110  0.0027
20768W        W25168   1.635   1.862  23.886  0.2023  0.1405 -0.0024
20769W        W25169  14.009   7.241  21.969 -0.1396  0.2018 -0.0052
20770W        W25170  23.082   0.664  11.717  0.0948  0.1887  0.0244
20771W        W25171  11.592   2.101  21.701  0.1073 -0.0955  0.1717
20772W        W25172  22.876   4.761  22.621 -0.0244 -0.4046  0.0095
20773W        W25173   4.119   4.637  30.054 -0.1301 -0.0146  0.2699
20774W        W25174   5.440   3.076  31.007 -0.0867 -0.3597  0.0158
20775W        W25175  13.313   6.444  22.447  0.2418  0.1406  0.1971
20776W        W25176   5.877   5.098  31.406  0.3279  0.0203  0.1195
20777W        W25177   3.669   3.075   7.784 -0.0259 -0.0108 -0.1184
20778W        W25178   1.820   4.119   2.548 -0.2240 -0.0934  0.1096
20779W        W25179   1.446   0.388  32.048 -0.0504 -0.1363  0.0292
20780W        W25180   2.295   1.621  18.893 -0.0643  0.0216 -0.3620
20781W        W25181   8.090   4.445  15.604 -0.1602 -0.1588  0.0936
20782W        W25182  10.814   0.683  30.782  0.1086  0.1728 -0.1338
20783W        W25183  23.274   5.161   7.802  0.0794 -0.0075 -0.1494
20784W        W25184  15.124   5.218   5.782  0.1337 -0.1812 -0.1095
20785W        W25185  18.816   3.874   4.915 -0.1283 -0.0000 -0.0585
20786W        W25186  10.241   6.514  17.909 -0.1431 -0.0972  0.0966
20787W        W25187  23.428   6.422   8.048 -0.1625  0.1767  0.1973
20788W        W25188   7.074   5.324  22.849 -0.0241 -0.2035 -0.3321
20789W        W25189   6.771   5.467   1.019 -0.2124 -0.1154  0.2993
20790W        W25190   9.646   5.995  16.157 -0.2972 -0.0014  0.0154
20791W        W25191   9.086   1.249  20.325 -0.4596 -0.1498  0.0214
20792W        W25192   5.063   1.838  31.179  0.1900  0.0337 -0.1935
20793W        W25193  24.862   0.477   1.292  0.0308  0.0551  0.2578
20794W        W25194  22.336   1.140  14.986  0.0281  0.1745 -0.0394
20795W        W25195  21.616   0.694  26.845  0.0601  0.1616 -0.4245
20796W        W25196  22.156   4.669  15.936 -0.1701  0.2343 -0.1029
20797W        W25197   8.807   6.423  17.041  0.0075 -0.0225 -0.0072
20798W        W25198  13.337   0.840  10.229  0.0034 -0.0679 -0.1767
20799W        W25199  21.077   4.620  28.532 -0.0698 -0.1722 -0.1774
20800W        W25200  20.794   7.271  13.614 -0.0756 -0.1480  0.0316
20801W        W25201  12.421   5.545  29.820 -0.2253 -0.0698  0.3146
20802W        W25202   0.334   0.999  31.047  0.0771 -0.1179  0.0137
20803W        W25203   6.328   1.788  23.909 -0.0390  0.0675 -0.1200
20804W        W25204   5.287   4.222  30.595  0.2084  0.1939  0.1005
20805W        W25205  18.217   4.144   3.759  0.0528 -0.2204 -0.2146
20806W        W25206  11.145   6.132  31.118 -0.1299 -0.1019  0.1163
20807W        W25207  17.985   1.748  14.197 -0.1001  0.0009  0.0383
20808W        W25208   2.077   1.644  26.390 -0.0134 -0.2110  0.2141
20809W        W25209   4.731   0.954   6.558  0.0769 -0.1871 -0.2705
20810W        W25210   1.266   3.764  21.242  0.0273  0.1067 -0.1423
20811W        W25211   9.356   4.427  20.717  0.2758 -0.1801  0.1105
20812W        W25212   5.382   0.377   2.162 -0.5034 -0.0503 -0.1272
20813W        W25213  12.986   4.301   0.811  0.0421 -0.1473  0.0230
20814W        W25214   8.449   5.061   0.770 -0.2168  0.1832  0.1968
20815W        W25215  15.812   4.221   5.120  0.2903  0.3862  0.2217
20816W        W25216   8.723   5.770   3.199 -0.0869  0.2731 -0.1376
20817W        W25217  14.020   2.755  24.464 -0.0286 -0.2063 -0.1055
20818W        W25218  19.710   4.575  30.727 -0.1839  0.1616  0.1531
20819W        W25219  22.135   6.590  15.397 -0.3371 -0.1093 -0.0141
20820W        W25220   4.299   1.875   4.088 -0.0533  0.0717 -0.0983
20821W        W25221  15.765   4.962  14.435  0.0839 -0.0139 -0.0941
20822W        W25222  13.419   1.699   3.216  0.0268 -0.2504 -0.0915
20823W        W25223  19.478   4.940  11.167 -0.1384  0.3986  0.1722
20824W        W25224  23.455   0.559  14.920  0.1799  0.3208  0.0604
20825W        W25225  15.598   5.363  15.295 -0.1903  0.0604 -0.1091
20826W        W25226  14.640   0.222  25.945  0.0927 -0.0105 -0.1114
20827W        W25227   9.203   0.162  31.795  0.1437 -0.1597  0.3813
20828W        W25228   9.212   7.837  23.643 -0.0285  0.0716  0.1089
20829W        W25229  11.207   6.576  18.098  0.0610  0.0691 -0.0278
20830W        W25230  20.901   5.738  27.943  0.2307  0.1773  0.0712
20831W        W25231  11.282   0.949  10.211  0.2136 -0.2384 -0.0858
20832W        W25232   8.356   4.791   2.318  0.0948  0.1115  0.0692
20833W        W25233  20.412   6.233   8.140 -0.0812  0.0233  0.2085
20834W        W25234  18.151   0.465  11.900  0.2696  0.0753 -0.1197
20835W        W25235   3.718   4.920   8.495 -0.0694 -0.1331  0.1663
20836W        W25236  24.686   2.466  25.752 -0.0893  0.0715 -0.2615
20837W        W25237  14.834   7.032  24.461 -0.1601  0.0594 -0.0323
20838W        W25238  19.555   0.489  23.608 -0.1738 -0.3650  0.4030
20839W        W25239  13.382   5.955  23.836 -0.2652  0.3040 -0.0869
20840W        W25240  12.109   5.172  24.022  0.1574 -0.1104 -0.3109
20841W        W25241  10.064   2.765  30.148 -0.1448  0.2217  0.1190
20842W        W25242   7.552   5.118   8.252 -0.0269 -0.1636 -0.0636
20843W        W25243   4.023   0.480   5.076 -0.2437 -0.1023 -0.0617
20844W        W25244  16.212   5.232   0.318 -0.2836  0.3753 -0.1454
20845W        W25245   6.714   7.799  10.033 -0.0223 -0.0750  0.0839
20846W        W25246  24.176   2.067  28.725  0.0678  0.3240  0.1886
20847W        W25247   8.506   6.906   9.045 -0.1361 -0.0821 -0.0906
20848W        W25248   2.393   2.227  11.292 -0.1049 -0.0783 -0.1654
20849W        W25249   1.918   5.922   6.445  0.1385 -0.1286 -0.0725
20850W        W25250   5.547   3.493   3.838 -0.1289  0.1888  0.2585
20851W        W25251  18.836   0.335  23.942  0.2176  0.0159  0.0162
20852W        W25252  23.981   2.440  13.927 -0.0655 -0.0156 -0.1444
20853W        W25253  22.126   5.738  25.201 -0.0430 -0.0913 -0.1786
20854W        W25254  14.452   4.508   5.455 -0.0673  0.1958 -0.0502
20855W        W25255   2.792   5.649  28.033  0.1436  0.0653 -0.0571
20856W        W25256  24.229   2.983  10.266  0.1899  0.1806  0.0558
20857W        W25257  17.016   1.052   2.548  0.0156  0.3987 -0.1605
20858W        W25258  15.145   6.608  10.257  0.0984  0.2727 -0.0800
20859W        W25259   0.517   2.178   6.096 -0.1631  0.0080 -0.1100
20860W        W25260   6.753   4.143   4.782  0.1945  0.0704 -0.0203
20861W        W25261   2.284   6.525   1.990  0.0713 -0.0754  0.1004
20862W        W25262  11.531   7.566  27.300  0.1659 -0.0617  0.1619
20863W        W25263   4.814   6.604  22.731  0.3185 -0.1679 -0.1228
20864W        W25264  20.728   0.063  14.264 -0.0735 -0.0036  0.1885
20865W        W25265   1.221   2.720   3.866 -0.0320 -0.0146  0.0057
20866W        W25266  10.072   5.153   2.529  0.4194  0.0908 -0.0616
20867W        W25267  15.918   0.453  13.448  0.2083  0.3781  0.0493
20868W        W25268  15.091   0.879  24.173 -0.0235 -0.0369  0.1184
20869W        W25269  24.075   4.473   6.128 -0.0473 -0.0516  0.2214
20870W        W25270   1.695   1.889  19.491 -0.0447 -0.2573 -0.1260
20871W        W25271  16.424   7.847  17.383  0.1872 -0.0449  0.1328
20872W        W25272   8.632   1.358  20.423 -0.1814  0.2442  0.1870
20873W        W25273   2.244   5.632   0.559  0.0053 -0.0241  0.2814
20874W        W25274   0.789   1.299  24.978 -0.1970  0.1105 -0.3994
20875W        W25275  20.851   1.064  23.303 -0.0551 -0.0539 -0.0702
20876W        W25276   7.128   1.635  22.552  0.1000  0.1256  0.0451
20877W        W25277   6.258   1.494  31.483 -0.1730 -0.1946 -0.0462
20878W        W25278  11.075   4.736  30.349  0.1215 -0.1905  0.1270
20879W        W25279  10.234   5.566   1.788  0.0649  0.0726 -0.1539
20880W        W25280  10.392   3.706   3.661 -0.0806  0.2553  0.1601
20881W        W25281   4.245   0.952  21.674  0.2844  0.1974 -0.1452
20882W        W25282  16.910   1.348  14.314  0.1357  0.0822 -0.1513
20883W        W25283   2.130   0.057  10.865  0.1012  0.0061  0.1095
20884W        W25284   1.767   2.130  27.090 -0.0871  0.2892  0.1391
20885W        W25285   0.831   1.739   8.390 -0.0988 -0.1593  0.0251
20886W        W25286  11.145   3.925  21.337  0.2261  0.0559 -0.0158
20887W        W25287  10.872   1.693   5.280 -0.0091 -0.1371 -0.1373
20888W        W25288   3.258   6.565   3.415 -0.5162  0.1709 -0.0035
20889W        W25289  23.498   6.066  11.369 -0.1253  0.2773 -0.2697
20890W        W25290  22.876   1.256   9.843 -0.0798 -0.3500 -0.1645
20891W        W25291  13.466   3.413  19.370 -0.2482 -0.0531  0.1498
20892W        W25292  11.072   1.876   7.857 -0.1210  0.0039 -0.0875
20893W        W25293   7.354   0.162   8.586 -0.0023  0.1499 -0.3060
20894W        W25294   3.749   2.122   4.749  0.0581  0.0757  0.1321
20895W        W25295  17.996   1.321  23.883 -0.1901  0.0516  0.1659
20896W        W25296  14.874   6.961  23.210  0.0453 -0.1600  0.1102
20897W        W25297   6.392   0.921  22.341 -0.1801 -0.0745 -0.1869
20898W        W25298   8.442   3.675   9.650 -0.2537  0.3237  0.0816
20899W        W25299  10.412   5.352  31.801  0.0422 -0.1066  0.0187
20900W        W25300  15.991   4.799  10.778  0.0339 -0.0208 -0.1859
20901W        W25301   1.439   6.985  25.990  0.1247 -0.2032  0.0825
20902W        W25302   5.666   0.543  18.484  0.3035  0.2282  0.0673
20903W        W25303   5.219   0.118   0.195  0.0939 -0.0125 -0.1847
20904W        W25304  12.043   1.978  26.474  0.0522  0.1845  0.0825
20905W        W25305   4.697   2.113   4.575  0.1262 -0.0724  0.3454
20906W        W25306  20.006   4.408  23.957 -0.0087 -0.2832 -0.0464
20907W        W25307  19.870   2.930   4.505 -0.0389  0.1463  0.1094
20908W        W25308   7.096   1.766   4.431  0.1824 -0.1222 -0.1145
20909W        W25309  21.930   2.584  29.326 -0.0612 -0.0471 -0.0149
20910W        W25310   0.912   3.581   8.935 -0.5310  0.3059 -0.0973
20911W        W25311  12.388   5.218   0.714  0.0526 -0.3539 -0.1333
20912W        W25312   8.939   7.119   0.659 -0.1706 -0.2330  0.1553
20913W        W25313   4.533   4.113  10.889 -0.1309  0.0720 -0.1461
20914W        W25314  23.206   6.860  32.372  0.2359 -0.0286  0.0844
20915W        W25315   4.408   5.649  22.983 -0.1255  0.1505 -0.0403
20916W        W25316  16.282   0.801  30.003 -0.1199  0.0524  0.0945
20917W        W25317   7.450   2.546   0.573  0.1315 -0.1499 -0.0849
20918W        W25318   9.199   2.359  31.160  0.0129 -0.0446  0.0348
20919W        W25319   0.180   1.196  24.330 -0.2311 -0.0528 -0.2831
20920W        W25320   4.796   5.357  29.275  0.0316 -0.1316  0.0338
20921W        W25321   4.946   7.448   0.952 -0.1310 -0.0704 -0.3327
20922W        W25322  14.850   3.099  12.691  0.1043 -0.1396 -0.1180
20923W        W25323  19.297   5.226  25.730 -0.1036 -0.1114  0.0564
20924W        W25324   2.842   3.858  19.896  0.0287 -0.1448  0.1097
20925W        W25325   2.588   6.740  19.425  0.1868  0.1054 -0.0511
20926W        W25326   0.812   0.951  25.370 -0.0264 -0.0341 -0.2648
20927W        W25327  17.774   3.674  24.008 -0.2243  0.2585 -0.1492
20928W        W25328  10.298   5.655   4.406  0.3373  0.0595  0.0024
20929W        W25329  16.885   5.313   4.247 -0.0098 -0.0607 -0.0106
20930W        W25330  19.096   3.011  25.997 -0.2388 -0.2695 -0.0357
20931W        W25331   9.437   6.665   6.043  0.0280  0.1247 -0.1215
20932W        W25332   2.075   4.724   4.930 -0.1601  0.0010  0.0912
20933W        W25333   6.662   3.779  24.945  0.2244  0.2790 -0.0027
20934W        W25334  18.418   0.770  32.297 -0.1364 -0.1768  0.2944
20935W        W25335   4.194   1.011  27.070  0.0288 -0.0781 -0.2326
20936W        W25336   7.547   0.335   8.152 -0.1605 -0.0463 -0.4626
20937W        W25337  12.892   6.056  10.083 -0.2766 -0.3594 -0.2243
20938W        W25338  24.911   3.692   3.837 -0.0072 -0.0363  0.1381
20939W        W25339  16.174   7.090  14.177 -0.2303  0.0749 -0.1129
20940W        W25340   3.581   1.093  19.085  0.1123  0.0448 -0.1827
20941W        W25341  24.197   6.987   6.577 -0.3564  0.0254  0.3746
20942W        W25342  19.167   6.461  27.013  0.1083  0.0497  0.1572
20943W        W25343  17.177   0.374   1.998  0.2513  0.0514  0.3034
20944W        W25344  10.157   0.464   4.284  0.0119  0.2189 -0.0260
20945W        W25345   9.430   4.647   6.959 -0.0912  0.3098 -0.1951
20946W        W25346  10.331   7.772  31.432 -0.0028 -0.0279  0.1366
20947W        W25347  13.199   7.392  10.273  0.1275  0.0805  0.2365
20948W        W25348  15.261   6.523   1.365  0.0790  0.1082  0.2938
20949W        W25349  22.739   0.901  32.232  0.0593 -0.3595  0.4078
20950W        W25350   5.829   6.625  14.237 -0.0019 -0.2207  0.3315
20951W        W25351   4.845   6.349  20.872 -0.3151  0.0368 -0.0967
20952W        W25352  15.210   6.524   2.632  0.2570  0.0947 -0.1804
20953W        W25353   9.141   7.226  28.551  0.0438 -0.0623 -0.2486
20954W        W25354   0.562   0.666  24.014 -0.2325 -0.2471 -0.0042
20955W        W25355   8.075   5.872  19.346  0.0043  0.1683 -0.1264
20956W        W25356  15.116   3.158  27.469  0.2129  0.2198  0.0562
20957W        W25357  14.740   0.029  30.902  0.0701 -0.2686  0.1848
20958W        W25358   4.654   5.971  31.450  0.2338  0.1393 -0.1162
20959W        W25359  15.516   7.319   3.747 -0.0956  0.0182  0.0435
20960W        W25360  15.572   0.361   1.044 -0.0339 -0.3587  0.0969
20961W        W25361  17.657   7.401  16.780  0.0153 -0.2300 -0.0459
20962W        W25362   5.887   0.762  22.317 -0.2186 -0.3354 -0.0217
20963W        W25363  17.219   6.292  14.803 -0.3634  0.1764 -0.0011
20964W        W25364  17.954   4.476  30.525  0.0377 -0.0589 -0.1205
20965W        W25365  13.653   4.670   8.017  0.0025  0.0371  0.2040
20966W        W25366   1.534   2.825  30.314 -0.2751 -0.1935  0.1091
20967W        W25367  25.107   2.465  24.684 -0.0280  0.1164  0.0063
20968W        W25368  23.728   7.394  11.879  0.2343  0.0626 -0.0006
20969W        W25369   7.236   7.477  27.099 -0.1152 -0.2105 -0.2293
20970W        W25370  11.409   3.592  11.032  0.2214 -0.0334 -0.0074
20971W        W25371   0.577   4.774  12.939 -0.0804 -0.1419  0.0875
20972W        W25372  20.233   6.128  22.847 -0.0342  0.1489 -0.3443
20973W        W25373  12.021   2.642   0.612  0.1979 -0.0475 -0.0904
20974W        W25374  12.522   2.190  30.878 -0.6693 -0.2154 -0.0286
20975W        W25375  10.045   4.936  30.236  0.2022 -0.1192  0.2651
20976W        W25376   3.487   0.532   8.755 -0.0353 -0.1457 -0.0464
20977W        W25377   6.090   7.724   7.299 -0.1740 -0.1220  0.1312
20978W        W25378   2.587   0.318  10.121  0.1034 -0.1838  0.1449
20979W        W25379  14.892   1.773  26.097 -0.2077  0.1865 -0.1518
20980W        W25380  19.998   6.472   4.122 -0.0410  0.0376  0.2346
20981W        W25381   1.894   0.746  18.992 -0.1875  0.0388 -0.1134
20982W        W25382   5.388   2.246  23.190 -0.1302  0.2940  0.1666
20983W        W25383   6.975   3.098   6.960 -0.0046  0.1270  0.0525
20984W        W25384  18.584   0.214   2.245 -0.0227  0.0205  0.3432
20985W        W25385  16.222   1.664  17.216  0.1008 -0.1210 -0.0724
20986W        W25386  13.407   3.227  29.810 -0.0656  0.2118 -0.0432
20987W        W25387   2.913   0.118  18.436 -0.1874 -0.1085 -0.1408
20988W        W25388  15.825   2.408   1.290 -0.1381 -0.1811 -0.0831
20989W        W25389  16.660   1.200  16.604 -0.2603 -0.0670 -0.1489
20990W        W25390  21.090   3.742  15.656  0.0972 -0.1429 -0.0001
20991W        W25391  12.483   4.496   3.075  0.1610 -0.1704 -0.1295
20992W        W25392   4.089   6.905   1.344  0.0076  0.0073 -0.2120
20993W        W25393   4.707   7.282  16.175  0.0735 -0.1335  0.0852
20994W        W25394  19.383   4.839  16.884  0.0154  0.0762 -0.1867
20995W        W25395  11.262   5.586   4.127  0.0793 -0.1127 -0.4775
20996W        W25396  24.493   6.100  29.880  0.1711  0.2531  0.0777
20997W        W25397  12.280   7.426  21.814 -0.1278  0.0934 -0.2549
20998W        W25398  22.379   1.876  24.547  0.0159 -0.3485  0.2032
20999W        W25399  18.957   3.809   8.073 -0.1073 -0.1676 -0.0011
21000W        W25400  10.724   6.629   0.430 -0.0286 -0.1017  0.0747
21001W        W25401   7.900   5.105  16.287  0.1260  0.5384  0.1175
21002W        W25402  18.831   5.456  27.725  0.0933  0.0367  0.0767
21003W        W25403   5.362   6.202  22.050  0.1769  0.0285  0.0416
21004W        W25404   7.816   1.124   5.446 -0.3130 -0.2802  0.0050
21005W        W25405  11.757   0.899  30.961 -0.1007 -0.0887  0.3124
21006W        W25406   5.365   0.714   2.863  0.1802  0.2391  0.0604
21007W        W25407  16.802   6.216  30.563  0.0163 -0.0124  0.0041
21008W        W25408  16.562   5.150  16.555  0.1165  0.2740 -0.2637
21009W        W25409   2.669   7.134  19.057  0.0075 -0.0315 -0.1391
21010W        W25410  11.353   1.015  25.292 -0.1002 -0.1848 -0.1669
21011W        W25411   9.752   3.197   8.236 -0.0881 -0.1515 -0.2130
21012W        W25412  19.921   4.655  23.061 -0.0959 -0.0161  0.0758
21013W        W25413  22.287   3.713   1.953  0.3105  0.0838  0.0438
21014W        W25414   1.793   0.482  24.324  0.1907 -0.0271  0.1236
21015W        W25415   8.375   1.021  16.678 -0.0353 -0.3778  0.0757
21016W        W25416  20.471   2.817  27.512 -0.3233 -0.2729 -0.0048
21017W        W25417  19.489   3.742  15.361 -0.0087 -0.0999  0.3961
21018W        W25418  12.626   7.363  31.509 -0.1493 -0.0629 -0.0787
21019W        W25419  24.545   0.105  28.322 -0.1727 -0.0393 -0.0432
21020W        W25420  21.022   5.432   8.818  0.0692  0.1019 -0.1544
21021W        W25421  23.310   1.292  11.167  0.1519 -0.2273  0.1208
21022W        W25422  10.481   3.959  23.409 -0.2082  0.3526  0.0691
21023W        W25423  23.687   5.791   1.116 -0.0661  0.0633 -0.1685
21024W        W25424  22.026   6.769   0.240  0.2835 -0.0649  0.1916
21025W        W25425  21.272   0.691  11.740 -0.3350  0.0549 -0.2526
21026W        W25426  15.516   7.835  32.049 -0.0148  0.2865  0.0533
21027W        W25427   7.536   2.331  20.583 -0.2946  0.0350  0.0435
21028W        W25428   6.062   1.029  10.607 -0.0267  0.0886 -0.0262
21029W        W25429  21.537   0.879  27.425  0.0775  0.0543  0.1662
21030W        W25430   3.760   1.285   2.553 -0.0718  0.0780  0.0640
21031W        W25431  12.006   7.151   9.996  0.0416 -0.1770  0.3712
21032W        W25432  24.159   0.272  26.771  0.0442  0.0048  0.1290
21033W        W25433  19.673   1.432  30.779 -0.1263  0.0851  0.1609
21034W        W25434  25.129   4.330  25.552  0.0033 -0.0435 -0.1981
21035W        W25435  16.080   2.615  31.956  0.0033  0.1597 -0.1156
21036W        W25436  24.769   2.228   3.566  0.2139 -0.0594 -0.0719
21037W        W25437  12.439   6.542   4.113  0.0128 -0.0688  0.4990
21038W        W25438  19.576   4.563   3.746  0.2042 -0.1817  0.0613
21039W        W25439   3.792   5.796  26.348 -0.1855 -0.2626 -0.0162
21040W        W25440  23.874   5.142  30.789  0.0099  0.1219 -0.1189
21041W        W25441  17.636   3.074  29.794  0.0259  0.0598 -0.3372
21042W        W25442   5.347   1.237  25.110  0.2576  0.1592  0.1650
21043W        W25443  23.728   0.051  14.807 -0.0358 -0.2064 -0.1625
21044W        W25444   3.729   1.150  32.281 -0.1374  0.0913  0.0117
21045W        W25445   4.385   3.929  19.398  0.1769 -0.0031 -0.1477
21046W        W25446   6.216   7.094   8.657 -0.1466 -0.1337 -0.1491
21047W        W25447  22.971   0.350   9.618  0.1308  0.0274 -0.0036
21048W        W25448   3.702   2.556  17.438 -0.1277 -0.0469  0.0232
21049W        W25449   4.952   4.427   8.586 -0.1477  0.1347 -0.2305
21050W        W25450   0.058   5.626  10.087 -0.0251  0.0544 -0.1479
21051W        W25451  14.061   0.797   8.632 -0.2263  0.2568 -0.3081
21052W        W25452  15.812   1.622  21.499 -0.0775 -0.0215 -0.2679
21053W        W25453   2.998   0.050  17.922  0.2113  0.2126  0.0287
21054W        W25454  19.911   5.665  31.393  0.0042 -0.2216  0.1858
21055W        W25455   2.356   3.769   6.220  0.1851  0.2909 -0.2383
21056W        W25456   9.090   0.279   8.081 -0.1707 -0.2812 -0.0647
21057W        W25457  15.944   1.714   5.426 -0.1159  0.3052  0.1880
21058W        W25458  19.118   4.607  13.232 -0.0146  0.1750 -0.0713
21059W        W25459  15.162   7.215   8.240 -0.5551  0.0504 -0.2193
21060W        W25460  24.997   6.156  26.186 -0.0660 -0.0290  0.1497
21061W        W25461   3.101   3.921   3.747 -0.0139 -0.0662  0.0891
21062W        W25462  13.778   3.321  30.188  0.1627  0.3289 -0.1247
21063W        W25463   4.161   2.435  24.382 -0.1935  0.0696  0.1753
21064W        W25464  23.839   6.416  28.857 -0.0453 -0.1619 -0.0491
21065W        W25465  21.468   7.481  31.661  0.0445 -0.0435 -0.2582
21066W        W25466  13.656   6.865   8.901  0.1744 -0.2056  0.0846
21067W        W25467   1.765   1.597   3.850 -0.3683 -0.4172  0.2049
21068W        W25468  10.687   5.952  23.242 -0.0305 -0.1598  0.1717
21069W        W25469   3.774   7.071   6.549 -0.0147  0.0461  0.1327
21070W        W25470  18.832   1.878   5.262  0.0842 -0.4270  0.0259
21071W        W25471  15.542   7.426  21.449 -0.1341  0.3113  0.1058
21072W        W25472   2.877   3.111  21.766  0.0849 -0.0729  0.0946
21073W        W25473   7.057   4.759  10.450  0.1867  0.0097 -0.2049
21074W        W25474   0.806   5.152  12.654  0.3597  0.0770 -0.2602
21075W        W25475  10.222   3.084   5.096  0.0545  0.1242 -0.0449
21076W        W25476   3.509   7.694   8.280 -0.2805  0.0250  0.0811
21077W        W25477  21.360   0.684   3.385  0.2609  0.1029  0.2086
21078W        W25478   4.034   6.390   8.411  0.2581 -0.4705  0.1234
21079W        W25479  22.097   0.679   0.350  0.1099 -0.0805 -0.1726
21080W        W25480   4.640   2.891   1.624 -0.1481  0.2724 -0.2662
21081W        W25481  16.554   7.575  32.324  0.2044  0.0315 -0.0549
21082W        W25482  22.603   5.594   6.302 -0.0209  0.0436  0.1222
21083W        W25483  16.473   0.855   2.519  0.0577  0.0217  0.1029
21084W        W25484  21.267   4.513  11.447 -0.3657  0.1782  0.1282
21085W        W25485  22.555   0.080  15.409  0.1040  0.2208 -0.0166
21086W        W25486   9.190   4.233   0.153  0.1094  0.1000  0.1324
21087W        W25487   0.720   7.124  31.487 -0.1010  0.2461 -0.1016
21088W        W25488   6.336   2.160   9.840 -0.2082  0.1922  0.0889
21089W        W25489  10.097   6.123  31.042  0.1153 -0.0732  0.0540
21090W        W25490   9.822   4.748   4.562 -0.1564 -0.0919  0.0163
21091W        W25491   1.207   3.250  21.307 -0.0577 -0.3301 -0.0453
21092W        W25492  14.214   1.151  28.891 -0.3878 -0.2294  0.1169
21093W        W25493   7.192   4.064  16.854 -0.6077  0.0107 -0.1118
21094W        W25494   9.103   6.493   6.410 -0.1117  0.2630 -0.0169
21095W        W25495   5.699   0.551   1.424  0.0465  0.0680 -0.0529
21096W        W25496  18.539   6.570  29.671  0.2683  0.0695  0.5372
21097W        W25497   5.129   1.260  20.384 -0.1931 -0.0872 -0.0679
21098W        W25498  10.790   6.114   4.528  0.1919 -0.3718 -0.1201
21099W        W25499  12.901   6.319  31.877 -0.4033  0.2444  0.0104
21100W        W25500   2.568   2.060   3.940 -0.3360 -0.0921  0.1588
21101W        W25501  13.739   0.551   7.683  0.2497  0.2610 -0.1896
21102W        W25502  18.533   7.852   0.125  0.2096 -0.2570  0.0409
21103W        W25503   0.621   2.848   6.299 -0.0975  0.5508  0.1230
21104W        W25504  12.938   3.471  22.904 -0.2210  0.0730  0.0062
21105W        W25505   7.035   3.385   1.217 -0.3779  0.1498  0.1073
21106W        W25506  20.472   7.760  27.954 -0.0536 -0.1541  0.0830
21107W        W25507  17.727   2.360  15.487 -0.0321  0.1464 -0.1345
21108W        W25508   6.733   0.455  22.917  0.0746  0.0341 -0.0512
21109W        W25509  24.921   5.673  20.130 -0.1846  0.0828  0.0059
21110W        W25510  24.105   2.542   6.535 -0.0096  0.1337  0.0808
21111W        W25511  18.082   3.736  16.654 -0.3451  0.1433 -0.2055
21112W        W25512   6.687   3.303  30.274  0.2043 -0.0751 -0.4405
21113W        W25513   6.877   1.391  10.229 -0.2333 -0.0991 -0.2854
21114W        W25514   1.715   1.319   6.815  0.0068  0.1810 -0.0355
21115W        W25515  19.062   5.562   9.179  0.1338 -0.1240  0.1703
21116W        W25516  19.911   3.892  28.179  0.1412 -0.1560  0.2769
21117W        W25517  21.656   1.137  15.334  0.1889 -0.2465 -0.0038
21118W        W25518   8.949   2.697   9.235  0.0773  0.1146 -0.2087
21119W        W25519  18.383   7.544  13.174 -0.2842 -0.2385  0.0286
21120W        W25520  15.430   4.489  30.976  0.0273 -0.1331  0.4526
21121W        W25521   5.424   5.971   7.709  0.2783 -0.0225  0.0179
21122W        W25522  11.031   3.259  23.606 -0.0555 -0.2942 -0.0698
21123W        W25523  15.041   4.112  14.565 -0.0236  0.0371 -0.2303
21124W        W25524   4.123   1.943   0.783  0.0187 -0.1309  0.0884
21125W        W25525  20.241   3.493   5.562 -0.1273  0.0532  0.0499
21126W        W25526  16.944   0.891  27.614 -0.0594  0.2989  0.1740
21127W        W25527  24.064   0.609   4.997  0.2072 -0.1787  0.0383
21128W        W25528   2.049   0.817  11.778  0.2472  0.0425  0.0929
21129W        W25529   5.869   6.873  20.209  0.0062  0.0155 -0.0046
21130W        W25530   8.154   5.948  22.549 -0.0175  0.2804  0.1639
21131W        W25531   9.547   5.767  19.031 -0.1548 -0.0472 -0.2396
21132W        W25532   4.637   3.859  31.734 -0.0016  0.1011 -0.1875
21133W        W25533   9.688   4.918   6.179 -0.0039  0.2680  0.2569
21134W        W25534   5.649   2.094  26.080  0.1397  0.4229  0.0652
21135W        W25535  10.614   3.172   8.136 -0.1111 -0.3820  0.1941
21136W        W25536  21.523   1.701  14.184  0.2488  0.1028 -0.2247
21137W        W25537   3.847   3.763  27.117 -0.0048 -0.2538 -0.0989
21138W        W25538  11.906   2.595  19.904 -0.2595  0.1531  0.3358
21139W        W25539  20.725   1.226  17.836 -0.0577  0.0356  0.0654
21140W        W25540   5.550   7.304  18.530  0.1988  0.1974  0.2077
21141W        W25541   0.531   4.306  21.455 -0.2052  0.2735 -0.1293
21142W        W25542   0.020   0.922  12.084  0.1521  0.0145 -0.1829
21143W        W25543  16.793   0.233  15.628  0.1606 -0.0046 -0.0028
21144W        W25544   5.222   7.761  24.117  0.4024 -0.0329  0.0170
21145W        W25545  24.093   3.394   3.249 -0.1670  0.2019 -0.2989
21146W        W25546  16.721   2.866   0.571  0.1918 -0.0331  0.2865
21147W        W25547  10.265   3.471  23.566  0.0809 -0.0333 -0.0310
21148W        W25548  11.641   1.591   1.966 -0.0470 -0.0464 -0.1114
21149W        W25549   9.202   2.494   0.640  0.0129 -0.2212 -0.4000
21150W        W25550   0.942   0.867  24.832 -0.0777  0.1684  0.0474
21151W        W25551  21.747   2.284  10.971  0.2474  0.2024 -0.1030
21152W        W25552  14.233   6.994  27.259 -0.1162  0.0443  0.2130
21153W        W25553  12.141   2.900  30.536 -0.1066 -0.2876 -0.1153
21154W        W25554  14.838   1.881  11.586  0.0264  0.1171  0.0296
21155W        W25555   7.923   1.644   4.685 -0.4375  0.1269 -0.0257
21156W        W25556   1.790   0.582  10.310 -0.0380  0.0198 -0.0827
21157W        W25557   4.180   6.032   3.048  0.0412 -0.1104 -0.0361
21158W        W25558   5.492   6.114   4.502 -0.1131  0.0885  0.0049
21159W        W25559  12.022   0.680  26.253  0.2453 -0.0727  0.0441
21160W        W25560  19.453   1.894  29.917 -0.2600 -0.1602 -0.0027
21161W        W25561   0.897   2.323   1.804 -0.1043 -0.1936  0.1458
21162W        W25562  21.581   5.106  10.322 -0.0769  0.1348 -0.0879
21163W        W25563  19.304   0.425   6.887 -0.0948 -0.1201  0.0352
21164W        W25564  20.823   2.504   2.787  0.1914  0.0494  0.0117
21165W        W25565   1.763   3.862  29.146 -0.2739 -0.0757  0.2887
21166W        W25566  11.897   6.491  23.699  0.2748  0.0833  0.0996
21167W        W25567  12.640   7.312   5.862  0.0378 -0.3570 -0.3282
21168W        W25568   5.507   4.912  29.146 -0.2041  0.0039  0.0486
21169W        W25569  12.366   5.544   8.473  0.0720  0.0131  0.2700
21170W        W25570  24.022   5.565   0.829  0.2106 -0.0630 -0.0482
21171W        W25571  24.291   7.743   1.436 -0.0972  0.0180  0.0442
21172W        W25572   1.357   4.068   2.641  0.0905  0.0751 -0.1259
21173W        W25573  16.822   2.138   1.961  0.1350  0.3493 -0.0318
21174W        W25574   3.673   1.815   2.625 -0.0176 -0.1836  0.1230
21175W        W25575  17.530   1.059  30.244 -0.2222  0.0553 -0.0446
21176W        W25576  22.560   7.579   9.207  0.0204  0.1558  0.0072
21177W        W25577   9.276   7.394  20.572 -0.0717 -0.0542  0.4978
21178W        W25578  14.131   4.393  13.259  0.0019  0.1586 -0.1604
21179W        W25579  13.536   6.339   5.266 -0.0410  0.1008  0.3923
21180W        W25580   3.461   6.857  20.545 -0.0699 -0.1575 -0.1985
21181W        W25581   7.105   0.036  30.076 -0.2034  0.0001  0.1068
21182W        W25582  21.158   3.623  26.551  0.0593 -0.0394  0.1608
21183W        W25583  18.658   5.451   6.045  0.0572 -0.0785  0.1117
21184W        W25584   2.155   4.334   9.850  0.0224 -0.1193 -0.1196
21185W        W25585  17.388   2.918  31.874 -0.2044  0.0641  0.1920
21186W        W25586  20.431   3.206   5.991 -0.4401  0.1293  0.5142
21187W        W25587  19.473   3.146  13.560  0.1486  0.1203 -0.0876
21188W        W25588  11.094   6.919   0.212  0.0033 -0.2767  0.1723
21189W        W25589  19.527   6.371  15.603 -0.2379 -0.0821  0.0118
21190W        W25590  17.282   2.817  17.974  0.1010 -0.1684  0.1007
21191W        W25591   0.302   6.051  26.922 -0.0519  0.0703  0.1471
21192W        W25592   1.636   4.480  10.030  0.2273 -0.3719 -0.3366
21193W        W25593  10.840   2.696  22.720  0.1930 -0.1245  0.0858
21194W        W25594   2.410   0.533  26.877  0.1578  0.1537 -0.1110
21195W        W25595  22.606   1.815   7.072 -0.0363  0.2265 -0.1640
21196W        W25596  23.913   0.201  20.490  0.0594 -0.1215 -0.4610
21197W        W25597  17.823   0.454  16.717  0.2751 -0.0314  0.3266
21198W        W25598  21.010   1.075   9.057  0.1291 -0.0251 -0.0743
21199W        W25599  18.940   2.120  12.100 -0.0250  0.3817  0.2354
21200W        W25600   4.160   0.343  16.970  0.0608 -0.0804 -0.0093
21201W        W25601  11.931   3.306  19.711 -0.1510  0.1143  0.0935
21202W        W25602  24.644   0.122  22.726 -0.1081 -0.1336 -0.1159
21203W        W25603  21.254   7.419  27.419 -0.2893 -0.0002  0.1350
21204W        W25604  10.149   5.465  26.599  0.1605  0.2497  0.4103
21205W        W25605  18.103   5.575  17.915 -0.0732 -0.2581  0.1163
21206W        W25606  24.227   2.920  23.229  0.0868 -0.0257  0.1491
21207W        W25607  13.145   5.715   5.508  0.1089  0.0956  0.0683
21208W        W25608  22.911   7.625  13.706 -0.2031 -0.0837 -0.0707
21209W        W25609   7.069   2.719   7.723  0.1837 -0.0478  0.1505
21210W        W25610  23.225   5.476  29.586 -0.0204 -0.3128  0.4298
21211W        W25611  24.929   0.525  12.314  0.0343 -0.1257  0.0300
21212W        W25612   4.006   6.956  19.395 -0.1773 -0.0193 -0.1042
21213W        W25613   1.088   4.711  19.666  0.3833 -0.3777 -0.0082
21214W        W25614   9.253   5.657   0.092 -0.4308 -0.1028 -0.2379
21215W        W25615  12.432   3.720  11.335 -0.1513 -0.1592  0.1762
21216W        W25616   9.142   1.763  17.061  0.0801 -0.2487  0.1207
21217W        W25617  22.639   0.548  25.974 -0.2071  0.1801 -0.1506
21218W        W25618  21.889   6.564  14.052  0.1141 -0.2010  0.0753
21219W        W25619   7.902   3.069  27.922 -0.0488  0.1335 -0.0070
21220W        W25620   6.667   7.707  27.534 -0.0364 -0.3665 -0.0789
21221W        W25621  22.873   3.947  13.391  0.1125  0.1187 -0.3417
21222W        W25622  21.022   1.243  11.697 -0.2074 -0.0494  0.3315
21223W        W25623  14.919   5.910   8.645 -0.2048 -0.0419 -0.0478
21224W        W25624  20.111   2.496  28.439 -0.0240 -0.2156 -0.2706
21225W        W25625  18.200   7.457   2.761  0.3660  0.2570 -0.1937
21226W        W25626   2.152   1.912   2.635  0.0620  0.1127  0.2861
21227W        W25627  22.524   1.479  12.769 -0.1077  0.0615 -0.1629
21228W        W25628   4.733   0.565  25.845  0.1359 -0.0676  0.1038
21229W        W25629  12.408   7.795   8.599 -0.0391  0.0884 -0.2296
21230W        W25630  22.912   1.000  24.768  0.0593 -0.2487 -0.1209
21231W        W25631   0.704   3.055   1.930 -0.1678  0.2800  0.2604
21232W        W25632   3.424   0.690  24.044  0.1218  0.0568  0.5543
21233W        W25633  19.013   7.572   5.759  0.1593 -0.0055 -0.0669
21234W        W25634   4.491   5.346   9.025  0.0155  0.0422  0.2206
21235W        W25635  18.406   1.980  11.459  0.1757 -0.3592 -0.0824
21236W        W25636   2.823   0.016   9.437  0.2670 -0.2740  0.0895
21237W        W25637  22.810   5.227  29.788 -0.0580 -0.1365  0.1967
21238W        W25638  17.388   4.744  27.644  0.2484  0.0378 -0.1098
21239W        W25639  22.392   6.398  25.831 -0.1546 -0.0355  0.0419
21240W        W25640   5.024   2.033  15.390 -0.0496 -0.0981 -0.2318
21241W        W25641  13.226   4.651  12.471 -0.0477 -0.0872  0.3683
21242W        W25642   7.841   1.345  16.002  0.0248  0.0502  0.1695
21243W        W25643  14.042   6.292   4.804  0.0578  0.1471  0.0605
21244W        W25644   3.841   3.365  21.783 -0.0412 -0.3326 -0.2152
21245W        W25645  14.125   2.653   9.358 -0.0762  0.2890 -0.2982
21246W        W25646  17.309   5.098   9.794  0.0277  0.3201  0.2806
21247W        W25647   4.143   4.262   7.477  0.0108 -0.4546  0.0256
21248W        W25648  16.263   7.272   6.884 -0.1241 -0.0311 -0.3382
21249W        W25649  10.290   0.133  30.797 -0.1715 -0.2324  0.0737
21250W        W25650   7.023   5.819  15.153  0.2006 -0.2263  0.2663
21251W        W25651   5.718   7.782  24.233 -0.0233  0.0450  0.0072
21252W        W25652  19.162   3.854  17.901 -0.0531 -0.0853  0.1702
21253W        W25653   2.284   4.231  22.654  0.1788  0.2260 -0.1134
21254W        W25654   5.835   1.774   1.218  0.1706  0.3276 -0.4463
21255W        W25655  23.267   0.343  28.501  0.2304 -0.2021 -0.1150
21256W        W25656  14.232   7.194   1.266  0.2118  0.0885 -0.0888
21257W        W25657  20.415   5.537  24.829 -0.0095 -0.0728 -0.1584
21258W        W25658  14.206   7.526  26.161  0.2139  0.0055 -0.0166
21259W        W25659   8.210   0.280   2.439  0.1279  0.1470 -0.1729
21260W        W25660  13.380   7.515  21.250 -0.1046 -0.2539 -0.0174
21261W        W25661   2.386   7.322   1.354  0.0684  0.0926  0.0200
21262W        W25662  15.380   7.802   7.484 -0.0633 -0.1219  0.0318
21263W        W25663   4.546   5.120  22.364 -0.2510 -0.0800  0.1195
21264W        W25664   4.795   5.119  23.941 -0.0960 -0.0820  0.2337
21265W        W25665  12.168   3.309  21.735  0.1393 -0.1795  0.2042
21266W        W25666   5.811   5.540   6.265  0.1765 -0.2418  0.0559
21267W        W25667  12.592   6.236  30.439  0.2427  0.1146  0.0729
21268W        W25668   6.217   7.364  18.946 -0.0075 -0.2141 -0.2378
21269W        W25669  17.271   1.940   6.185  0.3098  0.3460  0.0742
21270W        W25670   9.623   6.563  16.655 -0.0595 -0.1818 -0.1098
21271W        W25671  11.972   5.172  20.325  0.0317 -0.0091  0.1281
21272W        W25672  19.951   0.612  24.538  0.2066 -0.1808 -0.1833
21273W        W25673   4.895   2.004  20.620 -0.0214 -0.0889 -0.1013
21274W        W25674   2.245   4.954  31.956  0.1155  0.0294 -0.0140
21275W        W25675   6.671   1.321  27.682  0.1685  0.0859  0.0815
21276W        W25676  13.302   5.316  12.275  0.2715  0.0126 -0.2807
21277W        W25677   7.689   1.349  16.961  0.1011  0.1829  0.0949
21278W        W25678   6.730   1.647  18.171 -0.1136 -0.1093 -0.0938
21279W        W25679   6.317   1.184  21.516  0.0637 -0.3608 -0.0126
21280W        W25680  18.072   4.737  27.863  0.1996 -0.1240  0.0208
21281W        W25681   6.033   7.272  15.809  0.2157 -0.0720  0.0723
21282W        W25682   9.029   5.345  27.712 -0.1934  0.1699  0.0581
21283W        W25683  14.765   6.017  30.063 -0.1110 -0.0281  0.2197
21284W        W25684  21.438   2.863  27.205 -0.1030 -0.0142  0.0065
21285W        W25685  22.736   1.083   5.042 -0.0317 -0.0589  0.1982
21286W        W25686  23.733   0.684  24.071 -0.1542  0.2417  0.0756
21287W        W25687  12.533   3.762   6.084 -0.1646 -0.0794  0.2698
21288W        W25688   6.782   3.507  23.527 -0.2081  0.0058 -0.0542
21289W        W25689  21.584   7.653  28.346 -0.0994 -0.3294  0.1773
21290W        W25690  24.757   1.774   9.536 -0.5590  0.2488  0.2375
21291W        W25691  21.745   3.715   3.659 -0.1827  0.0501  0.3482
21292W        W25692  23.122   2.857   9.442 -0.1033 -0.0024  0.0284
21293W        W25693   3.314   0.937   9.289  0.2249 -0.0790 -0.0063
21294W        W25694   4.489   6.885   5.818  0.0475 -0.5032 -0.3293
21295W        W25695   1.104   7.763   9.979 -0.1703  0.1129  0.1005
21296W        W25696   1.906   3.576  27.164  0.0295  0.0982 -0.3154
21297W        W25697   6.602   4.800   4.248 -0.2860 -0.2156 -0.0228
21298W        W25698  20.365   6.758  25.396  0.1810  0.1441  0.0065
21299W        W25699   8.428   3.866  19.346 -0.1270 -0.3104  0.0710
21300W        W25700  15.312   3.649  23.272  0.1929 -0.0516  0.1605
21301W        W25701  19.754   7.539  25.173  0.2722  0.2178 -0.1571
21302W        W25702   7.725   1.244   3.347  0.0542 -0.0807  0.1428
21303W        W25703  12.636   7.279  22.227  0.0929 -0.2243 -0.1114
21304W        W25704  16.250   1.075  15.890 -0.1291  0.0128  0.2957
21305W        W25705   3.647   3.326   1.515  0.0331  0.0907  0.1454
21306W        W25706  10.089   7.365  18.510  0.3488  0.0628 -0.3322
21307W        W25707   1.206   6.106  28.365 -0.1710 -0.1174 -0.2165
21308W        W25708  16.792   1.702  23.415 -0.0386  0.5213 -0.1832
21309W        W25709  23.665   5.153  22.898  0.0841  0.2795 -0.0455
21310W        W25710   7.095   2.084  16.603  0.0215 -0.0128  0.1823
21311W        W25711  11.434   4.299  18.693  0.1316 -0.0095  0.1031
21312W        W25712  24.076   7.639  31.299 -0.0142  0.3080  0.1420
21313W        W25713   3.954   4.974  16.156  0.0846 -0.0675 -0.5445
21314W        W25714   3.795   2.529  31.180  0.0627 -0.4004  0.2407
21315W        W25715  16.275   1.823  24.552 -0.0517 -0.0524  0.2825
21316W        W25716   8.942   2.203  25.586  0.2868 -0.5480  0.0495
21317W        W25717   4.969   5.228   5.358  0.2608  0.1638 -0.1755
21318W        W25718   4.714   3.258   6.870  0.0881  0.0356 -0.1090
21319W        W25719  18.450   2.114   9.596 -0.1277  0.1615  0.2466
21320W        W25720   0.918   0.184   3.427  0.1782 -0.1835  0.0148
21321W        W25721  12.017   2.931  31.885 -0.1433 -0.0959  0.0630
21322W        W25722  20.594   7.267  30.061  0.1894  0.3765 -0.0224
21323W        W25723  10.726   5.182   7.269 -0.2094 -0.1277 -0.0428
21324W        W25724  21.821   0.981   8.529 -0.2377 -0.0848 -0.0531
21325W        W25725  11.025   1.329   2.621  0.2023 -0.0008  0.3392
21326W        W25726   8.095   5.622  24.904  0.1879  0.1725 -0.3424
21327W        W25727   0.627   1.431  18.710 -0.0432  0.1261 -0.1013
21328W        W25728  16.658   4.714  30.754  0.0208 -0.0890  0.0282
21329W        W25729  14.239   6.293  29.527 -0.1457 -0.1760  0.2461
21330W        W25730   5.683   3.325  20.559  0.2905 -0.0811 -0.3322
21331W        W25731   7.255   4.802  18.229  0.1380  0.0493 -0.1426
21332W        W25732   5.628   5.208  20.543 -0.1625 -0.0286 -0.2809
21333W        W25733  13.054   3.908   8.948  0.3414 -0.2120  0.3335
21334W        W25734   6.293   0.385  25.451  0.0767 -0.1918 -0.0475
21335W        W25735  20.122   7.674   2.705  0.0609 -0.0830 -0.1373
21336W        W25736  16.716   6.378   0.967  0.0262  0.2067  0.0601
21337W        W25737   0.701   4.732   3.672 -0.0171 -0.1793 -0.0784
21338W        W25738   5.034   5.205  15.012  0.0533 -0.2235  0.0677
21339W        W25739  15.838   0.821  29.648  0.0564  0.0493  0.3198
21340W        W25740  17.137   1.999  14.627 -0.0560 -0.0808 -0.0677
21341W        W25741   4.475   7.538  32.363 -0.0572 -0.1719  0.0634
21342W        W25742   8.453   6.653  17.353 -0.0179  0.3616  0.0418
21343W        W25743  20.403   7.096   8.808  0.1160 -0.0915 -0.1155
21344W        W25744   6.147   6.185  29.584  0.0194 -0.0086  0.0107
21345W        W25745  22.109   3.816  12.844  0.2517  0.0586 -0.2834
21346W        W25746  14.866   4.133   2.491  0.2189 -0.2137  0.0785
21347W        W25747  24.958   0.043  22.100 -0.0162  0.3025  0.2454
21348W        W25748  16.869   3.871   6.441  0.2132 -0.2314 -0.2146
21349W        W25749  16.115   5.304   7.037  0.6083  0.0212  0.0441
21350W        W25750   9.872   4.858  18.859 -0.1956 -0.0099  0.1015
21351W        W25751  15.115   2.241  30.362 -0.0589 -0.0409 -0.2629
21352W        W25752  11.153   2.291   9.779 -0.2661  0.0474 -0.1786
21353W        W25753   6.178   2.415  32.320 -0.2613 -0.2861 -0.2256
21354W        W25754  19.888   5.181  31.807  0.1692 -0.0243  0.0041
21355W        W25755  11.885   0.735  23.233 -0.1191  0.1071 -0.0971
21356W        W25756  21.365   6.760  11.398  0.2296 -0.1371 -0.0269
21357W        W25757  15.401   0.302  32.384  0.3109  0.0797 -0.0167
21358W        W25758  12.776   0.506   1.259  0.0717  0.0752 -0.4632
21359W        W25759   9.556   5.113   7.163  0.2188 -0.5474  0.1796
21360W        W25760  17.245   1.680  32.244 -0.0924 -0.0375  0.1492
21361W        W25761  23.166   7.179  26.286  0.1915 -0.1239 -0.0657
21362W        W25762   6.524   6.465  15.715 -0.0129 -0.0924  0.0878
21363W        W25763  16.067   0.813   0.339 -0.1318  0.2187 -0.1641
21364W        W25764  20.393   7.367  15.685 -0.2246  0.4188 -0.1800
21365W        W25765   4.502   6.829  23.230  0.1228  0.1313 -0.3751
21366W        W25766  17.979   0.659  27.294 -0.0082 -0.0078 -0.3661
21367W        W25767  17.239   0.501   2.532  0.1221 -0.0919 -0.0240
21368W        W25768   5.767   1.753   0.257  0.3002 -0.1963  0.1602
21369W        W25769  17.902   7.390  23.350  0.0446  0.0919 -0.2317
21370W        W25770  15.181   7.547   2.800 -0.1545  0.0842 -0.0588
21371W        W25771  11.511   7.181   5.577  0.2032 -0.3548 -0.0058
21372W        W25772  14.366   2.338  22.055  0.2233 -0.1517  0.2238
21373W        W25773  15.721   3.303  12.343 -0.1600 -0.0634 -0.0952
21374W        W25774   9.831   1.062  23.324 -0.1434 -0.0349 -0.1753
21375W        W25775  25.097   7.377  10.560  0.1064 -0.0580  0.5518
21376W        W25776   1.728   3.531   1.897  0.1338 -0.1697 -0.0148
21377W        W25777   4.460   2.482  31.106 -0.1932 -0.0657  0.1682
21378W        W25778   2.121   0.132  10.350  0.1658  0.1257  0.3216
21379W        W25779  13.671   2.734   1.723 -0.1620  0.0865  0.0268
21380W        W25780  23.787   7.812  12.766  0.1307 -0.0867  0.0206
21381W        W25781  25.012   1.932  20.203 -0.2445  0.1136 -0.0090
21382W        W25782   7.368   4.656  31.980 -0.1725  0.2617 -0.0418
21383W        W25783  13.889   7.578  25.312 -0.0151  0.1092  0.0818
21384W        W25784  11.245   0.376  30.807 -0.1798 -0.1135 -0.0403
21385W        W25785   4.203   0.617   1.057 -0.0663 -0.0217 -0.0027
21386W        W25786  14.910   2.796  15.378 -0.0276  0.2206 -0.0344
21387W        W25787  22.544   1.213   6.266  0.1572  0.0049  0.1014
21388W        W25788   5.316   5.465   7.815 -0.1898  0.0145 -0.1066
21389W        W25789  23.335   4.260  13.006  0.0741  0.0566  0.1655
21390W        W25790  10.530   6.615  19.682 -0.1891  0.0246  0.4271
21391W        W25791   4.094   1.306  25.063 -0.2098  0.2208  0.0435
21392W        W25792   6.538   2.252  29.357 -0.2161 -0.1955 -0.0741
21393W        W25793  10.316   3.101   2.467 -0.0472 -0.0308 -0.2285
21394W        W25794   2.919   1.818   7.658 -0.0261 -0.1950 -0.0161
21395W        W25795   2.510   6.393   8.227  0.0308 -0.2665  0.2903
21396W        W25796   7.088   0.605  27.342  0.3505  0.0296  0.0319
21397W        W25797  24.465   2.944  28.956  0.0738  0.0734  0.0833
21398W        W25798   0.930   2.237   7.857  0.3345 -0.1612  0.4866
21399W        W25799  24.171   0.991  30.464 -0.1969 -0.2210 -0.2402
21400W        W25800  15.399   1.774   2.790  0.1701  0.0994 -0.0747
21401W        W25801   4.579   5.266   2.514 -0.0786 -0.1148 -0.4005
21402W        W25802  20.496   2.795  14.334 -0.0821 -0.3072 -0.1365
21403W        W25803   9.683   5.737   3.906  0.1776  0.2227  0.1338
21404W        W25804  20.942   2.925  11.864  0.0299 -0.2041 -0.1780
21405W        W25805   8.999   6.161  15.898 -0.0212  0.2275 -0.3621
21406W        W25806  10.624   1.361   9.971 -0.2872  0.0236 -0.2411
21407W        W25807  22.810   4.151  12.925  0.0344 -0.1781 -0.0683
21408W        W25808   4.345   2.939   7.261 -0.1780  0.3583 -0.2088
21409W        W25809  23.977   5.094   1.084  0.1094  0.0155  0.1519
21410W        W25810  16.966   7.042  27.280 -0.0799 -0.1008 -0.3264
21411W        W25811  13.149   5.483   0.909 -0.0415  0.0394 -0.1002
21412W        W25812   0.352   3.940  22.824 -0.1269 -0.0216 -0.0143
21413W        W25813  15.393   6.103  10.938  0.0363 -0.2463 -0.1340
21414W        W25814  18.592   3.063  14.562  0.1440  0.0617  0.0529
21415W        W25815   9.991   3.364   0.041  0.1865 -0.2534 -0.1030
21416W        W25816  16.500   4.946  26.784 -0.3667  0.0206  0.1099
21417W        W25817   3.685   3.697   3.766  0.2131 -0.0732  0.1235
21418W        W25818   0.553   0.927   1.607  0.1902  0.1320 -0.0802
21419W        W25819   1.999   6.770   2.819 -0.0715 -0.1352  0.0671
21420W        W25820   5.952   5.393  19.507  0.1357  0.4027 -0.2174
21421W        W25821  16.843   0.903  29.766  0.1151  0.3941  0.3015
21422W        W25822  16.806   4.719  25.810  0.0303  0.1407 -0.0584
21423W        W25823  20.223   3.115   8.317 -0.0518 -0.3386 -0.0843
21424W        W25824   1.525   7.162  22.452 -0.2055  0.0366  0.2858
21425W        W25825   4.964   4.920  29.143 -0.3155 -0.2222 -0.0585
21426W        W25826   7.712   3.438  26.603  0.0577  0.2451  0.1673
21427W        W25827  12.701   0.596   9.391  0.1731  0.2936 -0.1758
21428W        W25828  14.610   1.653  10.824 -0.1660 -0.2738 -0.0173
21429W        W25829  25.124   0.053  22.961 -0.0578 -0.1270  0.2546
21430W        W25830  16.065   5.043  13.555  0.1891  0.0208 -0.1213
21431W        W25831   6.713   3.171  30.761  0.1029 -0.0287  0.0151
21432W        W25832  14.648   2.368  24.984 -0.1572 -0.0118 -0.2413
21433W        W25833  18.548   7.585  25.621  0.0109 -0.1431  0.2024
21434W        W25834  14.006   7.556   5.238 -0.1592  0.1849 -0.2335
21435W        W25835  21.100   2.806  16.386  0.0221  0.0273  0.0770
21436W        W25836  14.201   3.591   3.421  0.0621  0.1015 -0.0398
21437W        W25837  22.957   2.055  21.116  0.1482  0.1891  0.1758
21438W        W25838   8.898   5.275  28.151 -0.0509 -0.0678  0.1101
21439W        W25839  18.836   6.229  17.660  0.0185  0.4753 -0.1361
21440W        W25840   3.291   2.782  32.396 -0.0313  0.1179  0.0745
21441W        W25841  16.797   3.352   4.401  0.0137 -0.0258 -0.3050
21442W        W25842   4.456   4.085  10.293 -0.2537 -0.1041 -0.3936
21443W        W25843   7.413   4.153   8.259 -0.1138  0.1703  0.1718
21444W        W25844  11.368   6.221   6.251 -0.0925  0.0869 -0.2221
21445W        W25845  18.049   2.638   3.140 -0.1347 -0.0836 -0.1576
21446W        W25846  21.666   3.141  25.059 -0.0801  0.0335 -0.0029
21447W        W25847  14.186   6.340  10.571  0.0046 -0.1617 -0.0461
21448W        W25848   4.909   4.640  29.746 -0.2013  0.0344 -0.1483
21449W        W25849  15.166   2.231  21.630 -0.1902  0.1687 -0.0975
21450W        W25850   7.695   7.395  16.986 -0.0324  0.0716 -0.2573
21451W        W25851  24.572   0.886   8.869  0.0601 -0.4477  0.0878
21452W        W25852   7.562   4.252   1.796  0.0747 -0.0336 -0.3536
21453W        W25853  10.785   0.140   7.443 -0.1247 -0.2291 -0.3552
21454W        W25854  22.544   2.867  29.104  0.1159  0.0297  0.0357
21455W        W25855   7.591   6.982   8.872 -0.0712  0.0299  0.2072
21456W        W25856   2.362   2.852  23.656  0.1318 -0.3844 -0.0234
21457W        W25857  19.471   4.953   0.456  0.2130  0.0379 -0.1552
21458W        W25858   4.703   7.178   9.483 -0.0567  0.0199 -0.1252
21459W        W25859  13.279   6.898  27.837  0.0703  0.1159  0.1262
21460W        W25860  15.085   1.256   0.554  0.1180  0.0834 -0.2194
21461W        W25861  22.497   5.984  12.309  0.0614 -0.1535 -0.2493
21462W        W25862  23.352   0.794  27.105 -0.0594  0.0358  0.0024
21463W        W25863  20.384   2.539  30.346 -0.0837  0.1715  0.1744
21464W        W25864  21.824   4.338  15.880  0.5192  0.2269  0.0845
21465W        W25865  12.249   4.022   3.889 -0.2118  0.2203  0.2209
21466W        W25866  24.573   7.818  10.529 -0.0112  0.2551 -0.1035
21467W        W25867   9.784   6.593  18.047 -0.1714 -0.0058 -0.2494
21468W        W25868  14.421   3.211  24.620 -0.2632 -0.1909  0.1161
21469W        W25869   5.606   2.485   1.430  0.0899 -0.3405  0.1169
21470W        W25870  14.432   5.442   6.518  0.3670  0.2158  0.1354
21471W        W25871   8.183   2.114  29.762  0.0911  0.0084 -0.1608
21472W        W25872  19.204   3.733  14.455  0.2165  0.4037  0.2319
21473W        W25873  14.637   1.458   3.497  0.1236  0.1412 -0.0901
21474W        W25874  10.716   5.060  31.289  0.1987 -0.0802 -0.0579
21475W        W25875  24.470   3.306   9.260  0.0932 -0.0646 -0.1830
21476W        W25876  19.185   5.816   4.335 -0.0276 -0.1009 -0.1618
21477W        W25877   4.034   0.904  29.532 -0.2818 -0.1492 -0.1700
21478W        W25878  20.640   4.336   3.807 -0.1749  0.3249 -0.4574
21479W        W25879  20.447   1.235   8.635 -0.0222 -0.0529  0.1504
21480W        W25880   6.408   0.932  30.548  0.0358 -0.1181 -0.1172
21481W        W25881  20.782   2.219   7.622 -0.0948  0.0194 -0.2965
21482W        W25882  16.021   6.007   8.766  0.0707 -0.0239  0.2761
21483W        W25883  18.963   7.541   4.400  0.1743 -0.3697 -0.1338
21484W        W25884   9.503   7.658  27.171  0.0624  0.1238 -0.4090
21485W        W25885   5.457   3.196   8.111 -0.1992 -0.2993 -0.0204
21486W        W25886   9.350   3.304  29.988  0.2606 -0.1418  0.2439
21487W        W25887  20.830   0.715  17.746  0.0711  0.0553  0.1340
21488W        W25888  22.895   3.653   9.131  0.3914  0.1348 -0.0708
21489W        W25889  18.464   0.116   1.712  0.0659 -0.1380 -0.2189
21490W        W25890  20.205   3.486   3.679 -0.0896 -0.1210  0.1261
21491W        W25891   8.017   5.164  25.267 -0.2822  0.0359 -0.1269
21492W        W25892  24.132   4.113  29.358  0.0036  0.0596  0.2268
21493W        W25893  16.783   2.206  17.517  0.3054 -0.3027  0.4987
21494W        W25894  14.561   3.371   8.743  0.1697 -0.0619  0.1568
21495W        W25895   4.289   5.085  29.997 -0.0283 -0.0639 -0.0338
21496W        W25896  23.244   1.737  30.195 -0.0524 -0.1015 -0.1456
21497W        W25897  20.720   6.992   2.081  0.0302  0.3495 -0.0018
21498W        W25898   7.721   7.547  26.684 -0.1804  0.2090  0.1258
21499W        W25899   8.700   5.599   7.628 -0.0173  0.1388  0.1334
21500W        W25900  16.390   2.885  28.279  0.0266  0.1491  0.4087
21501W        W25901  23.641   4.176  11.153  0.2100 -0.1012 -0.1504
21502W        W25902   3.590   5.989   9.286 -0.0004  0.0950  0.0509
21503W        W25903   0.986   0.227  21.652  0.2284 -0.1254 -0.0221
21504W        W25904  21.996   1.715  30.796  0.1950  0.2108 -0.1781
21505W        W25905  13.169   3.725  10.386  0.0146 -0.1302  0.3792
21506W        W25906  13.452   6.929  10.334 -0.0767 -0.0249  0.1688
21507W        W25907  22.550   6.761  29.958 -0.0134 -0.2030 -0.0231
21508W        W25908   9.182   3.662  31.032 -0.0193 -0.0425  0.1477
21509W        W25909  10.563   5.941  25.425 -0.0738 -0.3564 -0.1103
21510W        W25910   6.485   7.199   3.543 -0.0272 -0.1779  0.0553
21511W        W25911  13.783   4.089   7.098 -0.2457 -0.2541 -0.3551
21512W        W25912  20.859   6.307   1.331 -0.2426 -0.1255  0.0038
21513W        W25913   2.237   5.683   9.485  0.2590  0.0996  0.0931
21514W        W25914  14.055   4.386  22.926 -0.1718 -0.1236  0.0398
21515W        W25915  14.583   3.267  27.419 -0.1846 -0.3714  0.1290
21516W        W25916  15.000   1.399   7.888  0.1517  0.1535 -0.1886
21517W        W25917   0.569   2.196   4.478  0.0989  0.1381  0.0131
21518W        W25918   7.546   5.769   3.756 -0.2863  0.1136  0.1370
21519W        W25919   2.454   1.220  24.630 -0.0873 -0.1392 -0.4354
21520W        W25920  16.731   0.356  27.688 -0.1244  0.1230 -0.3440
21521W        W25921  18.882   4.164  26.506 -0.1527  0.1416  0.2856
21522W        W25922  24.984   0.279  31.467 -0.1080  0.0902  0.1243
21523W        W25923   1.402   0.538  29.609  0.1527 -0.0203  0.2438
21524W        W25924   6.555   4.577   0.972 -0.1356 -0.3471 -0.0599
21525W        W25925  10.723   4.144   3.867  0.1203  0.1755 -0.1883
21526W        W25926  23.834   6.056  30.449  0.0590  0.0598  0.3946
21527W        W25927  15.674   2.117  21.765 -0.3987  0.1133 -0.1660
21528W        W25928  11.743   4.837   5.250 -0.1807  0.1986  0.1259
21529W        W25929   9.264   6.890  19.868 -0.0204 -0.1419 -0.1898
21530W        W25930  23.941   6.790   1.743 -0.0400 -0.0695 -0.0662
21531W        W25931   4.045   1.300   7.317 -0.2138 -0.1348 -0.2073
21532W        W25932   2.913   6.397   2.879 -0.1193 -0.0508  0.1152
21533W        W25933   5.709   6.364  29.344  0.1641 -0.1191 -0.4010
21534W        W25934   8.618   0.337  28.559 -0.0180 -0.0294  0.0809
21535W        W25935  12.164   5.947  20.079 -0.1231 -0.0717 -0.2433
21536W        W25936   7.012   6.475  15.482 -0.2099 -0.0933  0.0893
21537W        W25937   1.572   2.085   0.535  0.1212  0.2457 -0.1754
21538W        W25938   5.627   5.811  15.378  0.1944  0.0589  0.2206
21539W        W25939   9.583   4.447  18.877  0.1697  0.1284  0.1442
21540W        W25940  21.035   2.937  14.193 -0.0800 -0.0109 -0.1847
21541W        W25941  13.504   6.628  30.112  0.1668  0.1144 -0.1114
21542W        W25942  24.419   3.299   5.013  0.1879  0.1323  0.0079
21543W        W25943   1.240   1.579   2.812 -0.2937 -0.1308 -0.1509
21544W        W25944  24.097   0.142  31.641 -0.0492 -0.2212 -0.1902
21545W        W25945   6.554   4.239  22.023 -0.1493  0.0185  0.1441
21546W        W25946  13.892   7.379   0.444  0.2264 -0.2988  0.1635
21547W        W25947   8.448   7.354  31.283 -0.1147  0.0536 -0.1265
21548W        W25948  22.969   3.408   0.442  0.0604 -0.0668 -0.1992
21549W        W25949  18.268   3.875   0.555  0.1041  0.1139  0.2738
21550W        W25950  11.672   4.597  29.346  0.0594  0.0311  0.0084
21551W        W25951  16.795   6.941  10.231  0.2880 -0.1610  0.0855
21552W        W25952   8.253   5.375   5.352  0.1011  0.0470 -0.0750
21553W        W25953   1.366   3.229  27.915  0.0537  0.0950 -0.2258
21554W        W25954  23.406   7.412  15.629 -0.0248  0.1662 -0.2525
21555W        W25955  11.112   2.274   8.263  0.2038 -0.0430 -0.2372
21556W        W25956  10.035   7.707   3.502  0.2688 -0.2292  0.0701
21557W        W25957   9.537   3.105   3.402  0.0556 -0.1511 -0.0657
21558W        W25958   5.850   0.834  28.443 -0.0804  0.0045  0.4740
21559W        W25959  24.177   2.495   7.142 -0.0109 -0.0074 -0.0446
21560W        W25960  19.721   2.208  12.488  0.2151 -0.0209 -0.4226
21561W        W25961   1.828   7.022  30.078 -0.2025  0.1389  0.1511
21562W        W25962  24.874   1.765  10.248  0.0231  0.0741  0.0380
21563W        W25963   1.481   5.266   6.402 -0.0412 -0.3035  0.1369
21564W        W25964   4.907   3.974  15.783  0.0021  0.1446  0.1220
21565W        W25965   0.956   4.326  11.410 -0.0732  0.0526  0.0089
21566W        W25966  17.296   4.582  25.704  0.2443  0.2389 -0.4230
21567W        W25967  13.529   0.301  10.378  0.3929  0.1242  0.0592
21568W        W25968   5.846   3.047  17.711 -0.1693 -0.0010  0.3353
21569W        W25969  10.579   4.933  21.911 -0.0401  0.0662 -0.1515
21570W        W25970  11.554   4.073  19.191 -0.0732 -0.0604  0.0574
21571W        W25971  17.167   1.116  26.824  0.2995 -0.2578  0.2436
21572W        W25972  21.854   2.395  26.349 -0.0671  0.0800 -0.1335
21573W        W25973  20.852   1.881  30.037  0.0006  0.0889  0.0035
21574W        W25974  17.760   4.337  15.068 -0.1326 -0.1365 -0.0696
21575W        W25975  11.965   3.144   9.199 -0.0159 -0.1315  0.1106
21576W        W25976  15.461   4.845  26.137  0.2008 -0.0318 -0.1914
21577W        W25977  22.848   2.838  27.729 -0.2021 -0.0610  0.0741
21578W        W25978   4.436   1.437  28.680 -0.2670 -0.0943  0.0193
21579W        W25979  17.382   3.676  12.860 -0.1610 -0.0303 -0.0801
21580W        W25980   7.143   2.514  28.455 -0.1549 -0.2487 -0.0515
21581W        W25981   5.242   4.956  20.181 -0.2674 -0.1460  0.0984
21582W        W25982  14.853   1.916   7.158 -0.1002 -0.1399 -0.1205
21583W        W25983   4.918   1.149   3.542  0.0131 -0.3413  0.0661
21584W        W25984  12.064   6.029  23.741 -0.0550  0.0294 -0.2101
21585W        W25985  24.866   1.189  27.982  0.1532  0.1072  0.2336
21586W        W25986   7.821   3.972  27.770 -0.2025  0.0281 -0.2901
21587W        W25987  24.311   2.841  29.432 -0.0469  0.0125 -0.0107
21588W        W25988  11.079   3.712  29.959  0.0622 -0.1758  0.4978
21589W        W25989  18.519   2.981  15.432  0.0118 -0.2565  0.0419
21590W        W25990  16.345   0.593   3.853  0.0807  0.1054 -0.0859
21591W        W25991  10.718   0.703  27.671  0.0844 -0.0669  0.3644
21592W        W25992  20.739   0.800  16.840 -0.1526  0.2447  0.2723
21593W        W25993   0.236   7.048   1.844 -0.1204 -0.2470 -0.0773
21594W        W25994  12.916   0.541   2.631 -0.1609  0.2623 -0.0653
21595W        W25995  16.075   3.036  16.768  0.0145 -0.0068 -0.0414
21596W        W25996   4.356   2.433   9.520 -0.1964 -0.1144 -0.2786
21597W        W25997  20.743   0.782  27.247  0.2592  0.2260  0.0383
21598W        W25998  23.345   6.699   6.020 -0.1366  0.2331  0.1300
21599W        W25999  12.559   6.460  21.030 -0.0929 -0.3656 -0.0259
21600W        W26000  19.016   4.865  24.790 -0.0245 -0.2830  0.0539
21601W        W26001  22.653   3.422   2.152 -0.1529 -0.0379  0.1754
21602W        W26002  17.551   0.825  14.646 -0.0327 -0.0278  0.2215
21603W        W26003  11.978   6.203  19.685 -0.1352  0.0367  0.0948
21604W        W26004  20.064   2.057   8.308 -0.2777  0.2261  0.2771
21605W        W26005   3.677   3.167   8.628 -0.0982 -0.1204  0.2482
21606W        W26006   9.194   6.019  20.697  0.0455  0.0520 -0.1677
21607W        W26007   4.551   2.154  29.536  0.5265  0.2052  0.0180
21608W        W26008  19.755   7.341  14.814  0.1793  0.0460  0.1697
21609W        W26009   3.964   6.490  18.461  0.0608 -0.1030 -0.2176
21610W        W26010   5.580   3.538  28.711  0.0796  0.2433  0.1627
21611W        W26011  22.547   2.866  23.196  0.2193 -0.2361 -0.3954
21612W        W26012  11.548   2.089  29.456 -0.2280  0.0349  0.0309
21613W        W26013  24.846   5.344  27.158 -0.0128 -0.0568 -0.1314
21614W        W26014  19.188   2.850  10.236 -0.1445  0.1537  0.1092
21615W        W26015  19.288   0.223  27.467  0.0493 -0.2023 -0.1063
21616W        W26016  17.810   5.166  16.064 -0.0503  0.0994  0.0144
21617W        W26017  12.710   2.329  13.218 -0.0797  0.1344 -0.1727
21618W        W26018   3.081   4.990  26.164 -0.0594 -0.0359 -0.1703
21619W        W26019   4.277   7.149   9.765 -0.1002  0.2606 -0.1353
21620W        W26020  11.921   5.483  21.770 -0.1647  0.0739  0.1747
21621W        W26021   6.581   3.048   9.102  0.2805  0.0950 -0.1400
21622W        W26022   4.198   3.041   6.008 -0.0997 -0.1491 -0.1199
21623W        W26023  22.542   6.008  10.187 -0.2130 -0.0569  0.0219
21624W        W26024   1.385   0.515   6.097 -0.2268  0.0323 -0.0695
21625W        W26025  21.633   6.042  12.112 -0.0907 -0.1132  0.0696
21626W        W26026   5.715   6.550  21.808 -0.1387 -0.0409  0.1920
21627W        W26027   0.282   5.723   4.298 -0.0602 -0.0664  0.1470
21628W        W26028   1.125   6.476  27.371 -0.2494  0.4263 -0.0794
21629W        W26029  14.763   5.597  22.430  0.0966 -0.1672  0.0619
21630W        W26030  14.871   4.929  14.887 -0.0319  0.0931 -0.1222
21631W        W26031   5.313   6.729   1.170 -0.0617 -0.0426 -0.4191
21632W        W26032  19.615   5.628   8.981 -0.2766  0.1610 -0.2592
21633W        W26033  13.664   7.334  10.079  0.2210 -0.0416  0.1761
21634W        W26034  17.768   1.217  22.365  0.2124 -0.0327  0.2571
21635W        W26035   5.849   2.309  18.992 -0.0168 -0.1086  0.2269
21636W        W26036  12.209   0.499   3.186  0.1844  0.3471  0.1215
21637W        W26037  20.750   1.213  15.621  0.0591 -0.0489 -0.1116
21638W        W26038  18.562   6.301  25.293  0.1530 -0.3802  0.1816
21639W        W26039  22.666   4.560  25.454  0.1452 -0.1619  0.0965
21640W        W26040  11.756   1.875   3.850 -0.2824 -0.0171 -0.2642
21641W        W26041  17.706   3.192  31.519  0.1108  0.0063  0.0791
21642W        W26042   2.191   5.721  26.753  0.3822  0.4157  0.0487
21643W        W26043  21.498   7.718  14.720  0.1199  0.4315 -0.1055
21644W        W26044  22.261   5.520  32.489  0.3656  0.0909  0.1218
21645W        W26045   0.558   3.060  18.686 -0.0694 -0.1783 -0.0328
21646W        W26046  15.393   0.286  24.141  0.0268  0.3832 -0.3814
21647W        W26047   6.552   6.240  22.580 -0.2811 -0.1467  0.0786
21648W        W26048   1.945   0.593  10.825 -0.1195 -0.1758  0.3198
21649W        W26049   3.230   3.556  20.433 -0.0760  0.1679 -0.0972
21650W        W26050  11.633   1.550  21.484 -0.2535 -0.2232  0.0343
21651W        W26051   3.055   7.422  10.626 -0.1381  0.0293  0.0148
21652W        W26052   3.146   5.370  30.707  0.0206 -0.1111 -0.1127
21653W        W26053   2.329   7.336  18.213  0.2543  0.3974 -0.1189
21654W        W26054  22.004   1.329   1.940  0.2728  0.1145 -0.1714
21655W        W26055  19.615   4.739   5.409  0.0311  0.3828 -0.0752
21656W        W26056  21.618   7.712  10.191  0.2015 -0.3089  0.0889
21657W        W26057  10.224   2.637  28.156  0.1854  0.0132 -0.1126
21658W        W26058  14.629   2.827  30.992  0.1343 -0.2720 -0.1010
21659W        W26059  24.304   0.435  26.206 -0.0137 -0.1513 -0.0692
21660W        W26060   6.341   5.993  20.646 -0.0361 -0.1655  0.1171
21661W        W26061  15.918   1.304   0.514  0.1317  0.1149  0.1245
21662W        W26062  22.436   1.499  28.036 -0.3030 -0.0970 -0.0896
21663W        W26063  14.057   3.534  31.066 -0.0574 -0.1821 -0.1157
21664W        W26064   3.301   1.242  25.675 -0.0438  0.0293 -0.4877
21665W        W26065  10.910   0.790  28.239  0.0832 -0.0610 -0.0227
21666W        W26066   1.784   7.477   2.202  0.0052 -0.0447 -0.0338
21667W        W26067  19.704   4.313   4.649  0.0028 -0.0034  0.1438
21668W        W26068  15.001   4.222  24.982  0.1767 -0.1860 -0.0172
21669W        W26069  12.329   6.488   8.033 -0.0886  0.0140 -0.1576
21670W        W26070  22.061   1.703   0.372 -0.1912  0.0949  0.2245
21671W        W26071  11.373   4.146  26.228  0.2360  0.0268  0.1106
21672W        W26072  13.192   3.593   2.989 -0.0640  0.0251 -0.2280
21673W        W26073   4.147   2.095  27.030  0.2926  0.1858 -0.0336
21674W        W26074  12.844   7.696   7.251 -0.3154 -0.2168  0.1162
21675W        W26075  12.427   7.356  24.708 -0.1090  0.0274  0.0647
21676W        W26076  11.476   0.594  25.023 -0.1476  0.4304  0.2380
21677W        W26077  18.772   5.641   4.097 -0.0668 -0.0777  0.0872
21678W        W26078   8.721   5.106   7.272 -0.2004  0.0231  0.1113
21679W        W26079  23.793   6.110  20.765 -0.0836  0.2407  0.1163
21680W        W26080  21.507   5.671   4.932 -0.0798 -0.1605  0.0688
21681W        W26081  21.432   4.366  26.810 -0.2180  0.0762  0.0320
21682W        W26082  15.756   1.573  12.488 -0.0522  0.1179 -0.1339
21683W        W26083  13.452   1.601  30.282  0.0382  0.1493 -0.3601
21684W        W26084   5.748   4.451   4.340  0.1292 -0.2392 -0.1570
21685W        W26085  20.190   3.518   3.181  0.1748  0.3032  0.1997
21686W        W26086  10.553   6.714   8.013 -0.0485 -0.0040 -0.0009
21687W        W26087  23.088   1.410  10.317 -0.1095  0.0354  0.2363
21688W        W26088  21.934   5.387  13.323 -0.0839  0.0786 -0.0397
21689W        W26089  17.841   6.339  16.087  0.0746 -0.3071 -0.0855
21690W        W26090  20.000   1.634  15.860  0.1147  0.4234  0.0382
21691W        W26091   7.105   4.095   0.467  0.0634 -0.1776  0.1291
21692W        W26092   7.152   1.515  30.715 -0.3349 -0.1051  0.1737
21693W        W26093   2.839   5.506  20.439  0.1000  0.0062 -0.1334
21694W        W26094  13.042   3.795   0.996 -0.0671 -0.1334  0.4569
21695W        W26095  11.483   1.306  30.651  0.2408  0.0189  0.1589
21696W        W26096  10.114   7.483  25.514  0.3095  0.3245  0.2384
21697W        W26097  20.095   4.678  31.319  0.0763 -0.0771 -0.2364
21698W        W26098  21.233   2.251  23.383  0.1238 -0.2781 -0.0335
21699W        W26099  18.346   6.281  22.464 -0.0048  0.1956  0.3765
21700W        W26100   5.467   1.099   8.498  0.4637  0.1107  0.0480
21701W        W26101  19.751   3.415  32.116  0.0798 -0.0295 -0.2299
21702W        W26102  11.698   2.120  30.157  0.3919  0.1249 -0.1673
21703W        W26103  14.962   0.752  22.957 -0.0970  0.0958 -0.0493
21704W        W26104   8.993   6.325   8.619  0.0565  0.0984 -0.1108
21705W        W26105   7.930   4.797  24.916 -0.0994  0.0585 -0.0113
21706W        W26106  18.541   3.828  28.059 -0.0943  0.0435 -0.0350
21707W        W26107   8.178   1.924  21.588  0.0883 -0.1629 -0.2148
21708W        W26108   8.085   0.212  21.795  0.0267  0.0039  0.0731
21709W        W26109  19.913   3.200   0.484 -0.1453  0.1160 -0.2108
21710W        W26110  14.337   4.074   6.246 -0.0539 -0.1117  0.2146
21711W        W26111  10.294   3.012  25.662  0.0367  0.1218 -0.0635
21712W        W26112  21.564   6.986  16.857  0.1061  0.0184  0.0695
21713W        W26113  14.190   7.684  11.738 -0.0839  0.1114  0.1021
21714W        W26114   5.814   4.911   0.912  0.0174  0.3284 -0.0836
21715W        W26115  15.961   5.469  25.771  0.2379  0.1453 -0.2079
21716W        W26116   5.509   7.218   7.785  0.3695 -0.1246  0.0742
21717W        W26117   9.146   3.243  10.286  0.0701 -0.2533  0.4324
21718W        W26118  23.176   5.319   2.966 -0.0985  0.0561 -0.1832
21719W        W26119  15.220   3.937  28.964 -0.0729  0.2372 -0.0298
21720W        W26120  24.702   3.041  10.894  0.0409  0.3158 -0.1299
21721W        W26121   6.223   4.817   9.613 -0.4926  0.1894  0.1044
21722W        W26122  17.106   6.618  28.099  0.0696 -0.2393 -0.1074
21723W        W26123   5.918   7.051   9.475  0.0862 -0.0347  0.0758
21724W        W26124  12.237   6.792  23.852 -0.1734 -0.0354  0.0770
21725W        W26125  24.667   7.514  22.308 -0.3025 -0.2212 -0.1578
21726W        W26126  11.540   5.820   1.238 -0.3730 -0.1693  0.1748
21727W        W26127  22.728   7.295  27.235  0.4391 -0.1105  0.0036
21728W        W26128  15.266   1.030  13.700 -0.0895  0.0926  0.1654
21729W        W26129  11.688   2.464  22.077  0.1434  0.0111  0.1743
21730W        W26130   3.238   5.331   9.959 -0.1311 -0.1998 -0.1534
21731W        W26131   3.582   4.585  24.129 -0.2126  0.0559 -0.2908
21732W        W26132   7.309   2.276   3.656 -0.2138 -0.0062 -0.1147
21733W        W26133  24.664   2.329  30.061  0.0202 -0.1564  0.3470
21734W        W26134   3.775   4.620  18.971 -0.3373 -0.1467 -0.0882
21735W        W26135  23.173   3.145  12.940  0.1313 -0.2263  0.1901
21736W        W26136  20.234   4.437  25.351  0.0684 -0.3013  0.0293
21737W        W26137  21.949   5.346   8.343  0.0195  0.0540 -0.0352
21738W        W26138  14.784   3.040   7.443 -0.0863  0.1125 -0.5274
21739W        W26139  20.423   6.310  13.679 -0.0676  0.1037  0.0968
21740W        W26140  20.897   4.108   2.386 -0.2622 -0.1240 -0.2321
21741W        W26141   6.343   0.155  15.326  0.2388 -0.1558  0.1679
21742W        W26142  11.405   4.828  21.632  0.4175 -0.0465  0.0911
21743W        W26143   1.476   4.207   2.169 -0.0461 -0.0867 -0.4871
21744W        W26144   9.757   1.797   9.304 -0.1939  0.0743 -0.1631
21745W        W26145  12.437   3.599   8.636  0.2071  0.1676  0.2178
21746W        W26146   3.995   1.502  26.958 -0.2108  0.0354 -0.4880
21747W        W26147   9.643   3.524  28.941  0.0555  0.1086 -0.1040
21748W        W26148  24.568   6.337   3.390  0.1470 -0.1573  0.1232
21749W        W26149  24.795   2.706   5.204 -0.2844  0.2344  0.0659
21750W        W26150  14.972   7.209  28.043  0.2607  0.2364 -0.2718
21751W        W26151  18.762   2.610   5.543  0.1630 -0.3402 -0.1490
21752W        W26152  21.451   2.209  11.315 -0.1080 -0.3083 -0.1343
21753W        W26153  10.382   2.318  18.438 -0.0347 -0.1184 -0.2264
21754W        W26154  18.468   3.922  10.727  0.3087  0.0395  0.1032
21755W        W26155   9.628   1.094   2.715  0.2267 -0.0481  0.1024
21756W        W26156  23.808   6.934  30.570  0.1793  0.0031  0.0889
21757W        W26157   7.083   7.351  27.547 -0.0912 -0.0376  0.2521
21758W        W26158  24.943   4.616  12.547  0.0300 -0.0165 -0.1966
21759W        W26159  19.638   0.126  13.964 -0.0515  0.4935  0.2259
21760W        W26160   8.844   4.037  21.752 -0.1553 -0.0559  0.1869
21761W        W26161  15.976   4.690  25.944  0.0915  0.0061  0.1109
21762W        W26162  17.367   7.100   6.040 -0.3626 -0.2623 -0.0571
21763W        W26163   7.124   7.186  24.295  0.0522 -0.0169 -0.0869
21764W        W26164   5.301   6.411   6.247 -0.1000 -0.5566  0.1180
21765W        W26165  21.353   4.470   8.418  0.2575  0.0466 -0.0930
21766W        W26166   9.898   3.017  28.982  0.1864 -0.0997  0.1938
21767W        W26167  19.651   3.650  26.803  0.1985 -0.2837 -0.1945
21768W        W26168   0.237   1.200  19.642 -0.0351 -0.1305  0.0117
21769W        W26169   1.807   4.529   9.059 -0.2354 -0.0481  0.1005
21770W        W26170   2.110   6.225  30.636  0.2019  0.1638 -0.2567
21771W        W26171  16.625   5.633   9.729 -0.0967 -0.1614  0.3963
21772W        W26172  22.391   7.226  28.056 -0.0284  0.1309  0.1410
21773W        W26173  12.297   1.127  25.253  0.0255  0.1762  0.1203
21774W        W26174   0.995   3.621  12.000 -0.1895  0.0789  0.1471
21775W        W26175  23.913   0.665  27.211 -0.2298  0.2614 -0.0157
21776W        W26176  17.943   4.716  15.889  0.0002  0.1871  0.0914
21777W        W26177   1.616   2.889   5.774  0.1609  0.1693 -0.2342
21778W        W26178   6.066   7.801  19.251  0.0939  0.0162  0.1269
21779W        W26179  22.724   4.117  13.861  0.1082  0.0559  0.2575
21780W        W26180   4.834   2.586   0.764  0.2876  0.0166 -0.0088
21781W        W26181  20.587   3.469  22.642  0.4321  0.4921 -0.3089
21782W        W26182  23.140   5.939   8.919  0.1114 -0.3758  0.1993
21783W        W26183   0.001   2.851  26.868  0.0975  0.1256 -0.3004
21784W        W26184   3.019   0.094  21.113 -0.0756 -0.0700  0.0821
21785W        W26185  17.085   6.063   1.323 -0.1628  0.1759 -0.3157
21786W        W26186   4.664   2.501   3.929  0.1333 -0.1310  0.0366
21787W        W26187  13.918   3.838  13.678  0.2802 -0.1163  0.1407
21788W        W26188   5.345   6.122  29.738 -0.0411  0.0111 -0.0775
21789W        W26189   2.227   3.486  26.186 -0.0402  0.2147  0.2169
21790W        W26190  21.868   7.630  13.329 -0.0688 -0.0625  0.1313
21791W        W26191  18.973   0.939  30.603 -0.2258 -0.2323 -0.4763
21792W        W26192  23.816   0.533   4.397 -0.3381  0.0110 -0.0067
21793W        W26193   3.617   2.807  23.740  0.1327 -0.0025  0.0902
21794W        W26194   3.340   7.580  23.481  0.0975  0.1556  0.2720
21795W        W26195   4.194   6.542  20.263 -0.0169 -0.1275  0.0160
21796W        W26196  23.196   1.988  10.342  0.0748  0.0662 -0.0125
21797W        W26197  24.794   2.209   9.367  0.2403 -0.0659 -0.1063
21798W        W26198   6.563   0.796   4.411 -0.0673  0.0690 -0.0478
21799W        W26199   5.108   2.318   4.283  0.0079  0.1010 -0.3272
21800W        W26200  13.160   1.903   6.535  0.2245 -0.1877 -0.1253
21801W        W26201   4.179   2.411  18.075 -0.1746  0.0265  0.3801
21802W        W26202  24.724   4.804  10.979 -0.1973  0.0063  0.1520
21803W        W26203  24.939   7.129  31.375  0.1654  0.1192  0.0083
21804W        W26204   9.738   6.235  10.011 -0.0064 -0.1231  0.0572
21805W        W26205   6.979   6.165  23.449 -0.0428 -0.1600 -0.0651
21806W        W26206  15.868   6.619  12.735 -0.1118  0.0689  0.1622
21807W        W26207  19.856   6.391  14.594  0.3187 -0.0814  0.0200
21808W        W26208  20.476   0.706  25.909  0.0351 -0.2347  0.0295
21809W        W26209  12.084   2.857  24.491 -0.0190 -0.1450 -0.1203
21810W        W26210  24.704   6.023   9.605 -0.0572 -0.1291 -0.1804
21811W        W26211  13.346   7.163  29.275 -0.2337  0.0898 -0.0323
21812W        W26212   4.658   3.697   4.042 -0.1653 -0.0357 -0.2692
21813W        W26213  11.620   2.875  18.625  0.2018 -0.2588  0.1274
21814W        W26214   3.703   1.833   7.239 -0.1240  0.2758  0.0658
21815W        W26215  12.062   2.064  10.116 -0.0421 -0.0416  0.1979
21816W        W26216  13.805   0.934  23.591 -0.0453  0.1143  0.2890
21817W        W26217  25.122   2.293  22.563  0.0097 -0.0466  0.1290
21818W        W26218  12.421   4.408   7.324  0.0000 -0.1680 -0.1049
21819W        W26219  24.403   4.428  21.185 -0.0102  0.1297 -0.2619
21820W        W26220  13.366   0.686  20.990  0.1047  0.2001 -0.0858
21821W        W26221  18.612   3.759   7.084 -0.1257  0.2764 -0.0506
21822W        W26222   7.185   2.216  28.811  0.0438 -0.1984 -0.0130
21823W        W26223   4.053   3.229   5.295  0.0211  0.0919 -0.0874
21824W        W26224   1.209   4.687   3.304 -0.0730  0.2929 -0.1177
21825W        W26225  13.955   0.929  21.493  0.0773  0.0883  0.1389
21826W        W26226  23.175   0.420   6.584  0.1204  0.1588  0.0440
21827W        W26227  24.526   1.232  23.710  0.2034 -0.0503 -0.2386
21828W        W26228   2.549   7.577   5.833 -0.3930 -0.2383  0.0578
21829W        W26229   6.111   4.403  26.625 -0.1195 -0.3362 -0.2037
21830W        W26230   2.707   2.659  22.473  0.0687  0.1421 -0.1482
21831W        W26231   9.535   6.502   0.739  0.0242  0.0496 -0.0034
21832W        W26232   6.134   7.144   8.061  0.1565 -0.0981  0.1248
21833W        W26233  15.103   7.787   5.730  0.0843 -0.1309 -0.1359
21834W        W26234  11.660   3.594   0.745  0.3344 -0.0410  0.0626
21835W        W26235  16.380   6.097  14.928 -0.1573 -0.2576  0.0507
21836W        W26236   7.029   0.121  17.458 -0.3236 -0.1286 -0.0172
21837W        W26237  18.050   3.576  31.408  0.0806  0.2163 -0.0824
21838W        W26238  23.838   7.442  13.127  0.2986 -0.0110  0.0516
21839W        W26239  17.684   0.881  23.812  0.1028 -0.3753 -0.0368
21840W        W26240   8.198   3.762  15.800 -0.1219  0.0570 -0.0124
21841W        W26241  19.747   2.384   4.351 -0.2377 -0.0444  0.0659
21842W        W26242   1.011   7.344   1.055  0.1146 -0.0117 -0.2195
21843W        W26243  10.243   4.501   9.105 -0.1485 -0.0257  0.1103
21844W        W26244  23.332   6.644   2.030 -0.0909  0.2129 -0.0312
21845W        W26245  24.847   5.136  20.794  0.0724  0.0635  0.1041
21846W        W26246   4.368   5.450   1.662  0.2292 -0.0151 -0.2817
21847W        W26247  19.605   3.425  25.366 -0.2104  0.0734  0.1037
21848W        W26248   8.874   3.323  32.337 -0.0094  0.1254 -0.0065
21849W        W26249  21.566   2.906  13.584 -0.1040  0.0595 -0.0499
21850W        W26250  14.360   7.114  14.258  0.2599  0.4345  0.0428
21851W        W26251  16.556   1.115   0.488  0.0574 -0.0389  0.3981
21852W        W26252   6.713   0.797  16.712  0.1613  0.1818  0.5527
21853W        W26253  14.301   7.627  29.017 -0.0745 -0.2079 -0.3037
21854W        W26254   9.325   0.631  31.124  0.0466  0.0602 -0.1380
21855W        W26255  24.904   1.689   6.320  0.0423  0.2067  0.1583
21856W        W26256  18.522   1.092  30.506  0.3021 -0.2191  0.1118
21857W        W26257   7.201   4.570   1.824  0.0415 -0.1258 -0.4215
21858W        W26258  11.400   2.160   3.176  0.0213 -0.3943  0.1767
21859W        W26259   2.318   2.766  31.257 -0.1105 -0.0226  0.0881
21860W        W26260   8.069   3.119  21.630 -0.0471 -0.0284  0.0425
21861W        W26261   0.218   4.461  31.630  0.3310  0.0762 -0.1651
21862W        W26262  23.753   6.588  32.111  0.1998 -0.1365  0.1596
21863W        W26263  24.785   3.600   2.107 -0.0631 -0.0634  0.2268
21864W        W26264   2.490   3.596   4.750 -0.0099 -0.0183 -0.0814
21865W        W26265   8.030   1.121   0.946 -0.0266  0.1337  0.2587
21866W        W26266  23.496   2.699  15.188 -0.1381  0.3979  0.1359
21867W        W26267  18.896   1.661  25.951 -0.0606  0.2371 -0.1296
21868W        W26268  12.592   5.273  10.849 -0.1901  0.0376  0.0217
21869W        W26269  12.868   6.169  11.410  0.2010 -0.1053  0.3255
21870W        W26270  20.734   0.280  22.932 -0.0818  0.1424  0.2766
21871W        W26271  23.905   1.373   4.375 -0.0956 -0.2029 -0.3174
21872W        W26272   4.176   6.218   0.554 -0.0157  0.0200 -0.1926
21873W        W26273  13.020   0.361  29.139  0.1482  0.0922 -0.2089
21874W        W26274  12.146   7.151  26.771  0.2831  0.3104 -0.3939
21875W        W26275  23.559   1.694   8.685  0.0785 -0.0962 -0.0351
21876W        W26276   3.505   1.050   0.586  0.0604  0.2011  0.0241
21877W        W26277  24.970   3.358  11.741 -0.0529 -0.1399 -0.0976
21878W        W26278  14.855   5.620   4.175  0.0783  0.2068  0.3345
21879W        W26279   1.766   2.283  20.663  0.0392  0.0927 -0.0768
21880W        W26280  23.587   1.776  23.156  0.0763  0.0545 -0.0630
21881W        W26281   8.166   2.693  26.121 -0.3173 -0.2890  0.2780
21882W        W26282  12.933   2.157   3.343  0.0152 -0.1023 -0.1875
21883W        W26283   6.028   5.784   8.618  0.0701  0.0279 -0.0558
21884W        W26284  13.256   0.561   5.459 -0.0455 -0.2927 -0.0211
21885W        W26285  10.853   2.852  32.450 -0.2550  0.0782 -0.0866
21886W        W26286  13.385   5.788  30.108  0.2950  0.0281 -0.1634
21887W        W26287  24.166   0.258  12.688 -0.0269  0.1898 -0.0054
21888W        W26288   0.906   5.047  23.945 -0.2762 -0.1332  0.2151
21889W        W26289  11.960   7.238  26.156  0.1301 -0.1201  0.1987
21890W        W26290   9.221   5.947  27.610 -0.1533 -0.2582 -0.0348
21891W        W26291   3.608   0.292  24.809  0.0366 -0.2252  0.0504
21892W        W26292  18.530   0.779  30.972 -0.1403  0.1940  0.0668
21893W        W26293  18.184   7.201  17.611 -0.2863 -0.1179  0.1240
21894W        W26294  11.564   7.261  18.086 -0.1010  0.2015 -0.0112
21895W        W26295   9.361   5.072  30.181  0.1679  0.1786 -0.1231
21896W        W26296  19.283   2.480   3.334  0.3721  0.1517  0.0485
21897W        W26297  20.766   2.804  31.229 -0.3191 -0.0515  0.1349
21898W        W26298  17.721   3.130  25.393  0.3132  0.2789 -0.0134
21899W        W26299   6.475   2.903  10.546  0.4043  0.2124 -0.1360
21900W        W26300   0.687   0.585   7.279  0.3276  0.0773  0.2355
21901W        W26301  21.460   6.714  24.432 -0.2125 -0.0029  0.0135
21902W        W26302  20.354   0.009  12.033 -0.1014 -0.2240  0.0625
21903W        W26303  12.684   4.778  23.959  0.1366  0.0158 -0.0328
21904W        W26304  17.595   1.930   7.191  0.1920 -0.1416 -0.0281
21905W        W26305   1.875   0.796  28.712  0.1164  0.0884 -0.0061
21906W        W26306   5.444   0.949  23.320  0.1313 -0.2435 -0.1610
21907W        W26307  24.900   5.357  27.952 -0.4252 -0.0930 -0.3114
21908W        W26308  20.584   7.750  27.012  0.0634 -0.0198 -0.0032
21909W        W26309   6.283   3.415   4.919  0.2068 -0.1008 -0.0130
21910W        W26310   0.273   5.811   1.646 -0.1818  0.0491  0.0638
21911W        W26311  11.662   1.872  10.533 -0.0459 -0.0867  0.1181
21912W        W26312   0.730   6.221  19.803  0.5223  0.0165 -0.0101
21913W        W26313   5.650   2.250  22.352  0.0162  0.1559 -0.1162
21914W        W26314   6.961   3.050  20.320 -0.1207  0.0883 -0.0342
21915W        W26315   2.946   7.225  17.017  0.2534 -0.0037  0.0072
21916W        W26316   0.477   5.180  24.800  0.1431  0.1498 -0.2429
21917W        W26317   2.709   0.927  10.251 -0.0675 -0.2171  0.1733
21918W        W26318  16.047   3.008  17.655  0.0276  0.1847  0.4094
21919W        W26319   2.221   2.383  29.814  0.1643  0.2366  0.3623
21920W        W26320   0.534   7.291  24.332 -0.3210  0.0624  0.2426
21921W        W26321  23.709   3.369   2.310 -0.0839  0.0847 -0.0558
21922W        W26322   6.618   0.337  16.459 -0.1947 -0.0682  0.0365
21923W        W26323  19.231   5.119   3.575  0.2913 -0.0492 -0.0438
21924W        W26324  20.377   6.382  25.723 -0.0341  0.0162 -0.0106
21925W        W26325  18.001   3.136  24.975 -0.1283 -0.0394 -0.0928
21926W        W26326  20.589   2.409  24.908  0.1478 -0.0577 -0.0238
21927W        W26327  21.980   7.808  25.604 -0.0370 -0.1376 -0.2422
21928W        W26328  21.984   0.118  12.508  0.0290 -0.2813  0.0560
21929W        W26329   8.683   4.526  28.473 -0.0504  0.1348 -0.0971
21930W        W26330  24.611   3.131   0.005  0.2768  0.0028 -0.1248
21931W        W26331  25.021   2.292  20.491  0.1374 -0.1447  0.1309
21932W        W26332  17.336   5.750  28.271 -0.4601  0.2578 -0.1229
21933W        W26333  17.571   1.341  32.048  0.2850 -0.1017 -0.0052
21934W        W26334  23.297   3.055  10.034 -0.1924  0.0544  0.1301
21935W        W26335  18.586   5.598   0.737 -0.6035  0.0778 -0.0117
21936W        W26336  18.732   3.530  11.908 -0.0235 -0.0296 -0.0654
21937W        W26337  11.081   6.650  20.589  0.4262  0.2586 -0.1804
21938W        W26338  14.546   1.815   9.596 -0.1103 -0.1382 -0.0630
21939W        W26339  18.607   4.685  15.561  0.0153  0.0233  0.0469
21940W        W26340   0.885   5.616   3.453 -0.0112 -0.4453 -0.1677
21941W        W26341   5.924   4.942  26.753  0.0838  0.0480 -0.1546
21942W        W26342   2.990   6.420  30.464 -0.0486 -0.2608  0.0727
21943W        W26343  12.152   4.101   4.891  0.0336 -0.1748 -0.0190
21944W        W26344  20.480   6.700   7.887 -0.1460  0.4051 -0.2987
21945W        W26345  16.416   0.231   0.948 -0.2175  0.1985 -0.0507
21946W        W26346   2.109   2.595   9.332  0.0422  0.5271 -0.1191
21947W        W26347   8.456   2.592  17.731  0.0410  0.0479  0.1247
21948W        W26348   9.764   7.074  22.892  0.1142  0.0075 -0.1243
21949W        W26349   3.197   4.210  17.518 -0.2407 -0.1245  0.1662
21950W        W26350  14.893   3.752  22.923  0.1059 -0.2143 -0.4232
21951W        W26351  20.105   1.033   7.959  0.1962 -0.3699  0.0890
21952W        W26352  24.915   6.489   6.322  0.1163 -0.1833 -0.0249
21953W        W26353  17.558   2.311  23.179 -0.4189 -0.1914  0.3133
21954W        W26354   3.503   1.884   3.074 -0.0364  0.0682  0.1668
21955W        W26355  22.887   7.522   7.029 -0.0845 -0.1038  0.4576
21956W        W26356   7.628   0.453  20.867  0.1906  0.3101  0.0229
21957W        W26357   7.569   3.123  27.564  0.3090 -0.1538  0.0440
21958W        W26358   4.881   0.493  22.182  0.1225 -0.1575 -0.2611
21959W        W26359   0.977   2.510   2.662 -0.0921  0.0480 -0.1157
21960W        W26360   2.085   0.161  24.079  0.0565  0.1475 -0.2740
21961W        W26361  20.838   1.793  28.083  0.0553 -0.0248  0.1563
21962W        W26362   0.463   7.136  13.116 -0.0145 -0.1211 -0.4249
21963W        W26363   6.655   4.502  22.954 -0.0248  0.0812 -0.3117
21964W        W26364   2.044   3.195  31.876 -0.0160 -0.0954 -0.2423
21965W        W26365   2.455   7.757   1.139 -0.3703 -0.0366 -0.0510
21966W        W26366  14.447   2.185   7.311  0.1448  0.0454  0.2620
21967W        W26367  18.305   2.982   3.424 -0.1683  0.1552 -0.3497
21968W        W26368   4.872   5.522  19.463  0.1471  0.2184  0.1344
21969W        W26369   5.760   7.278   2.067 -0.0321  0.1690  0.2917
21970W        W26370   2.216   5.094  29.319 -0.0356  0.0796  0.1077
21971W        W26371  12.530   5.980   4.871 -0.2423  0.0558  0.0873
21972W        W26372   5.412   3.346   9.718 -0.0683 -0.1002 -0.1944
21973W        W26373  11.162   0.909  24.252 -0.1287 -0.0709  0.0805
21974W        W26374  13.899   0.377   0.538  0.2929  0.0635  0.2896
21975W        W26375   9.431   2.622  20.256  0.0121  0.4052  0.0628
21976W        W26376   6.355   3.941   9.858  0.3757 -0.0405 -0.1849
21977W        W26377  21.878   4.078  24.549  0.0067  0.1011  0.2596
21978W        W26378   2.020   2.955  24.336  0.0872  0.0733  0.3749
21979W        W26379  16.386   2.585  25.639  0.2367  0.0287  0.1378
21980W        W26380  15.306   1.064   5.057  0.1073 -0.2335  0.1897
21981W        W26381   7.217   1.102   2.016 -0.0688 -0.1488 -0.1013
21982W        W26382   4.210   5.909  23.394  0.5104  0.0165  0.1109
21983W        W26383  13.334   0.376   8.425  0.1339 -0.0188 -0.1857
21984W        W26384  12.172   3.887  20.083  0.1337 -0.2359 -0.2739
21985W        W26385   8.481   7.176  26.665  0.1536  0.0682 -0.0550
21986W        W26386   4.181   4.088  22.746  0.1541 -0.0544 -0.1067
21987W        W26387   1.765   3.787  26.154  0.1659 -0.0990  0.1001
21988W        W26388  10.917   5.883  28.368  0.0069  0.0281  0.0111
21989W        W26389   4.378   6.003   6.159 -0.3711 -0.4766 -0.0116
21990W        W26390  21.184   7.066  24.149  0.0970  0.2645 -0.0474
21991W        W26391   5.369   1.794  22.246 -0.0625  0.0048 -0.2362
21992W        W26392  17.006   4.767   4.167  0.1736  0.3062 -0.1376
21993W        W26393   1.453   3.731   6.373  0.1870  0.0221 -0.3015
21994W        W26394  18.524   0.534   4.281 -0.2240  0.0393  0.0148
21995W        W26395  10.740   0.904   8.679 -0.1317  0.0227 -0.1379
21996W        W26396  13.918   3.994  31.003  0.0012 -0.0311 -0.1877
21997W        W26397  15.415   1.943   9.810 -0.0192  0.0785 -0.0683
21998W        W26398  20.658   3.491  16.866  0.1875  0.1236 -0.3234
21999W        W26399  12.195   5.899  30.612 -0.1270  0.1846  0.1322
22000W        W26400  16.530   7.481  28.800  0.2354 -0.4712 -0.2158
22001W        W26401  11.101   1.490  26.568 -0.0660 -0.0236 -0.2392
22002W        W26402   9.508   2.908   2.633 -0.1152 -0.0477 -0.0451
22003W        W26403  14.903   5.954  29.325  0.2592  0.2386  0.0962
22004W        W26404  20.217   6.782  15.340 -0.1225  0.0465 -0.1768
22005W        W26405  13.235   4.375   9.716  0.1005  0.3535  0.1711
22006W        W26406   6.398   2.626  16.700 -0.1691  0.1766  0.1232
22007W        W26407   8.572   3.121  21.078  0.0861  0.2995  0.1078
22008W        W26408   5.679   6.157  17.777 -0.0740  0.1401  0.0903
22009W        W26409  20.536   6.809   4.894  0.1701  0.2576 -0.2075
22010W        W26410  13.121   0.671  32.448  0.2588 -0.0877 -0.1937
22011W        W26411  10.130   3.853   1.611  0.1682 -0.1273  0.0945
22012W        W26412   8.557   4.311   2.154  0.0215 -0.0988  0.1811
22013W        W26413  15.903   2.883  14.593 -0.2871 -0.3284 -0.3244
22014W        W26414  14.258   0.136  22.567  0.0084  0.1563 -0.1683
22015W        W26415  19.094   5.319  14.345  0.2713 -0.1639 -0.1367
22016W        W26416  20.412   1.472   7.645  0.3854 -0.0882  0.0817
22017W        W26417  19.672   2.326  24.145 -0.1384  0.6631 -0.2364
22018W        W26418   3.151   5.227  18.611 -0.0752 -0.3265 -0.2160
22019W        W26419  19.922   0.167   4.350 -0.0469 -0.2744  0.2460
22020W        W26420  20.156   0.853   1.800  0.1250 -0.0774  0.1623
22021W        W26421   1.912   4.426  23.809 -0.4236 -0.0951  0.1434
22022W        W26422  11.651   5.222  10.167 -0.2804  0.1551  0.0810
22023W        W26423  15.500   5.487   2.467 -0.0857 -0.0591 -0.0504
22024W        W26424   0.405   7.485  21.220 -0.2794 -0.2084 -0.0061
22025W        W26425  23.555   6.332   6.852 -0.0690 -0.1513 -0.1334
22026W        W26426   1.448   5.348  21.290 -0.2224 -0.0085  0.0315
22027W        W26427  13.958   4.821  10.625  0.3228 -0.1142 -0.2734
22028W        W26428  21.413   4.777   6.755 -0.0679 -0.1186 -0.1224
22029W        W26429   6.178   3.504  22.661  0.0720  0.2131 -0.1908
22030W        W26430  14.740   4.035  14.165  0.1984  0.2919  0.0852
22031W        W26431   8.310   4.649  29.685 -0.1357  0.0324  0.1447
22032W        W26432   5.011   2.011  32.223  0.0078  0.0369 -0.0424
22033W        W26433   5.118   1.663  15.006  0.0303  0.1220  0.1108
22034W        W26434  18.889   1.328   9.196 -0.1923 -0.0782 -0.0834
22035W        W26435  24.703   7.057  13.312  0.2233  0.0125  0.0613
22036W        W26436  13.200   0.508  29.621  0.1279 -0.2597 -0.1442
22037W        W26437  23.948   7.116   4.743  0.2237  0.2483 -0.3038
22038W        W26438  19.734   7.609  14.330 -0.0848  0.0887 -0.0461
22039W        W26439  21.184   0.923  16.562  0.0384 -0.2197  0.0835
22040W        W26440   1.971   4.866  10.988 -0.0630 -0.1043 -0.0955
22041W        W26441   1.930   5.021   7.078  0.1355 -0.0097  0.0270
22042W        W26442   3.869   7.785  29.545  0.0837  0.3492  0.3293
22043W        W26443  17.905   0.106  30.169 -0.1763  0.0859 -0.0089
22044W        W26444  12.217   2.665   7.507  0.1685  0.3357 -0.2486
22045W        W26445  22.273   5.947   0.899 -0.1659  0.2146  0.1629
22046W        W26446  21.345   1.455  16.633  0.0210  0.1355 -0.1312
22047W        W26447   6.095   6.755   6.234 -0.1265  0.1703 -0.0193
22048W        W26448   6.468   6.780  30.741 -0.0283 -0.0283  0.1927
22049W        W26449  13.928   3.975   3.128 -0.1321  0.1325  0.1076
22050W        W26450  18.078   7.467  24.244 -0.0567 -0.0326  0.2610
22051W        W26451  22.037   3.692   4.503 -0.2223  0.0178  0.0521
22052W        W26452   3.857   3.458  22.316 -0.0434  0.0291  0.0096
22053W        W26453   4.576   3.748  30.085 -0.1774 -0.0740 -0.1752
22054W        W26454  19.331   7.677  28.860  0.2434 -0.3643 -0.0331
22055W        W26455  12.281   0.101   7.475  0.0524 -0.3391 -0.0375
22056W        W26456  11.045   0.632  11.123 -0.3071 -0.0224 -0.1693
22057W        W26457  17.938   0.309  23.830 -0.4047 -0.0574 -0.2026
22058W        W26458   2.233   6.016  18.949 -0.0226 -0.1100  0.0961
22059W        W26459  12.287   0.227  26.166  0.3573 -0.0709  0.0180
22060W        W26460  16.436   1.417  27.563 -0.1211 -0.0428 -0.0794
22061W        W26461  14.724   5.001  23.516  0.0744 -0.1857 -0.0208
22062W        W26462   9.182   1.319  25.784  0.0209 -0.0522  0.2197
22063W        W26463   8.474   2.054   8.795 -0.3084  0.0230  0.2042
22064W        W26464  22.090   5.328  22.612  0.1117 -0.2467 -0.0884
22065W        W26465   8.934   7.125  29.889  0.1105 -0.1067 -0.1220
22066W        W26466   6.303   2.160   4.134  0.1565  0.4073 -0.3485
22067W        W26467  20.654   0.938  13.432 -0.0982  0.1290 -0.2133
22068W        W26468  17.981   4.023  13.690 -0.1075  0.0945  0.0500
22069W        W26469  15.616   6.572  24.231 -0.3444 -0.0471  0.0907
22070W        W26470  10.370   3.743  19.891  0.0874  0.1959  0.0897
22071W        W26471  17.035   3.921  29.833  0.1981  0.1178 -0.1437
22072W        W26472  17.297   3.439  15.723  0.1087 -0.0979 -0.1898
22073W        W26473  12.221   5.680  19.626  0.0305  0.0124 -0.3349
22074W        W26474   6.647   3.067  16.645 -0.1843 -0.0628 -0.1385
22075W        W26475  14.515   4.835   0.188 -0.1361 -0.2086  0.0505
22076W        W26476   7.080   4.283  22.739  0.0810 -0.0331 -0.3159
22077W        W26477  17.523   7.454   7.355 -0.2678 -0.0269 -0.2906
22078W        W26478   4.247   6.129  10.194  0.1694 -0.0148  0.1213
22079W        W26479   4.684   5.797   8.167  0.0704  0.0347  0.1470
22080W        W26480  19.153   1.073  29.640  0.1215 -0.0351 -0.2680
22081W        W26481  16.248   2.030   4.366  0.1003 -0.1539 -0.0265
22082W        W26482  14.322   7.272   4.842 -0.0207 -0.0550  0.0648
22083W        W26483   4.797   7.470  22.078 -0.0862  0.0344 -0.1119
22084W        W26484  11.313   4.543  19.107 -0.1169 -0.1435  0.0017
22085W        W26485   6.718   5.201   3.991 -0.4172 -0.3003 -0.1240
22086W        W26486  10.081   4.853  25.135  0.0863  0.4171  0.0518
22087W        W26487   5.255   4.709   2.188  0.6156  0.0862  0.1202
22088W        W26488  18.435   1.564  11.838 -0.1412  0.0406 -0.0088
22089W        W26489   6.926   5.215   3.176 -0.0464 -0.1823  0.1058
22090W        W26490   2.306   3.832   3.258  0.3139 -0.0723  0.0740
22091W        W26491   8.987   4.064   5.205 -0.2668 -0.1777  0.2385
22092W        W26492   3.848   0.021  31.158 -0.0936 -0.1899 -0.0235
22093W        W26493  12.864   6.520  12.792  0.1891 -0.1499  0.1262
22094W        W26494   3.261   1.499   3.746  0.2120  0.1844 -0.0224
22095W        W26495  24.751   5.799   1.336 -0.1401 -0.0983 -0.2614
22096W        W26496  17.465   6.625  23.788 -0.1550  0.2603 -0.0792
22097W        W26497  22.683   7.320  31.289 -0.1352  0.2742  0.1880
22098W        W26498   0.272   7.139  21.670  0.0578 -0.2809  0.0493
22099W        W26499   5.081   1.806   9.053 -0.1821  0.0526  0.2107
22100W        W26500   2.440   5.266  17.951  0.3087 -0.1041  0.0262
22101W        W26501  16.046   7.607   5.137 -0.1045  0.0884 -0.0809
22102W        W26502  17.315   2.247  13.465  0.1373  0.1661  0.0880
22103W        W26503  20.894   7.614   2.159 -0.2039  0.0039  0.0792
22104W        W26504   2.722   6.928  23.814  0.3809 -0.0549  0.0161
22105W        W26505   9.729   6.909   0.481 -0.0805 -0.1815  0.3600
22106W        W26506  11.043   4.264  30.645  0.3716 -0.0402 -0.1463
22107W        W26507  21.885   1.823  10.659 -0.1698  0.0363 -0.1375
22108W        W26508  21.046   0.109   7.345  0.0741  0.1625  0.0804
22109W        W26509   5.968   3.399  28.925 -0.2842 -0.0318  0.0079
22110W        W26510   4.693   3.052  32.142 -0.0404 -0.0704 -0.1099
22111W        W26511   0.328   4.503  30.339  0.1117  0.0352  0.0756
22112W        W26512   2.504   5.377   5.769  0.3428  0.0923  0.2179
22113W        W26513  22.075   1.274  23.660 -0.0021  0.0788 -0.2736
22114W        W26514  21.442   3.959   3.268  0.0308  0.1431 -0.1199
22115W        W26515  21.475   3.356  15.149  0.1106 -0.1916 -0.0191
22116W        W26516   7.468   1.530   8.136  0.0595 -0.0451  0.1911
22117W        W26517  19.610   6.105  27.394 -0.1104  0.2488  0.2038
22118W        W26518  22.998   1.795  25.979 -0.1294 -0.0643 -0.1596
22119W        W26519  11.296   3.354  23.176 -0.2360 -0.0340 -0.2149
22120W        W26520   8.745   7.589  26.230  0.2091 -0.2146  0.0810
22121W        W26521  20.754   1.468   3.470  0.2545  0.0723 -0.0884
22122W        W26522   9.093   4.784   7.391 -0.1433  0.0296 -0.1289
22123W        W26523  10.312   2.091  21.438  0.6666 -0.0694 -0.0993
22124W        W26524  22.131   0.259  15.793  0.1239 -0.2250  0.1966
22125W        W26525  20.083   3.253   2.674 -0.0649 -0.0169  0.1190
22126W        W26526  17.659   1.196  28.745  0.1815 -0.1143 -0.0988
22127W        W26527  10.622   0.648   1.637 -0.0120 -0.1553  0.2470
22128W        W26528   8.066   2.551  31.420 -0.2440 -0.1043 -0.0812
22129W        W26529   2.958   5.741  27.132 -0.1437 -0.1242 -0.2266
22130W        W26530   7.423   5.905  25.565  0.2894  0.0028 -0.3016
22131W        W26531  23.300   0.959   5.892  0.0413 -0.2947  0.3483
22132W        W26532   0.445   0.359  10.586  0.0174 -0.0757  0.1261
22133W        W26533  20.266   0.755  12.286 -0.0867 -0.1684  0.0865
22134W        W26534   0.817   7.375  20.951 -0.0136 -0.1761  0.1419
22135W        W26535  18.212   6.372  15.715 -0.4215  0.0589 -0.3675
22136W        W26536   6.002   3.959  29.497 -0.0060 -0.1355 -0.1769
22137W        W26537  20.430   2.709  10.939  0.0855  0.0689  0.0850
22138W        W26538  15.606   0.314  30.010 -0.0248  0.0385 -0.1399
22139W        W26539  16.688   3.456  32.134 -0.1524  0.1263  0.2254
22140W        W26540   8.823   4.304  31.883 -0.1333  0.2848  0.0076
22141W        W26541   8.891   5.297   5.854 -0.1720 -0.3654  0.2779
22142W        W26542  21.942   6.976   9.455 -0.0706 -0.0938 -0.3242
22143W        W26543  17.779   3.765   1.715 -0.0984  0.3416 -0.1565
22144W        W26544  18.968   1.608  29.845 -0.0334 -0.1878  0.2811
22145W        W26545   7.379   3.849  29.817 -0.1489  0.1398  0.2374
22146W        W26546  17.445   1.198  31.509  0.2852 -0.0129  0.0244
22147W        W26547  15.002   6.046  25.303  0.2979  0.1402  0.2732
22148W        W26548  13.040   2.071  21.651  0.1621 -0.2304  0.2423
22149W        W26549  12.409   0.746  24.489 -0.3244  0.0653 -0.2397
22150W        W26550  24.919   4.929  29.172  0.2518  0.1434 -0.0146
22151W        W26551  24.145   0.280  29.619  0.2571  0.0563  0.1486
22152W        W26552  16.794   4.164  31.628  0.1214  0.2245  0.1287
22153W        W26553  14.493   4.678   1.950  0.0912 -0.1215 -0.1572
22154W        W26554   7.462   5.986  29.476 -0.0701 -0.2993 -0.0125
22155W        W26555   6.899   4.853  30.926  0.1670 -0.0955  0.2649
22156W        W26556   0.362   1.751   4.263  0.1446  0.3611 -0.2788
22157W        W26557  20.666   2.875   9.636  0.0074  0.1011  0.1791
22158W        W26558  19.254   3.571   7.696 -0.0824  0.0742 -0.2010
22159W        W26559  11.201   1.426  27.817  0.0810 -0.2062 -0.0060
22160W        W26560  22.116   1.160   1.348  0.1195  0.3344  0.2037
22161W        W26561   7.446   0.319  26.364  0.2518  0.1154  0.0579
22162W        W26562  20.501   0.302   9.521  0.0071 -0.2728  0.0624
22163W        W26563   8.169   1.336  27.050 -0.0056  0.1246  0.1770
22164W        W26564  16.663   6.231   2.733 -0.0254  0.3191  0.0408
22165W        W26565   0.383   0.981  30.287 -0.2024 -0.2239 -0.0878
22166W        W26566   9.276   4.554  30.266  0.2347  0.3226  0.0291
22167W        W26567   1.009   5.513  29.975  0.0163 -0.0804  0.0714
22168W        W26568  14.456   5.233  31.323 -0.2341  0.0149 -0.0671
22169W        W26569  17.715   2.281  24.043 -0.0619 -0.0297  0.0491
22170W        W26570   4.702   6.829   3.379  0.1841 -0.0426  0.0112
22171W        W26571   6.795   1.543   7.233 -0.1872  0.2326 -0.2840
22172W        W26572   8.363   2.731  20.550  0.1501  0.2563  0.0614
22173W        W26573  23.319   0.751   8.867 -0.1853  0.2656 -0.2441
22174W        W26574   6.716   5.342  15.006  0.0213 -0.0445  0.0089
22175W        W26575  11.478   5.198  26.704 -0.0791  0.3774 -0.1983
22176W        W26576   0.238   2.715  22.569  0.0140 -0.2267 -0.3595
22177W        W26577  20.592   4.022   7.188  0.0430 -0.0249 -0.2265
22178W        W26578  12.152   2.640  32.333 -0.2145 -0.0561  0.2535
22179W        W26579   4.996   2.846  18.279  0.0673  0.4141  0.1189
22180W        W26580   6.651   4.269  24.054 -0.0138  0.1792  0.1003
22181W        W26581  14.949   4.649  32.314  0.0591 -0.2360  0.3058
22182W        W26582  11.888   1.397  10.756 -0.2339  0.1983  0.4052
22183W        W26583  18.828   2.553   6.963  0.0420 -0.3018  0.0929
22184W        W26584   9.010   5.065   1.743  0.0782  0.0154  0.0223
22185W        W26585   4.237   0.403  19.125  0.2475 -0.0237 -0.2480
22186W        W26586   3.322   3.607  22.434  0.0230 -0.2866  0.0336
22187W        W26587  20.362   3.845  13.644 -0.2801 -0.1527  0.1047
22188W        W26588  17.750   5.879  12.286 -0.1450  0.2471 -0.3214
22189W        W26589  12.198   7.655   1.784  0.2593 -0.0230 -0.0265
22190W        W26590  22.596   7.606  10.094  0.2103  0.1160  0.0851
22191W        W26591   2.783   7.678  25.092  0.1901 -0.0181  0.0945
22192W        W26592   1.478   2.740  18.883  0.0312  0.0714 -0.0348
22193W        W26593  23.815   5.111  24.656 -0.3400 -0.0502  0.2798
22194W        W26594  13.580   6.984  12.627 -0.0851 -0.1688 -0.0743
22195W        W26595   2.625   3.929  18.248 -0.0345  0.2569 -0.1330
22196W        W26596  21.988   7.462  24.421 -0.2619  0.0397  0.0194
22197W        W26597  18.670   6.996  12.053  0.2394  0.0833 -0.1737
22198W        W26598  21.501   6.031  22.594  0.0814  0.1821  0.2275
22199W        W26599  12.754   2.176   2.879 -0.0941 -0.0213  0.2141
22200W        W26600  18.442   3.082  29.171  0.2537  0.1401 -0.1687
22201W        W26601  14.383   5.964  10.287 -0.4714 -0.0598 -0.0230
22202W        W26602  18.310   6.824  32.520  0.1872  0.3094 -0.0790
22203W        W26603  23.071   6.668   5.009 -0.1838 -0.1162  0.2255
22204W        W26604  24.736   3.259   4.205  0.3442 -0.2690  0.2946
22205W        W26605  15.407   4.013  27.302 -0.0536  0.2951  0.3480
22206W        W26606  24.294   1.214   7.676  0.0205 -0.1935  0.1549
22207W        W26607   7.223   6.976  22.343  0.3069  0.0775  0.1766
22208W        W26608  19.600   1.295   8.143 -0.0132  0.0973 -0.1363
22209W        W26609   3.134   3.717   6.859 -0.0131 -0.0932  0.0339
22210W        W26610  14.681   2.625   2.915 -0.0254  0.0465  0.0303
22211W        W26611   8.335   7.431   9.887  0.0816  0.1311  0.4307
22212W        W26612  24.173   4.048  30.054  0.1733  0.0409  0.1225
22213W        W26613   5.411   5.252  14.232  0.1823  0.0977 -0.1534
22214W        W26614   0.144   4.841   9.669 -0.4717  0.0527 -0.1568
22215W        W26615   6.063   0.860  16.637 -0.0374  0.0091 -0.2340
22216W        W26616  17.060   5.250  31.367 -0.1583 -0.1302  0.2795
22217W        W26617  20.062   5.391   2.105  0.1051 -0.1870 -0.0243
22218W        W26618   8.937   7.215   5.124  0.0229 -0.1781 -0.0150
22219W        W26619  13.878   1.303   1.374 -0.1498 -0.3833  0.0843
22220W        W26620  18.154   6.540   7.361 -0.2203  0.1369  0.2104
22221W        W26621   1.682   4.360  19.279  0.2046 -0.0965 -0.2032
22222W        W26622   9.360   2.918   1.548 -0.1660  0.1782  0.1807
22223W        W26623  17.799   3.619  15.638 -0.2916  0.1887 -0.2075
22224W        W26624  11.405   2.502  23.407 -0.1273 -0.0091 -0.1666
22225W        W26625   9.326   2.111  18.209 -0.0803 -0.1251 -0.2725
22226W        W26626   8.062   6.632  29.930 -0.0803  0.1284  0.0951
22227W        W26627  10.896   5.949  21.714  0.0710  0.4524  0.1306
22228W        W26628   4.838   6.304  26.559  0.3369  0.1844  0.3070
22229W        W26629   2.678   6.371   0.015  0.1149  0.1284 -0.1157
22230W        W26630   8.707   5.621   9.782 -0.1873 -0.0156  0.2109
22231W        W26631  16.949   0.371  26.394  0.0055  0.2775  0.4281
22232W        W26632   9.327   3.629  15.513 -0.2003  0.2082 -0.2135
22233W        W26633   0.297   0.605  12.978 -0.0123  0.0063 -0.1552
22234W        W26634  16.347   0.813   9.455 -0.1925 -0.1539  0.0072
22235W        W26635   8.351   1.444  19.992  0.0488  0.1297  0.1737
22236W        W26636  18.591   7.782  22.956 -0.6001 -0.0287  0.0251
22237W        W26637   4.707   5.614   0.705  0.3510 -0.1706 -0.2180
22238W        W26638  10.077   5.579  17.646 -0.1492 -0.3279  0.0175
22239W        W26639  11.810   1.281  20.116 -0.0829 -0.0217  0.2478
22240W        W26640  24.376   7.784  24.278 -0.1379 -0.3656 -0.0014
22241W        W26641  22.821   6.952   2.635  0.2154  0.3486  0.1413
22242W        W26642   7.893   2.286  28.041  0.4681  0.1192 -0.3702
22243W        W26643   5.978   5.339   9.674  0.0199 -0.1341 -0.4710
22244W        W26644   4.042   0.312   0.621 -0.0463 -0.1065 -0.1192
22245W        W26645  19.938   1.408  31.271 -0.1539  0.1701 -0.0360
22246W        W26646  24.243   4.903  27.300  0.0486  0.1030 -0.0196
22247W        W26647  20.124   1.578  24.713  0.0252  0.2641 -0.0173
22248W        W26648  12.940   0.776  11.425  0.3272 -0.2057  0.3324
22249W        W26649  12.113   2.323   4.599 -0.1740  0.1931  0.0185
22250W        W26650   8.153   6.922  25.781 -0.2677  0.1376 -0.1036
22251W        W26651  10.862   3.458  32.429 -0.1618 -0.1199 -0.1079
22252W        W26652   9.630   0.988  30.441  0.1255 -0.0802 -0.4969
22253W        W26653   9.601   7.069   3.247  0.1160  0.1060  0.1661
22254W        W26654   4.195   1.598   5.518  0.1037  0.0021 -0.0731
22255W        W26655  17.420   3.569   7.200  0.0671 -0.0797  0.0655
22256W        W26656   1.805   5.554  30.185  0.0438 -0.1134 -0.1651
22257W        W26657  19.016   5.443   0.335 -0.0577 -0.1011  0.0618
22258W        W26658   4.731   1.758  10.048 -0.0354  0.3007  0.0991
22259W        W26659   1.413   0.634  23.570 -0.1148  0.0096  0.1045
22260W        W26660  16.959   2.896   6.603  0.1921 -0.2018  0.2578
22261W        W26661   3.401   6.204   5.380  0.2159 -0.0376 -0.3799
22262W        W26662  12.987   7.400   9.787  0.0576  0.2513 -0.1685
22263W        W26663   3.315   7.064  29.491 -0.1915  0.2292 -0.0232
22264W        W26664  11.898   2.122  29.131 -0.1381 -0.1689  0.0479
22265W        W26665   3.832   7.407   4.784 -0.0347  0.4485  0.0634
22266W        W26666  21.696   4.225  25.962  0.1793 -0.2078  0.1319
22267W        W26667   4.161   7.670  10.070  0.1777 -0.0468 -0.1932
22268W        W26668   8.459   1.896  15.629 -0.1568 -0.0382  0.1281
22269W        W26669   1.407   5.003  20.572 -0.0650 -0.1803 -0.1504
22270W        W26670   1.574   6.386  30.847  0.0119 -0.0391  0.3600
22271W        W26671   0.682   0.652  22.858  0.0920  0.1282 -0.1125
22272W        W26672  14.207   7.677  26.724  0.1735 -0.0648 -0.2201
22273W        W26673   2.475   2.949   7.636 -0.0951  0.1129 -0.3076
22274W        W26674  24.672   7.645  26.668 -0.0846 -0.1599 -0.1812
22275W        W26675   2.140   5.641  28.696 -0.0320 -0.0594 -0.0562
22276W        W26676  17.793   6.505  14.027  0.3326 -0.1511 -0.1056
22277W        W26677   5.456   6.783   8.132  0.2011  0.1552 -0.1721
22278W        W26678   7.710   3.681  14.570 -0.0519 -0.0767 -0.0379
22279W        W26679  17.478   4.462  14.038 -0.2051  0.0349 -0.2613
22280W        W26680  24.583   3.505  14.343 -0.0003 -0.1859  0.0677
22281W        W26681  12.125   6.262  30.285 -0.0483  0.2246  0.0620
22282W        W26682   6.259   2.769   3.004 -0.0536 -0.0023  0.0676
22283W        W26683  23.785   2.721  12.274  0.1650 -0.0823 -0.1300
22284W        W26684   5.227   3.851   9.261  0.2297 -0.1800 -0.3104
22285W        W26685   5.839   4.487   4.947 -0.2053 -0.0260 -0.3128
22286W        W26686  14.405   0.999  24.968  0.2319  0.1953  0.1869
22287W        W26687   4.357   0.667   6.769  0.0091  0.0034  0.0563
22288W        W26688  18.018   2.923   2.207  0.4256  0.0622 -0.0204
22289W        W26689  21.445   0.610  23.467  0.2757 -0.0115  0.0399
22290W        W26690  10.520   1.750  29.133 -0.1565 -0.1443  0.1373
22291W        W26691  20.949   4.134   1.564 -0.0350  0.2427  0.1910
22292W        W26692  11.580   3.067   8.035  0.1398 -0.2692  0.0771
22293W        W26693  18.295   2.432  31.125 -0.1716  0.0794 -0.1627
22294W        W26694  11.140   6.109  24.952 -0.0818 -0.4160  0.1355
22295W        W26695  16.812   5.138  10.648 -0.0378  0.1339 -0.1082
22296W        W26696  24.650   4.828   4.456 -0.2719  0.0717 -0.2821
22297W        W26697  18.545   1.377  30.984 -0.3013  0.0500 -0.2873
22298W        W26698  18.235   1.188   5.421  0.1893 -0.2210  0.0149
22299W        W26699  21.345   5.684  14.327  0.0106  0.1762  0.2215
22300W        W26700  21.096   3.278  12.179 -0.1714  0.0908 -0.2441
22301W        W26701   8.282   4.727   2.835 -0.1681  0.1976  0.1422
22302W        W26702  20.897   6.965   2.588  0.2489 -0.1510  0.3760
22303W        W26703   7.660   3.088  23.148 -0.2729  0.2926  0.1945
22304W        W26704  22.352   1.361   9.178  0.0700  0.0920  0.2312
22305W        W26705  21.650   5.190   7.683  0.0979 -0.0641 -0.2798
22306W        W26706   2.092   6.792  19.611 -0.0840  0.1530  0.3561
22307W        W26707  18.890   5.784  32.452 -0.0041 -0.1806  0.2639
22308W        W26708   2.251   1.240   4.700  0.2881 -0.1636  0.0533
22309W        W26709  12.608   6.034   9.465 -0.0315  0.2747 -0.0129
22310W        W26710  15.763   4.516   5.955 -0.1349  0.0792 -0.0195
22311W        W26711   0.488   4.777   0.838  0.0978  0.0996  0.1033
22312W        W26712  23.163   6.642   1.565 -0.0412 -0.1094  0.0720
22313W        W26713  10.191   6.388  16.659  0.1151  0.0296 -0.0419
22314W        W26714  20.721   1.668  30.587  0.0070  0.1085  0.1120
22315W        W26715  15.745   0.252  22.561  0.1010  0.0296  0.0792
22316W        W26716  17.046   4.385  27.964 -0.0711  0.0324  0.1679
22317W        W26717  13.440   7.399   3.286  0.0966  0.2358 -0.0146
22318W        W26718   4.121   0.651  26.475  0.1314  0.1019 -0.0475
22319W        W26719   1.944   1.160  11.096 -0.1857 -0.1232  0.3404
22320W        W26720   2.198   6.136   8.561  0.0843 -0.1571 -0.1473
22321W        W26721   9.209   6.938   0.269  0.2916  0.0236 -0.0456
22322W        W26722   9.027   0.852   2.001 -0.0400 -0.2455 -0.1023
22323W        W26723  12.927   0.084  26.089  0.2005  0.0057  0.0840
22324W        W26724   6.895   4.599  21.776  0.2947  0.1370 -0.2521
22325W        W26725   7.793   0.594  14.740 -0.3807  0.2557  0.3585
22326W        W26726  18.340   6.422  17.733  0.2063  0.1616 -0.1702
22327W        W26727   0.997   0.893  23.135  0.3156 -0.3176 -0.0473
22328W        W26728  20.102   5.966  15.018  0.2018 -0.1483  0.1725
22329W        W26729  19.563   5.381  26.191 -0.0732 -0.0394 -0.0977
22330W        W26730  18.122   6.597  29.991 -0.1514 -0.2954 -0.2129
22331W        W26731  12.687   6.885  31.770  0.3860 -0.0701 -0.0457
22332W        W26732   8.215   1.577  32.200  0.2108 -0.2103 -0.1096
22333W        W26733   8.150   2.648  14.843  0.4915 -0.0386  0.0311
22334W        W26734  11.502   4.865   2.023  0.0285 -0.0470  0.0132
22335W        W26735  16.085   2.229  26.478  0.0298  0.0764 -0.2580
22336W        W26736  11.592   5.945  11.644 -0.1693  0.0528 -0.0247
22337W        W26737   2.348   0.171   8.297  0.0890 -0.0091 -0.1244
22338W        W26738   2.618   6.654   5.221 -0.1343  0.3775 -0.2225
22339W        W26739   0.711   5.768  23.790  0.2228 -0.0864  0.2866
22340W        W26740  13.827   0.593  20.163 -0.1603 -0.0857  0.0755
22341W        W26741   8.639   2.107  23.713 -0.2677 -0.0626  0.0262
22342W        W26742   1.234   6.682   7.662 -0.0023 -0.1567 -0.1178
22343W        W26743   6.134   4.501  24.103 -0.3837 -0.0565  0.0190
22344W        W26744   3.798   4.491  24.623  0.2791 -0.4045  0.0763
22345W        W26745  20.322   7.300  27.223 -0.3049 -0.0387 -0.1531
22346W        W26746  24.788   0.300  21.028  0.0684 -0.1750  0.1537
22347W        W26747   9.584   6.943  11.240 -0.3004 -0.2139 -0.0301
22348W        W26748  13.339   5.110  30.162 -0.2754  0.2685  0.2333
22349W        W26749  17.246   1.134  23.997 -0.2878 -0.1428  0.1127
22350W        W26750  23.342   0.480   9.339 -0.3005  0.0354  0.1167
22351W        W26751   6.329   3.631  20.883  0.1609 -0.0687  0.0777
22352W        W26752  16.074   4.078   8.338 -0.1243  0.2793  0.3219
22353W        W26753   8.667   1.405  31.356  0.0350  0.0425 -0.1669
22354W        W26754   2.365   6.559  24.825  0.0876 -0.2663 -0.0336
22355W        W26755   6.445   1.706  10.059 -0.1490  0.1663  0.0994
22356W        W26756  11.398   6.026   5.442 -0.0902 -0.2534  0.2222
22357W        W26757  24.385   2.849  22.249 -0.0245  0.2108 -0.1024
22358W        W26758  24.602   3.994  21.388  0.3350 -0.1829  0.0628
22359W        W26759   8.772   4.776  31.592 -0.0360  0.1557  0.3870
22360W        W26760  12.442   7.708   6.197  0.0558 -0.1020  0.0514
22361W        W26761   2.754   7.184  19.820  0.3835  0.0408  0.1655
22362W        W26762  19.386   2.615  23.861  0.2221  0.0138  0.3032
22363W        W26763   7.428   6.106   9.434  0.0342  0.0820  0.0126
22364W        W26764   5.548   0.638  27.193 -0.0212 -0.0217  0.0642
22365W        W26765   3.349   7.739   3.095 -0.0466  0.0929  0.0050
22366W        W26766   1.745   0.732   5.385  0.1357  0.0892 -0.2472
22367W        W26767  12.334   4.878  10.559  0.1939  0.1068 -0.1015
22368W        W26768   3.175   3.361  18.702 -0.1598 -0.2734 -0.3337
22369W        W26769  24.230   6.525  23.723 -0.0068 -0.2215  0.1728
22370W        W26770   8.723   0.594   8.200  0.1865 -0.0357  0.0869
22371W        W26771  17.434   7.494  23.320 -0.0864  0.2341 -0.0864
22372W        W26772   2.907   2.060  25.914  0.0716  0.1527  0.1805
22373W        W26773   7.348   4.893  26.772  0.0521 -0.1839 -0.0589
22374W        W26774   9.738   1.623  16.639  0.0033  0.0242 -0.0756
22375W        W26775  17.931   4.932  24.616  0.0624  0.0494 -0.1865
22376W        W26776   5.387   2.956   1.729 -0.0854  0.0203 -0.0914
22377W        W26777   5.061   1.444  26.081  0.0012  0.5777  0.0020
22378W        W26778  14.819   7.443   4.841 -0.0189 -0.0769  0.0033
22379W        W26779  14.721   2.798  27.601 -0.3774 -0.2789  0.2345
22380W        W26780   4.249   5.793  16.709 -0.0670  0.0939  0.3150
22381W        W26781  22.818   3.349  25.492 -0.1006 -0.0075  0.0909
22382W        W26782  18.764   5.032  28.604 -0.2760 -0.1602 -0.0112
22383W        W26783  19.722   7.111  23.883 -0.1149 -0.1233  0.0573
22384W        W26784  11.554   2.990  23.377 -0.3603  0.3132 -0.0105
22385W        W26785   6.541   1.803  20.347 -0.0252  0.1743  0.4437
22386W        W26786   7.290   5.178  17.850  0.2892 -0.3650 -0.0765
22387W        W26787  20.965   6.625   6.294 -0.4415  0.0824 -0.0259
22388W        W26788  19.675   5.054   3.523 -0.0957  0.1257 -0.2823
22389W        W26789  20.293   6.517   5.922 -0.1761 -0.0086  0.2663
22390W        W26790   1.731   4.986  30.110 -0.3160 -0.0389  0.2713
22391W        W26791  23.192   7.597  11.762  0.0818 -0.0289  0.0725
22392W        W26792  11.825   6.018   2.099  0.1228  0.1837  0.1341
22393W        W26793  23.167   2.843  24.690  0.0207  0.0652  0.1367
22394W        W26794  17.815   1.051  15.083 -0.1928 -0.2329  0.1353
22395W        W26795  19.681   2.590  11.258  0.0215 -0.0823 -0.0641
22396W        W26796  13.192   1.159  23.576  0.1180 -0.3156 -0.0868
22397W        W26797   4.995   0.451  30.471 -0.2339  0.1089 -0.0263
22398W        W26798   0.029   0.822   2.349 -0.0886  0.0556  0.3732
22399W        W26799  24.949   4.179   3.899 -0.0410 -0.2546 -0.2132
22400W        W26800   5.914   5.754  17.194 -0.1971  0.0312  0.0777
22401W        W26801  18.339   7.742  15.353 -0.3784  0.2982  0.1817
22402W        W26802  17.613   3.416  13.219 -0.1472 -0.1807  0.1801
22403W        W26803  18.595   5.689  17.585  0.0568  0.0892 -0.2311
22404W        W26804  16.231   0.140  27.440  0.0045  0.2035 -0.2740
22405W        W26805   3.151   1.410   0.334 -0.1677 -0.2239  0.3315
22406W        W26806  10.627   0.076   8.726 -0.0005  0.2933 -0.0696
22407W        W26807  14.554   6.992  28.411 -0.0828  0.0786 -0.0448
22408W        W26808  12.547   6.829   4.663 -0.0163  0.1367 -0.3157
22409W        W26809   8.247   7.011   9.617 -0.2566 -0.0821  0.1441
22410W        W26810  12.573   2.785  22.514  0.3995  0.1894 -0.3807
22411W        W26811  24.180   4.616   0.441  0.1683 -0.0252  0.1447
22412W        W26812   0.897   7.018  26.340  0.0101  0.0640  0.2950
22413W        W26813   7.083   0.898  19.458 -0.2533  0.0238  0.0952
22414W        W26814  19.345   5.753   1.542  0.0461 -0.2369 -0.2833
22415W        W26815   7.926   1.837  27.146  0.1447 -0.1696  0.2185
22416W        W26816   9.142   0.157   3.703  0.3897  0.0270  0.2067
22417W        W26817   8.931   4.557  21.398 -0.3354 -0.1028 -0.1609
22418W        W26818  19.890   5.383  17.453 -0.1002  0.0681  0.1113
22419W        W26819   8.648   7.713  18.728 -0.1971  0.2337 -0.2079
22420W        W26820   8.138   5.705  28.814 -0.2385 -0.1049 -0.0488
22421W        W26821  19.236   6.577  11.505  0.1045 -0.0792 -0.1022
22422W        W26822  17.977   4.115  28.719  0.1796  0.0316  0.0459
22423W        W26823   4.568   2.686  27.574 -0.2101  0.0490 -0.1216
22424W        W26824  15.178   2.348  25.258 -0.2389  0.2270 -0.1010
22425W        W26825  12.085   1.436   5.763  0.0645 -0.0113 -0.1675
22426W        W26826   1.514   2.584  21.687  0.0083  0.0405 -0.1437
22427W        W26827  23.018   1.351  30.731  0.0860 -0.0021  0.0060
22428W        W26828   2.221   3.804   7.891 -0.0925 -0.1348 -0.2083
22429W        W26829  10.146   4.347   4.654 -0.2490 -0.1062 -0.2453
22430W        W26830  18.243   7.329   4.018  0.0896  0.1397 -0.3077
22431W        W26831   1.692   1.944   2.891 -0.1357 -0.2895  0.1225
22432W        W26832   9.446   6.497  20.808 -0.1176 -0.1932 -0.1154
22433W        W26833  11.452   1.670   9.988 -0.1535 -0.0521 -0.0858
22434W        W26834  13.190   6.773  31.679 -0.0248 -0.1961 -0.0236
22435W        W26835  20.747   1.515   4.387 -0.3949  0.1051  0.1351
22436W        W26836  11.009   7.566   9.853  0.2805  0.3377  0.1201
22437W        W26837   2.707   7.222  26.810 -0.0070  0.1557  0.4329
22438W        W26838  20.905   2.165  28.513  0.4669 -0.0407  0.0536
22439W        W26839  13.381   5.916  26.262  0.3966 -0.0614  0.2199
22440W        W26840   8.861   7.648  19.221 -0.2350 -0.1273 -0.0125
22441W        W26841  17.614   7.608   9.534 -0.0130 -0.0059 -0.2436
22442W        W26842  15.397   0.274   8.523 -0.0743  0.2065  0.2258
22443W        W26843   3.547   6.642   4.095 -0.0944 -0.2868  0.1683
22444W        W26844   2.771   4.149  23.603 -0.0680 -0.0410 -0.0381
22445W        W26845  20.319   6.348  28.038 -0.1418 -0.0077  0.0757
22446W        W26846  10.855   4.372   3.472  0.2508  0.1582 -0.0452
22447W        W26847   2.880   0.887  29.291 -0.0638  0.3355 -0.1677
22448W        W26848   4.510   5.363  18.184  0.0464  0.2966  0.2701
22449W        W26849  19.174   1.355  17.978  0.1784 -0.2111  0.2378
22450W        W26850  11.603   0.982   7.984 -0.2611 -0.2533 -0.1039
22451W        W26851   6.519   4.453  26.914 -0.0767  0.0553  0.0337
22452W        W26852  24.577   1.668   5.891 -0.0082 -0.0537  0.2497
22453W        W26853  17.717   4.805  25.054  0.1196  0.0312  0.4091
22454W        W26854  16.334   3.505  29.545 -0.0188 -0.1451  0.0493
22455W        W26855  10.291   1.784  17.687 -0.1261  0.0400  0.0339
22456W        W26856   6.208   1.553  18.321  0.1905  0.0201  0.1667
22457W        W26857   9.832   0.399   7.586  0.0231 -0.0134  0.0979
22458W        W26858   5.882   3.592   1.052 -0.0234 -0.1754 -0.0923
22459W        W26859   8.460   2.623  25.640 -0.0135  0.3518  0.0334
22460W        W26860  22.040   7.740  11.590 -0.3483 -0.2788  0.0100
22461W        W26861   0.682   5.330   0.923 -0.2497  0.1230 -0.0024
22462W        W26862  18.014   5.438  29.012 -0.0862  0.0914  0.1093
22463W        W26863  21.950   1.330  29.264  0.1215  0.0329 -0.2902
22464W        W26864  14.821   3.580  13.896  0.0199 -0.1391  0.3591
22465W        W26865  11.834   1.093  31.939  0.0214  0.0940 -0.0498
22466W        W26866   0.889   2.026   7.360 -0.1925 -0.0672  0.0220
22467W        W26867  23.854   7.016  26.810 -0.1026  0.1995  0.1280
22468W        W26868   6.424   0.118  19.545  0.2207  0.2886  0.0906
22469W        W26869  14.594   2.290  32.009 -0.1645 -0.0303 -0.0975
22470W        W26870  21.213   2.091  14.040  0.1277  0.1273 -0.1271
22471W        W26871  13.598   4.660  23.005 -0.1652 -0.0183 -0.0146
22472W        W26872   6.899   5.688   2.941 -0.0490  0.2152 -0.5189
22473W        W26873   6.479   3.704  29.637  0.0436 -0.1193  0.2153
22474W        W26874   3.737   0.591   0.323  0.0460  0.3706  0.1395
22475W        W26875  12.382   6.334  28.550  0.0043 -0.2006 -0.0362
22476W        W26876   7.607   2.348  16.865  0.0555 -0.1386 -0.0951
22477W        W26877  20.219   3.334   4.646 -0.0423  0.2095  0.1948
22478W        W26878  13.767   4.525  31.747  0.0176 -0.0256  0.1322
22479W        W26879  14.562   6.650  22.206  0.1696 -0.0519  0.0012
22480W        W26880  21.021   4.336  14.259 -0.0050  0.0858  0.0398
22481W        W26881  14.253   1.246   4.775  0.2002  0.0965 -0.0249
22482W        W26882  18.361   4.890   7.632 -0.3458 -0.0319  0.1081
22483W        W26883  17.533   6.731  32.062 -0.0007  0.1072 -0.2016
22484W        W26884  14.362   2.431   3.301  0.1547 -0.2394  0.1620
22485W        W26885  18.364   6.836  26.028  0.0790 -0.1066 -0.1911
22486W        W26886   3.991   2.860  21.155  0.0149  0.3500 -0.1846
22487W        W26887  15.551   4.889   8.150  0.1792  0.1501 -0.0590
22488W        W26888  17.449   5.172   8.878  0.0283  0.0220  0.2399
22489W        W26889  11.777   5.118  26.123  0.0610 -0.0897 -0.1924
22490W        W26890   6.747   4.318  16.816  0.0160  0.0669 -0.2015
22491W        W26891   3.634   5.798   4.374  0.1272  0.2429  0.4736
22492W        W26892  14.149   6.335  28.000  0.0087  0.1025 -0.0346
22493W        W26893  23.423   7.033   1.724 -0.1781 -0.1376  0.2813
22494W        W26894  25.073   7.345  21.377 -0.0448  0.1846 -0.0146
22495W        W26895   4.121   2.894   9.859 -0.0498 -0.1026  0.2544
22496W        W26896   5.603   4.763   7.362  0.0546 -0.2574 -0.0076
22497W        W26897   9.267   4.373  30.853 -0.0012 -0.0379 -0.1830
22498W        W26898  22.618   0.715   5.387 -0.0569  0.0892  0.1769
22499W        W26899  22.944   2.463  14.044 -0.0830  0.1056 -0.0627
22500W        W26900  10.334   0.414  23.244 -0.0536  0.0578  0.3579
22501W        W26901   4.851   5.035  25.304  0.1153 -0.2010 -0.1150
22502W        W26902   0.593   7.790  24.774  0.2275  0.0025 -0.0198
22503W        W26903   0.398   7.096  11.237 -0.3082  0.0097 -0.0195
22504W        W26904  11.023   5.652   3.130 -0.0918 -0.3134 -0.0109
22505W        W26905  11.652   7.384  22.505 -0.0739  0.0345  0.1745
22506W        W26906  15.106   4.423  24.023  0.0612  0.3802  0.2130
22507W        W26907  13.924   3.160  21.665 -0.0800 -0.0090 -0.1702
22508W        W26908  13.814   1.922   7.896 -0.1851  0.0499  0.0863
22509W        W26909  16.157   0.070  23.568  0.1611 -0.1190 -0.1123
22510W        W26910  24.204   4.312  24.719 -0.0315 -0.1278 -0.0642
22511W        W26911  17.078   1.361  29.982 -0.0685 -0.1143  0.0853
22512W        W26912  13.774   6.363  21.048 -0.2909 -0.1048 -0.0132
22513W        W26913  13.472   1.944  24.415  0.0238  0.0355  0.1286
22514W        W26914  13.785   0.217  24.916 -0.2044 -0.0092 -0.0061
22515W        W26915   6.744   6.966  25.156 -0.1113  0.1608 -0.1217
22516W        W26916   1.920   5.845  11.503  0.3312 -0.1406  0.4042
22517W        W26917  19.189   7.260  31.535 -0.2126  0.0456  0.2585
22518W        W26918  14.494   2.449  15.040 -0.0444  0.0735  0.2118
22519W        W26919   7.095   6.089   4.447  0.0637  0.3626  0.1068
22520W        W26920  19.739   5.620  24.443 -0.1362  0.2375 -0.0074
22521W        W26921   4.482   4.866  17.242  0.1465 -0.0727 -0.3089
22522W        W26922  17.906   6.529   6.556 -0.2164 -0.2243  0.0493
22523W        W26923   2.150   0.358  20.150 -0.0393  0.0020 -0.0351
22524W        W26924   4.778   6.213  28.784  0.1761 -0.1229 -0.1424
22525W        W26925  16.373   6.253  30.777 -0.1696  0.1148 -0.2088
22526W        W26926  24.488   4.281  22.167  0.2237  0.0528  0.1537
22527W        W26927   7.446   0.987  16.588  0.1418  0.1182  0.1501
22528W        W26928   6.798   0.801   2.586 -0.1504  0.0162  0.4151
22529W        W26929  16.862   5.509  26.229 -0.0156 -0.0685  0.1645
22530W        W26930  14.792   1.996  22.793  0.1408  0.1060 -0.1262
22531W        W26931   7.049   2.157   1.396  0.2120 -0.1190 -0.1102
22532W        W26932   3.914   4.290  19.305  0.2085  0.1314 -0.3608
22533W        W26933   7.380   5.852   2.784  0.1664  0.0773 -0.2612
22534W        W26934   4.447   0.806  10.362  0.2700  0.1569  0.0387
22535W        W26935  22.394   6.263  28.078  0.3145  0.0217  0.1547
22536W        W26936  22.781   1.246  10.867  0.0555  0.2149 -0.2927
22537W        W26937   6.493   2.090  21.572  0.1869 -0.0114  0.2229
22538W        W26938  10.318   1.975  26.382 -0.3846 -0.1102 -0.3127
22539W        W26939  18.975   2.677   2.639 -0.3465 -0.1919  0.1181
22540W        W26940   0.204   1.650   9.573 -0.0136 -0.1281  0.1327
22541W        W26941   3.224   2.060   5.571  0.2345 -0.0986 -0.0256
22542W        W26942   3.599   2.262   8.845  0.3330  0.2417 -0.3919
22543W        W26943  20.595   3.220  12.080  0.5307 -0.4426 -0.1365
22544W        W26944  19.680   1.883  10.853 -0.1531  0.2586 -0.1376
22545W        W26945   0.901   0.484  25.683 -0.3643 -0.3925  0.0394
22546W        W26946  20.068   4.140   7.276 -0.0502  0.0700  0.1900
22547W        W26947   4.840   1.008  27.058 -0.2135 -0.1284  0.0380
22548W        W26948  14.806   2.076   4.034  0.0700 -0.0134 -0.0935
22549W        W26949  20.699   5.488  11.263  0.2003  0.2829  0.0204
22550W        W26950  18.199   5.945   4.091 -0.0662 -0.0329 -0.0981
22551W        W26951   9.780   4.200  28.057 -0.0060 -0.1771  0.0651
22552W        W26952   3.618   6.102  19.964 -0.0576 -0.0926  0.0816
22553W        W26953  16.967   5.315  28.521 -0.2414  0.0932 -0.2272
22554W        W26954   1.502   2.550  31.163  0.0752 -0.0379 -0.2061
22555W        W26955  22.751   3.259  13.164  0.0952 -0.4915  0.2002
22556W        W26956  13.383   6.882   1.051  0.0921 -0.1478 -0.0124
22557W        W26957   7.835   0.148  18.087  0.1331 -0.1157  0.0196
22558W        W26958  18.884   1.421  29.370  0.1188 -0.1296  0.1183
22559W        W26959  13.308   6.243  28.291 -0.0591  0.2597  0.1355
22560W        W26960  14.365   3.047  28.952 -0.0138 -0.1110 -0.0544
22561W        W26961  21.099   5.074  24.095  0.0472 -0.1259 -0.0117
22562W        W26962   5.283   3.696  30.629 -0.1822 -0.1673  0.1600
22563W        W26963   8.343   0.055  19.134  0.3348 -0.0668 -0.0599
22564W        W26964  18.623   0.372  24.607 -0.2075  0.0659 -0.1507
22565W        W26965  23.756   1.063  23.741  0.2491  0.1958 -0.0843
22566W        W26966  11.934   0.579   8.269  0.2878  0.0394  0.1454
22567W        W26967  10.747   2.858  31.009  0.1769 -0.0712 -0.0387
22568W        W26968   2.281   4.575   4.243  0.1020  0.0882 -0.0305
22569W        W26969  15.366   2.422   1.087 -0.0970  0.1033  0.1897
22570W        W26970   0.262   6.993   3.041  0.0099 -0.1461  0.1169
22571W        W26971   6.997   4.004  20.644 -0.1333  0.1096 -0.1603
22572W        W26972   0.626   1.092   4.691 -0.1622 -0.1445 -0.0381
22573W        W26973   3.902   0.162   2.417 -0.3527 -0.3284 -0.1979
22574W        W26974   7.272   3.564  29.045  0.1347  0.2868  0.1041
22575W        W26975  14.934   5.899   9.715 -0.0940  0.1817  0.1161
22576W        W26976  23.409   0.247  25.975  0.2284 -0.0667 -0.3108
22577W        W26977   0.698   0.227  29.859  0.0710 -0.0828 -0.0078
22578W        W26978   8.871   4.079  29.062 -0.0830 -0.1398 -0.2263
22579W        W26979   7.661   4.753   1.571  0.2439 -0.1376 -0.0814
22580W        W26980   0.738   7.833  22.904 -0.0207  0.0306 -0.1717
22581W        W26981   8.586   6.881  24.708 -0.0230 -0.2736 -0.1700
22582W        W26982  23.502   7.095   0.137 -0.1694 -0.1348 -0.1363
22583W        W26983  17.240   1.421  28.789 -0.3474 -0.0120 -0.1837
22584W        W26984   2.522   5.211  26.115  0.1164 -0.0489 -0.1161
22585W        W26985  17.579   4.685  30.806  0.0860  0.1459  0.3329
22586W        W26986   0.482   0.656  11.969 -0.3813  0.0991 -0.1494
22587W        W26987  16.934   4.809  13.638  0.0943  0.1724 -0.0779
22588W        W26988  12.332   2.948  29.005  0.1122 -0.2823 -0.2114
22589W        W26989  11.323   1.298  18.893  0.1686  0.2900 -0.0820
22590W        W26990   4.192   7.655   7.073 -0.0649  0.3340 -0.0678
22591W        W26991  16.123   5.103   8.605 -0.2539 -0.0194 -0.0118
22592W        W26992   7.642   1.221  31.452 -0.1332 -0.2735 -0.1533
22593W        W26993   7.186   2.110  18.041 -0.0633  0.0020  0.1312
22594W        W26994  25.084   2.518  28.122  0.0617  0.0792  0.1276
22595W        W26995   2.064   3.167  22.746  0.1335 -0.0260 -0.1479
22596W        W26996  11.522   0.057   5.107 -0.1741  0.1610 -0.0092
22597W        W26997   0.302   3.753   0.594  0.0171  0.0392  0.3231
22598W        W26998  11.311   2.776   9.562  0.1620  0.0916 -0.0442
22599W        W26999  18.045   2.832  23.792 -0.1131 -0.0053  0.2309
22600W        W27000  24.784   1.325   7.629  0.1136  0.1076 -0.0820
22601W        W27001   1.822   5.226  19.822  0.3556 -0.2330 -0.1423
22602W        W27002   2.156   6.891  29.243  0.0071 -0.0723 -0.0853
22603W        W27003  15.099   1.624   4.941  0.2466 -0.2405  0.3594
22604W        W27004   9.786   0.620   5.266  0.0304 -0.0722 -0.0012
22605W        W27005   7.563   6.864   5.227  0.0544  0.2063  0.2672
22606W        W27006  19.193   2.901  12.589 -0.0093  0.0369 -0.1237
22607W        W27007  19.002   4.962   0.213 -0.1390  0.1585  0.4208
22608W        W27008  16.135   4.602  10.067  0.0910  0.0408  0.2533
22609W        W27009  20.475   0.430  14.016  0.0031  0.1240  0.0313
22610W        W27010  14.377   7.259   3.354 -0.2601 -0.1211  0.2843
22611W        W27011   8.560   6.467   2.004  0.0109 -0.0597  0.0286
22612W        W27012   5.228   2.544   9.095 -0.3133 -0.0891  0.0916
22613W        W27013  14.517   3.546   9.933  0.1930 -0.0096 -0.2823
22614W        W27014  24.600   3.059   2.467  0.1116 -0.1491 -0.2375
22615W        W27015   7.820   0.462   3.851 -0.0653  0.1097 -0.0122
22616W        W27016  23.372   0.735   3.255 -0.0801 -0.1189 -0.2643
22617W        W27017   5.933   6.797   7.751  0.5407  0.0876 -0.2233
22618W        W27018  10.555   2.717   2.650 -0.2297  0.0625 -0.2627
22619W        W27019  14.293   6.760   3.437  0.1439 -0.2166 -0.1476
22620W        W27020  20.449   5.036  17.008 -0.1675  0.2625  0.0275
22621W        W27021   2.323   2.506  18.414 -0.1107 -0.0688  0.0999
22622W        W27022  11.876   5.614   2.442 -0.0320 -0.1792  0.0635
22623W        W27023   0.263   2.851  25.173  0.0829  0.1583 -0.0306
22624W        W27024  12.380   6.016   7.200 -0.1363  0.1756  0.1256
22625W        W27025  20.271   6.158  14.565 -0.1420 -0.0809 -0.1075
22626W        W27026   4.398   1.915  19.428  0.2705  0.0279 -0.1365
22627W        W27027  24.545   4.006   3.621  0.2493  0.0971  0.1969
22628W        W27028   8.947   7.449  31.111  0.0673 -0.0969  0.3413
22629W        W27029   9.847   5.197  16.759  0.2067 -0.1007 -0.1665
22630W        W27030   3.091   6.192  32.363  0.0272  0.0113  0.1710
22631W        W27031  20.132   7.824  17.544  0.0371  0.1652 -0.2707
22632W        W27032   0.571   0.052  27.313 -0.0029  0.1112 -0.0125
22633W        W27033   9.636   1.011  29.221  0.2106  0.1300 -0.0711
22634W        W27034  15.000   2.971  11.269 -0.1996 -0.0837  0.0434
22635W        W27035  24.045   7.401  30.782 -0.2016  0.2013 -0.1447
22636W        W27036   0.384   4.570  25.499 -0.2321 -0.2398 -0.0680
22637W        W27037  10.249   1.772   0.209  0.0891 -0.2176 -0.1752
22638W        W27038  25.054   7.258   8.126  0.3194 -0.4082  0.1434
22639W        W27039  10.111   1.392  19.255  0.1225 -0.2628  0.6436
22640W        W27040  12.155   6.243   9.241  0.2266  0.0324  0.0553
22641W        W27041  21.784   1.009  26.012  0.1450 -0.0566 -0.1981
22642W        W27042  12.060   5.858  20.879 -0.0414 -0.0816 -0.0647
22643W        W27043  14.738   0.261   8.955 -0.0253 -0.2281  0.0491
22644W        W27044  17.700   0.297   8.308  0.1509  0.1774 -0.2318
22645W        W27045   1.968   6.412  22.490  0.0657  0.0132  0.3370
22646W        W27046  18.141   1.758  28.313  0.1462 -0.2249  0.1232
22647W        W27047  13.533   1.460  11.644  0.1958  0.1254  0.0757
22648W        W27048  10.338   6.235  22.832 -0.2934  0.0522  0.1747
22649W        W27049   7.698   0.624   5.163 -0.3304 -0.0728  0.3440
22650W        W27050   6.005   0.798  28.885 -0.1622 -0.4301  0.1121
22651W        W27051   0.739   4.376   7.147  0.1629  0.1243  0.1150
22652W        W27052   2.070   0.641  17.512 -0.2547  0.1967  0.0025
22653W        W27053   6.553   7.135   2.665 -0.2085  0.1922  0.1245
22654W        W27054   0.060   4.411  29.737 -0.1036 -0.0972 -0.0626
22655W        W27055  13.861   6.585   6.513 -0.0815  0.2592 -0.0142
22656W        W27056  15.977   4.593  32.102  0.3519 -0.0653 -0.0583
22657W        W27057   4.990   4.710  23.604  0.5537 -0.1763 -0.0863
22658W        W27058  12.441   0.162  18.628 -0.1363  0.3377  0.0367
22659W        W27059   6.960   3.540   5.206  0.3628  0.1690  0.2715
22660W        W27060  21.941   3.333   7.149  0.4159 -0.0577  0.0894
22661W        W27061  11.847   5.188   3.652  0.1950 -0.0064 -0.1064
22662W        W27062  14.448   0.870  32.039  0.1726 -0.0311  0.1172
22663W        W27063  22.067   0.789  27.798 -0.0460 -0.2201 -0.0132
22664W        W27064  15.069   0.566  13.468 -0.0902 -0.0367 -0.3197
22665W        W27065  24.776   7.660   8.807 -0.1650 -0.0775  0.0362
22666W        W27066   4.017   5.659   4.669 -0.0582 -0.0272  0.0914
22667W        W27067  23.083   0.324  30.654 -0.0985  0.2683 -0.1470
22668W        W27068  25.104   1.888   3.741  0.1504  0.1325  0.0940
22669W        W27069   8.601   6.618   8.615 -0.0195  0.2884 -0.0883
22670W        W27070   3.893   1.394   5.944 -0.1216  0.0030  0.2435
22671W        W27071   9.990   1.376   9.045 -0.1372 -0.2329 -0.1638
22672W        W27072   0.025   1.513   8.544 -0.0774 -0.2232 -0.1938
22673W        W27073  11.776   3.748  25.221 -0.0609 -0.3514 -0.0735
22674W        W27074  20.507   2.691   5.173 -0.1216  0.0056  0.0090
22675W        W27075   9.438   3.595   8.352  0.0843 -0.0022 -0.2166
22676W        W27076  14.976   5.857  28.395 -0.2837 -0.1207 -0.1125
22677W        W27077   5.672   3.502  10.066  0.0622 -0.0775  0.3474
22678W        W27078  13.721   0.129   4.962 -0.2142 -0.1182  0.2940
22679W        W27079  19.742   2.080  16.272 -0.0458  0.0976  0.3585
22680W        W27080  17.154   2.187  32.318 -0.0774 -0.0550 -0.2295
22681W        W27081   5.200   6.021  23.061 -0.0628 -0.3741  0.1547
22682W        W27082  10.708   6.616   5.545  0.2178  0.1219 -0.1740
22683W        W27083  21.497   3.790  12.019 -0.0011  0.0059  0.2251
22684W        W27084  17.095   5.495   5.479 -0.1457  0.1349  0.4451
22685W        W27085  20.787   2.926   3.106 -0.1870  0.0323 -0.0049
22686W        W27086   6.022   7.682  23.784  0.0686 -0.0584  0.3163
22687W        W27087   6.905   0.379  18.308 -0.2452  0.0249 -0.1331
22688W        W27088  20.761   7.563   5.877  0.2568 -0.0345  0.1074
22689W        W27089   9.345   2.465  15.471  0.2035 -0.0574 -0.0602
22690W        W27090  23.342   4.531   5.834 -0.0274  0.0439  0.2768
22691W        W27091  15.754   0.888  13.392 -0.1452 -0.1094  0.0515
22692W        W27092   3.838   5.139   1.122  0.0536 -0.0739 -0.2275
22693W        W27093  19.734   0.099  26.510 -0.2893 -0.0025  0.1064
22694W        W27094  21.039   2.567  26.354  0.0116 -0.0759  0.1479
22695W        W27095  17.278   0.545  27.873  0.0577 -0.2022  0.1372
22696W        W27096   5.061   3.413  27.510  0.5028  0.4055 -0.0102
22697W        W27097   0.142   4.199   2.847 -0.1875  0.0583  0.2385
22698W        W27098  15.949   6.712   7.980  0.3100 -0.4025  0.2596
22699W        W27099  22.881   6.470  14.711  0.0275  0.1266 -0.0786
22700W        W27100  19.660   3.230  31.270  0.1163 -0.0170 -0.1594
22701W        W27101   1.682   3.545  32.274 -0.2239 -0.0135  0.1025
22702W        W27102  19.360   7.422  15.099 -0.1598  0.0260  0.2386
22703W        W27103  18.370   1.192   6.935 -0.0340  0.0469 -0.0391
22704W        W27104  20.109   4.322  26.037 -0.1290  0.0738 -0.1780
22705W        W27105  20.837   1.611  14.811  0.4209 -0.3247 -0.0797
22706W        W27106  24.785   4.499   8.927  0.0352 -0.1477 -0.0511
22707W        W27107   1.574   0.012   5.960 -0.0353  0.2231  0.1048
22708W        W27108  16.645   1.661   1.439  0.1227 -0.2005 -0.0509
22709W        W27109   7.083   5.999   3.923  0.1562 -0.0746 -0.1780
22710W        W27110   3.585   3.804   6.035  0.0594 -0.0599 -0.0121
22711W        W27111   3.546   2.054  18.925 -0.1373  0.0214  0.0067
22712W        W27112  22.416   1.385  15.576  0.1239 -0.0171  0.1073
22713W        W27113   6.940   6.285  20.010 -0.2324  0.0479  0.0945
22714W        W27114  12.295   5.615  24.011  0.0795 -0.0829 -0.1527
22715W        W27115  17.048   4.061   0.478 -0.4899 -0.0201 -0.0780
22716W        W27116  15.773   4.512  24.662 -0.1619  0.2231  0.0844
22717W        W27117  11.239   4.495   4.705  0.2195 -0.0178 -0.0164
22718W        W27118  23.225   4.269  29.001 -0.3407 -0.1074  0.0925
22719W        W27119   3.255   4.917  28.567  0.3297  0.2194 -0.0078
22720W        W27120  17.028   0.961  16.418 -0.1602 -0.1720  0.2353
22721W        W27121  22.264   6.421   5.641 -0.1293  0.0251 -0.1822
22722W        W27122  10.144   6.743  20.245  0.1009 -0.1813 -0.0877
22723W        W27123   0.996   5.058   5.539  0.1759 -0.0741 -0.0117
22724W        W27124  17.664   1.327  14.529 -0.3964 -0.2515 -0.1931
22725W        W27125   1.857   3.570   3.346  0.1112  0.1187  0.0314
22726W        W27126  23.706   2.003  26.561 -0.0499 -0.4239 -0.1781
22727W        W27127  17.490   4.999  30.423 -0.0587 -0.0718  0.1684
22728W        W27128  10.592   5.039   9.837  0.1493  0.2202 -0.4889
22729W        W27129  18.961   2.696  17.223 -0.3316  0.0269  0.2738
22730W        W27130   8.712   1.208  14.848 -0.0707 -0.1821  0.0103
22731W        W27131  10.703   1.946   1.072 -0.1611  0.0890  0.1660
22732W        W27132  18.302   1.388   5.990 -0.1320 -0.1976 -0.2136
22733W        W27133   2.226   0.827  26.544 -0.1234  0.0890 -0.1719
22734W        W27134  20.952   2.422  31.542  0.4331  0.0094  0.0410
22735W        W27135   3.864   1.887  16.570  0.0218 -0.0613  0.1255
22736W        W27136   7.708   2.040  25.937  0.0340  0.0112  0.0138
22737W        W27137  15.425   4.332   4.053  0.2466 -0.0956  0.1299
22738W        W27138  12.735   2.362   2.013 -0.2064  0.0652  0.1308
22739W        W27139  20.759   2.980  15.945  0.3644 -0.1989  0.0714
22740W        W27140   9.425   6.604  28.999  0.2925 -0.2510 -0.0328
22741W        W27141   1.302   1.836  30.498 -0.0367 -0.1116 -0.0154
22742W        W27142   3.053   5.551  17.235 -0.0529 -0.2119  0.1086
22743W        W27143  17.230   6.642   8.518  0.2023  0.2334 -0.0419
22744W        W27144  11.531   4.286  26.762  0.3423 -0.3720 -0.0453
22745W        W27145   9.945   4.625  29.118 -0.2157 -0.0838  0.0688
22746W        W27146   8.372   6.163   9.754  0.1518 -0.0535  0.3237
22747W        W27147  12.108   4.131  19.349 -0.0731 -0.1813 -0.2316
22748W        W27148  14.875   5.885  13.316 -0.1257 -0.0035 -0.3954
22749W        W27149   9.384   1.356  16.957  0.2080  0.0737  0.0606
22750W        W27150   5.419   6.571  16.148 -0.1463  0.0924  0.1463
22751W        W27151  11.858   3.241  27.542  0.0846  0.0198  0.1070
22752W        W27152   6.985   6.138  25.826  0.0456 -0.0357 -0.1160
22753W        W27153   6.844   3.100  17.827  0.1258  0.3239  0.1195
22754W        W27154  12.643   2.889  26.197 -0.0247  0.0069  0.0411
22755W        W27155   0.712   6.340  26.594 -0.2771 -0.1174  0.0873
22756W        W27156   6.155   0.215   1.260 -0.1236 -0.1367 -0.0780
22757W        W27157  15.425   7.358  26.940 -0.0379  0.1859  0.0720
22758W        W27158   1.281   4.684  26.055 -0.2073 -0.0850 -0.1532
22759W        W27159  19.635   4.120   5.954  0.0729 -0.1226  0.3672
22760W        W27160  10.047   2.149  31.448 -0.1070  0.3149  0.0562
22761W        W27161  10.335   3.147   0.438 -0.2649 -0.3615 -0.0283
22762W        W27162  11.549   7.646  26.729  0.0990 -0.0725 -0.1881
22763W        W27163  17.524   2.564  32.236 -0.0462  0.1634  0.0685
22764W        W27164  20.207   4.324   3.553 -0.1953 -0.0412  0.6211
22765W        W27165  14.382   0.629   0.826 -0.2252  0.0509  0.0198
22766W        W27166  13.583   4.565   2.161  0.0649 -0.2782 -0.1505
22767W        W27167  23.156   7.581  25.322 -0.1663 -0.1163 -0.0970
22768W        W27168   0.134   6.690  30.499  0.0172  0.0689 -0.1208
22769W        W27169  21.829   4.561   1.370  0.2054 -0.1230  0.0892
22770W        W27170  23.137   5.680   4.124 -0.1432 -0.2443  0.1009
22771W        W27171  18.652   0.707  31.542 -0.1557 -0.0895  0.0159
22772W        W27172   2.702   6.307  10.991  0.0288  0.0853 -0.3538
22773W        W27173  21.033   3.147   1.242 -0.0371 -0.2748 -0.0182
22774W        W27174   8.348   4.670  19.939 -0.0308  0.1262  0.2404
22775W        W27175   0.715   5.916   8.427  0.0652  0.2838 -0.0598
22776W        W27176   2.905   4.740  20.881 -0.1611 -0.1833 -0.2629
22777W        W27177  17.230   1.583  23.701  0.2057 -0.2796 -0.1585
22778W        W27178   7.627   2.428   5.415  0.2698 -0.2897 -0.1132
22779W        W27179  19.456   0.427  15.104 -0.0935  0.0950 -0.0847
22780W        W27180  13.236   4.981   0.635  0.1208 -0.1075 -0.0094
22781W        W27181  14.774   4.839  24.443  0.1207  0.0919 -0.1315
22782W        W27182   9.864   2.591  16.640  0.0528  0.1016  0.2135
22783W        W27183  10.237   7.269   5.193 -0.3305  0.2729  0.0491
22784W        W27184  18.453   0.659  12.329  0.1092  0.2973 -0.0576
22785W        W27185  23.413   7.705   3.973 -0.2127 -0.2779  0.1935
22786W        W27186   6.227   1.261  29.322 -0.1867  0.0678  0.0166
22787W        W27187  15.283   5.522  23.160  0.0251  0.1164 -0.2291
22788W        W27188  20.974   4.481  24.398 -0.0975 -0.1088 -0.0061
22789W        W27189  15.081   7.455   9.549  0.2609  0.0586  0.0220
22790W        W27190  23.674   2.537   3.099 -0.0491  0.1977 -0.0311
22791W        W27191  10.234   5.112   9.494  0.1257  0.0756  0.0042
22792W        W27192   4.107   1.462  22.411  0.1425 -0.0377  0.1466
22793W        W27193   7.199   0.036   0.390 -0.1328 -0.1439 -0.0439
22794W        W27194  24.118   6.033  24.602  0.1084 -0.0600  0.1330
22795W        W27195   8.202   5.617   1.290 -0.1364 -0.0358 -0.0257
22796W        W27196  11.727   3.019  11.849  0.3004  0.3032 -0.0865
22797W        W27197  17.526   0.911  32.450 -0.2079  0.0613 -0.0146
22798W        W27198  13.692   0.499  21.354 -0.1434 -0.0506 -0.0763
22799W        W27199   4.605   3.084  16.150 -0.3037  0.1739  0.1483
22800W        W27200  17.877   5.436  10.356  0.0202 -0.0677  0.0969
22801W        W27201  20.882   5.157  15.352 -0.0392 -0.1327 -0.0503
22802W        W27202  17.637   3.784  26.577 -0.0969 -0.0724  0.1035
22803W        W27203   1.863   7.732  27.481  0.2010  0.1078 -0.0190
22804W        W27204  11.316   0.439   0.193  0.0143  0.0364 -0.2938
22805W        W27205  21.833   2.286  22.872  0.1053  0.0820 -0.2705
22806W        W27206  13.750   6.178   1.221  0.1688  0.1650 -0.0483
22807W        W27207  12.447   2.080  18.863 -0.2266 -0.2378  0.1746
22808W        W27208  17.226   5.829  15.496 -0.2717  0.2017 -0.0426
22809W        W27209  10.373   3.509  18.995  0.0236 -0.0211  0.1843
22810W        W27210  19.098   3.765  30.810 -0.5300 -0.0406  0.3439
22811W        W27211  21.257   2.760   2.902  0.1912 -0.2873  0.0472
22812W        W27212  15.009   4.270   9.440  0.2515 -0.3719  0.0515
22813W        W27213  22.594   6.862  22.126  0.2126  0.0770  0.1082
22814W        W27214  11.098   0.434   4.273 -0.0997 -0.2567 -0.0228
22815W        W27215   6.393   6.206   6.780 -0.0848 -0.2597 -0.1219
22816W        W27216   7.417   1.630   4.718 -0.0392  0.0313 -0.0275
22817W        W27217  13.363   5.396   1.665  0.1058  0.2596 -0.0339
22818W        W27218  16.884   4.857   8.892 -0.0830  0.1166  0.3326
22819W        W27219  10.368   5.690  18.375 -0.3582 -0.2100 -0.1653
22820W        W27220  13.276   1.397   8.449  0.0313 -0.0352 -0.4195
22821W        W27221  16.071   2.232   6.733  0.0720 -0.2412  0.0707
22822W        W27222  15.367   0.363   9.853 -0.3576  0.0271 -0.1884
22823W        W27223   8.513   2.236   7.742  0.0488 -0.0780 -0.0272
22824W        W27224   3.785   3.599  10.632 -0.4002  0.2783  0.2303
22825W        W27225  17.623   6.980   8.397 -0.0138  0.1996  0.0188
22826W        W27226  18.302   3.533   4.671  0.1477 -0.0333  0.0443
22827W        W27227  24.526   4.411   4.759  0.2361 -0.0766  0.0924
22828W        W27228  11.099   5.319  18.697  0.2713  0.1974  0.1958
22829W        W27229   4.379   4.446  20.587  0.1472 -0.2655 -0.1700
22830W        W27230   6.722   1.143   6.020  0.2033  0.1965 -0.2211
22831W        W27231   6.868   2.520  29.048  0.0849 -0.0695 -0.0239
22832W        W27232  19.275   2.570  26.313 -0.1150  0.0338 -0.1187
22833W        W27233  16.107   4.634   8.305  0.1240 -0.0936 -0.1901
22834W        W27234   1.357   3.632  12.840 -0.2585 -0.2807  0.0946
22835W        W27235   7.657   7.278  17.533  0.2454 -0.3008 -0.4539
22836W        W27236   5.725   5.697  27.417 -0.2454  0.0147  0.1214
22837W        W27237   0.764   1.425   4.284 -0.3965 -0.0175  0.0580
22838W        W27238   0.788   4.484  21.858 -0.1430  0.0798  0.1813
22839W        W27239   4.517   0.179  18.787 -0.0122 -0.4739  0.4301
22840W        W27240  14.878   5.038   8.277  0.1227  0.0246  0.4540
22841W        W27241  19.948   1.468   9.623  0.2000  0.0254  0.1746
22842W        W27242   2.506   2.887  31.746  0.0271 -0.1808  0.0140
22843W        W27243  22.658   2.155   8.835  0.0913 -0.0141  0.0002
22844W        W27244  15.454   2.580  22.433  0.2753 -0.0961  0.0712
22845W        W27245   4.900   4.870  24.398 -0.1752 -0.1888  0.3942
22846W        W27246  10.821   4.137  31.104 -0.0636 -0.0418 -0.0534
22847W        W27247   4.255   2.339  28.387  0.2689  0.2045 -0.1188
22848W        W27248   4.984   4.091   2.684  0.0392  0.2227  0.2102
22849W        W27249  22.770   3.120  32.376  0.3445 -0.3191  0.0525
22850W        W27250  24.345   2.165  29.727  0.2321  0.0308 -0.2598
22851W        W27251  13.997   2.313  32.250 -0.1426  0.0642 -0.0863
22852W        W27252  15.597   6.571  25.504 -0.0073  0.0301  0.0621
22853W        W27253  13.679   1.865   5.145 -0.1053 -0.2113 -0.2329
22854W        W27254   8.909   2.973   2.816 -0.0409  0.1014  0.4091
22855W        W27255   5.329   1.656   1.716  0.1139 -0.1849 -0.1054
22856W        W27256   7.292   1.889  19.878 -0.1742  0.1202 -0.0750
22857W        W27257  14.714   2.868  11.639 -0.0699 -0.0547  0.1397
22858W        W27258   4.543   4.984   7.501 -0.2610 -0.0421  0.0803
22859W        W27259   4.373   5.449   0.400  0.2103  0.1059  0.3505
22860W        W27260  21.381   0.111   3.492  0.0169  0.1027 -0.1228
22861W        W27261  24.839   7.775  21.360  0.0109  0.1306 -0.1246
22862W        W27262  18.784   5.928   7.475  0.0875  0.1377 -0.0809
22863W        W27263  17.004   7.169  11.685 -0.0411 -0.2075 -0.3191
22864W        W27264  20.489   1.905  14.465 -0.0445  0.1501  0.1813
22865W        W27265   5.482   3.278   8.608  0.2530 -0.4294  0.3011
22866W        W27266  13.180   3.265   0.074  0.1252 -0.0246 -0.1301
22867W        W27267  10.487   5.559  20.595 -0.0249 -0.1228  0.0364
22868W        W27268  18.622   1.707  17.021  0.0077 -0.2639  0.1319
22869W        W27269   5.717   3.581  22.742  0.1640  0.1347 -0.3362
22870W        W27270   5.748   3.720   5.600  0.0903 -0.2989  0.3470
22871W        W27271  14.189   2.495  10.407 -0.0580 -0.0980  0.0739
22872W        W27272  10.072   1.790  29.334 -0.0132  0.2352  0.0493
22873W        W27273   3.257   0.049  26.520 -0.0291 -0.0354  0.0148
22874W        W27274   9.044   7.520  15.600 -0.0581  0.1291 -0.2206
22875W        W27275   2.502   1.783  28.607  0.2035 -0.0841  0.3277
22876W        W27276  11.781   6.768  24.501  0.0320 -0.0711  0.2697
22877W        W27277   7.106   4.671  16.963 -0.0570 -0.0018 -0.0517
22878W        W27278  23.963   6.511  29.627  0.0397  0.4820 -0.3299
22879W        W27279   3.925   6.607  17.772  0.1416 -0.2836 -0.0119
22880W        W27280   1.049   5.233  31.246  0.5094  0.2139 -0.2311
22881W        W27281  16.154   0.165  26.899  0.1995  0.0854 -0.2938
22882W        W27282   0.102   3.261  31.204 -0.0589 -0.1272  0.1442
22883W        W27283  10.797   0.360   0.117 -0.4186 -0.2519 -0.0128
22884W        W27284  11.666   7.566   6.307 -0.1090  0.0744 -0.2713
22885W        W27285  13.283   6.436   1.180 -0.0853 -0.1186  0.2137
22886W        W27286  22.566   6.229  25.366  0.1966 -0.4600  0.1370
22887W        W27287   4.574   6.249   3.358 -0.0290  0.1121 -0.2163
22888W        W27288  14.274   7.423  22.597 -0.1140 -0.1854 -0.1685
22889W        W27289  15.582   3.699  10.230 -0.3500  0.0786 -0.5760
22890W        W27290   1.930   5.659   2.196 -0.0717 -0.2145 -0.2539
22891W        W27291   5.755   1.449  25.268  0.4810  0.2386 -0.2035
22892W        W27292  17.256   5.226  27.456  0.2383 -0.2781 -0.2083
22893W        W27293   9.736   1.990   1.605 -0.0651 -0.0333  0.0013
22894W        W27294  18.639   4.280   6.781 -0.1283 -0.1544 -0.1942
22895W        W27295  10.220   2.007  26.949 -0.0673 -0.2721 -0.2213
22896W        W27296  20.824   1.211  30.319 -0.1350 -0.1834 -0.1261
22897W        W27297   3.656   1.725  22.843 -0.0843  0.1081  0.0832
22898W        W27298  19.561   1.522   1.096 -0.0420  0.1785 -0.0194
22899W        W27299  24.121   7.340  24.284 -0.0425  0.0986 -0.6136
22900W        W27300  24.678   3.127   8.639  0.2406  0.0949 -0.2769
22901W        W27301   3.175   0.649  22.309  0.0441  0.1194  0.0370
22902W        W27302   7.677   4.611  31.115 -0.1038 -0.2470  0.0790
22903W        W27303  21.584   1.982  23.662 -0.0293  0.1126 -0.1434
22904W        W27304   8.095   7.580   5.079 -0.1812  0.2362 -0.0796
22905W        W27305   8.473   2.860   2.473 -0.1659  0.0663  0.0864
22906W        W27306   3.474   7.019  19.069 -0.3739  0.0262  0.0746
22907W        W27307  11.298   1.961  30.444  0.0597  0.2694 -0.1605
22908W        W27308  22.820   1.347   8.920  0.2521  0.0483  0.1336
22909W        W27309  18.238   0.606   6.987  0.0791 -0.3869  0.2043
22910W        W27310  18.757   3.319   3.485 -0.2186  0.2240  0.2172
22911W        W27311  14.814   2.969  29.801  0.0533  0.0428 -0.0942
22912W        W27312  15.197   6.137  29.878 -0.2291  0.2587  0.1554
22913W        W27313   4.671   1.303   9.747 -0.1314 -0.2630 -0.1693
22914W        W27314   9.310   7.389  17.308  0.1478  0.1540 -0.0144
22915W        W27315  11.010   1.681   0.853 -0.1261  0.0344 -0.1389
22916W        W27316  14.699   6.531  23.461 -0.1652  0.0321 -0.1502
22917W        W27317  16.069   3.744   3.701 -0.2305  0.1661 -0.0699
22918W        W27318   2.621   4.752   9.144  0.0014 -0.1550  0.1010
22919W        W27319  24.595   6.146   3.914  0.0416  0.0669 -0.0428
22920W        W27320   3.945   3.334   2.428 -0.2345  0.1621 -0.0758
22921W        W27321   8.442   0.580  30.137 -0.1993  0.0920 -0.1237
22922W        W27322   5.868   1.437  19.714  0.1121 -0.0999 -0.0592
22923W        W27323  19.734   1.869  14.920  0.0734  0.0074  0.1291
22924W        W27324  25.049   1.778   0.219 -0.0156 -0.0057  0.2225
22925W        W27325  18.026   0.190   1.333 -0.1431  0.1022  0.4075
22926W        W27326   7.152   4.281  18.421 -0.0385  0.2300  0.1289
22927W        W27327   2.606   3.876   0.003  0.1109  0.2098  0.0071
22928W        W27328  14.972   0.529   8.590  0.0612  0.1861 -0.1296
22929W        W27329  18.928   1.425   1.699  0.0908  0.2170  0.0067
22930W        W27330  10.379   3.610  26.284 -0.1583 -0.1387 -0.1450
22931W        W27331  16.290   4.083   0.194  0.0972 -0.1391  0.0315
22932W        W27332   0.827   6.746  31.813 -0.1696  0.0311  0.5856
22933W        W27333   6.268   4.990  19.755 -0.2296 -0.2449  0.2269
22934W        W27334   7.954   5.723  18.427 -0.1563 -0.0226 -0.2701
22935W        W27335  17.098   4.534  16.208  0.0062  0.4914  0.1390
22936W        W27336   1.282   5.263   2.543  0.0116  0.0281  0.2572
22937W        W27337  25.061   2.396  26.597  0.2491 -0.0447 -0.0047
22938W        W27338   6.714   1.154  29.439 -0.1381  0.1197  0.1902
22939W        W27339  14.068   1.152   9.861 -0.2310  0.0462  0.1247
22940W        W27340  23.839   5.399  14.188  0.0499  0.0333  0.2528
22941W        W27341   0.672   4.307  26.952  0.1147 -0.2077  0.1419
22942W        W27342  23.371   4.149  10.691  0.0135  0.0975  0.1035
22943W        W27343   8.330   4.266   7.778  0.0976  0.0258  0.2578
22944W        W27344  18.874   7.445  28.526  0.1147 -0.2479  0.1320
22945W        W27345  11.983   1.279  30.014 -0.1726  0.2936 -0.2851
22946W        W27346  17.115   7.435  10.141 -0.1858  0.1356 -0.1119
22947W        W27347   1.225   6.404  11.675  0.2301  0.0174 -0.1325
22948W        W27348   3.442   7.666  17.637  0.1855  0.1195 -0.0454
22949W        W27349  18.063   0.511  17.158 -0.1152  0.0636 -0.0343
22950W        W27350   9.656   1.310  17.956  0.1167  0.0536 -0.1062
22951W        W27351  21.399   6.226  30.664 -0.1641 -0.1244  0.3415
22952W        W27352   8.042   2.143  20.526  0.0576 -0.0047  0.2335
22953W        W27353  23.817   5.793  25.879  0.1951  0.0111 -0.0052
22954W        W27354  21.980   6.289  32.092 -0.0364  0.2401 -0.0687
22955W        W27355  13.747   1.434  32.400  0.0241  0.3378  0.2446
22956W        W27356   9.294   7.546   8.859 -0.1019 -0.0312  0.1984
22957W        W27357  23.081   3.973   8.359  0.2047 -0.2543 -0.1912
22958W        W27358   4.827   2.333  25.611 -0.2053  0.0076 -0.0954
22959W        W27359  23.345   2.154  13.356 -0.1439  0.0836  0.2868
22960W        W27360  17.679   7.703   8.565  0.0327 -0.0767 -0.1242
22961W        W27361  11.726   4.057  30.822  0.2915  0.1597 -0.4424
22962W        W27362  11.911   3.865  27.467 -0.3377 -0.2670  0.2238
22963W        W27363  24.284   6.398  27.783  0.2419 -0.1056 -0.0044
22964W        W27364   5.769   7.769   2.642 -0.1059  0.1438  0.3053
22965W        W27365  21.447   7.245  12.854 -0.0174  0.0096  0.0509
22966W        W27366  15.186   1.796  29.245  0.1898  0.0929 -0.1052
22967W        W27367  23.052   1.730   5.700  0.1121  0.5387  0.0897
22968W        W27368  25.144   3.603  10.478 -0.1164 -0.2684 -0.1087
22969W        W27369   0.520   4.118  20.293  0.0182  0.1062  0.0156
22970W        W27370  21.101   1.777   2.304 -0.1857  0.1766  0.0828
22971W        W27371  18.463   2.821  21.956  0.0181  0.1659 -0.3075
22972W        W27372   8.770   0.900   7.281 -0.0255  0.2176 -0.0822
22973W        W27373   8.036   3.271  23.450 -0.1219  0.1030 -0.2662
22974W        W27374  20.054   5.525   6.268  0.0912 -0.0997 -0.0690
22975W        W27375  22.917   0.468  22.588  0.0025 -0.0954  0.3924
22976W        W27376  14.640   6.190   9.445 -0.3630 -0.1351 -0.1195
22977W        W27377   2.206   0.792  17.998  0.2204  0.3147  0.0304
22978W        W27378   0.041   0.686   3.198  0.3966 -0.0761 -0.2644
22979W        W27379  14.816   6.502   0.016  0.0354  0.1074  0.0027
22980W        W27380  18.790   1.083  10.025 -0.0161 -0.0099 -0.1525
22981W        W27381   7.809   5.549   5.560 -0.1088  0.0737 -0.1519
22982W        W27382  23.040   0.187  20.884  0.1985  0.0672 -0.0605
22983W        W27383  24.068   1.563  21.618 -0.0806 -0.2158 -0.2499
22984W        W27384  16.446   6.279  25.546  0.0423  0.2320  0.0590
22985W        W27385   4.538   2.760  21.046  0.0857  0.1864  0.0014
22986W        W27386   4.700   0.179   2.771  0.0855 -0.0071  0.0801
22987W        W27387   1.874   5.045  22.936  0.2649  0.0558  0.0358
22988W        W27388  15.886   1.622  28.453  0.0622  0.2834 -0.1629
22989W        W27389  24.290   4.827   5.583  0.2593 -0.1817  0.0610
22990W        W27390   1.739   3.898   5.987  0.1501 -0.0739 -0.0576
22991W        W27391  22.469   5.770   5.081  0.0579 -0.1307 -0.1375
22992W        W27392   5.991   1.897  27.264 -0.0250 -0.0323  0.4319
22993W        W27393  13.409   1.828   1.474 -0.1452  0.0039 -0.2233
22994W        W27394   1.984   3.290   4.655  0.0677 -0.1300  0.1782
22995W        W27395   6.646   3.903  21.105  0.2931 -0.1136 -0.2095
22996W        W27396  21.201   3.231  28.199  0.2996  0.2764 -0.2536
22997W        W27397  18.671   3.925   6.079  0.1181  0.1066 -0.0544
22998W        W27398   0.509   7.088   0.116 -0.1137 -0.1338 -0.2406
22999W        W27399  12.487   0.842   6.870 -0.0593 -0.0681 -0.2307
23000W        W27400   2.152   6.099   0.521  0.0689  0.0886  0.1074
23001W        W27401  21.096   2.770  12.306  0.2768  0.0956  0.0564
23002W        W27402   6.342   1.254  16.605 -0.1300  0.3477  0.0890
23003W        W27403   5.711   6.677  19.086 -0.0471 -0.1899 -0.0918
23004W        W27404  21.016   3.632   7.405  0.1883  0.0953 -0.0633
23005W        W27405  15.662   4.185  32.319 -0.1331 -0.2558  0.0538
23006W        W27406   1.650   7.636  30.713  0.0664  0.0108 -0.0526
23007W        W27407   2.568   3.614  21.580 -0.1107  0.1311 -0.2859
23008W        W27408   8.537   0.537   1.501 -0.1024 -0.2177  0.2539
23009W        W27409   9.801   0.926  15.570  0.1597  0.1088  0.1782
23010W        W27410  21.757   2.034  10.227  0.1940  0.0091  0.2689
23011W        W27411  20.222   3.931   8.598 -0.0264  0.0930  0.1101
23012W        W27412  21.842   5.690   1.899 -0.1786  0.0574  0.0933
23013W        W27413  20.063   6.783  28.230  0.1026 -0.1507  0.2498
23014W        W27414  17.769   2.227   3.536 -0.0395 -0.3184 -0.2542
23015W        W27415  10.048   0.424   6.257 -0.1261 -0.1098 -0.0913
23016W        W27416  11.853   6.572  31.541  0.0832 -0.0178 -0.1595
23017W        W27417   8.401   5.148   3.076 -0.3639 -0.0454  0.2365
23018W        W27418   0.739   2.279  27.951  0.1127  0.1448 -0.0823
23019W        W27419  19.022   5.334  32.412 -0.2938 -0.0647  0.1536
23020W        W27420  12.167   3.244   3.632  0.1901 -0.0705 -0.0870
23021W        W27421   1.838   0.551   3.761 -0.1693  0.0017 -0.0228
23022W        W27422  11.999   7.646  28.067 -0.0563  0.1986  0.0876
23023W        W27423  15.646   6.964   4.580  0.2767  0.1530 -0.3586
23024W        W27424  11.822   6.010  26.530  0.2487  0.2017  0.0768
23025W        W27425   9.868   0.964  27.850  0.0791  0.0671 -0.0688
23026W        W27426   6.747   1.607   5.347 -0.0037 -0.0120  0.0305
23027W        W27427  22.519   6.904  31.563 -0.1497 -0.1733 -0.2489
23028W        W27428   1.473   1.328  18.386 -0.0286  0.0079  0.0869
23029W        W27429   3.435   2.297  23.562 -0.3052 -0.0747 -0.1307
23030W        W27430   8.583   0.186   7.167 -0.0401 -0.1205 -0.0302
23031W        W27431  12.904   6.813   7.188 -0.0522 -0.1080 -0.2796
23032W        W27432  22.018   6.874   8.550  0.0494  0.2144 -0.2507
23033W        W27433  12.076   6.653  28.936  0.1764  0.3406 -0.0786
23034W        W27434   7.883   2.327  24.143  0.2389 -0.0652  0.1372
23035W        W27435   3.441   0.277  27.782 -0.3287  0.0539  0.1631
23036W        W27436  16.017   5.297  25.305  0.0267  0.2297 -0.0773
23037W        W27437  19.170   2.768  13.456 -0.1160  0.2763  0.2070
23038W        W27438   3.936   6.918   7.115 -0.2936  0.0386 -0.0270
23039W        W27439  23.474   3.609   9.262  0.3500 -0.1760 -0.0943
23040W        W27440  10.344   7.718  20.909 -0.1047  0.0170 -0.1057
23041W        W27441   7.823   6.723  24.390  0.1344  0.2306 -0.3166
23042W        W27442  11.122   7.858   7.090 -0.1047 -0.2579 -0.0655
23043W        W27443  23.669   2.248  12.155 -0.0815 -0.1832 -0.1064
23044W        W27444  18.204   6.241  10.911  0.1448 -0.0044  0.0983
23045W        W27445   2.795   0.761   0.635  0.0170  0.0311 -0.3527
23046W        W27446  15.957   4.208  24.248  0.1464 -0.4648  0.1104
23047W        W27447  17.405   4.084   1.910 -0.0063 -0.0650  0.0393
23048W        W27448  21.890   7.676  15.906 -0.2093 -0.3137  0.1639
23049W        W27449   7.315   4.973  24.538 -0.2064  0.1306 -0.1889
23050W        W27450  20.208   2.202  32.151 -0.2881 -0.1320  0.1067
23051W        W27451  18.448   0.912  26.323  0.1382 -0.0351 -0.0103
23052W        W27452   7.530   2.657   7.588  0.0137 -0.1423 -0.0304
23053W        W27453  22.095   2.188  32.118  0.0637 -0.1495 -0.1540
23054W        W27454   5.947   2.403  16.548  0.0826 -0.0563 -0.1506
23055W        W27455  16.449   1.665  30.705 -0.1190  0.3585  0.1352
23056W        W27456   5.803   7.036  28.685 -0.0232 -0.3850 -0.2984
23057W        W27457  11.618   0.622  25.922 -0.1443  0.1669 -0.0179
23058W        W27458  21.714   2.093  31.288 -0.1915 -0.0901 -0.0870
23059W        W27459  11.096   4.553  10.769  0.0822  0.1563 -0.2909
23060W        W27460   4.915   1.862  22.487 -0.0659 -0.1190 -0.0005
23061W        W27461  14.407   2.970   3.242 -0.1617 -0.2961  0.0141
23062W        W27462  24.078   4.577   5.114 -0.1090  0.2672 -0.5307
23063W        W27463  23.718   0.624   0.666  0.0120  0.0687 -0.4121
23064W        W27464  12.327   3.842  27.168  0.0515 -0.1119 -0.0189
23065W        W27465   5.536   4.657  27.325  0.0679 -0.0222  0.0290
23066W        W27466   1.917   6.918  11.962 -0.3452 -0.1243 -0.1102
23067W        W27467   8.513   1.699  28.866 -0.0027  0.0061  0.0883
23068W        W27468   6.055   3.235  15.514  0.0540 -0.0193 -0.0919
23069W        W27469  23.584   6.053   2.136 -0.3716  0.2025  0.2911
23070W        W27470  10.424   2.275   6.035  0.0375  0.0335  0.0915
23071W        W27471   8.298   7.041  20.474  0.0309  0.1580 -0.1787
23072W        W27472  20.001   0.750  10.757 -0.3187  0.0900  0.0245
23073W        W27473   6.509   0.808  15.688 -0.1434  0.3838 -0.0451
23074W        W27474  20.413   1.505   1.866  0.1662  0.0818  0.0730
23075W        W27475   3.061   6.220  20.001  0.4556  0.1430  0.0839
23076W        W27476  13.509   6.965  12.109 -0.0559  0.0584  0.1438
23077W        W27477   4.501   2.332  16.554  0.1284  0.2254  0.2355
23078W        W27478  22.499   1.846   5.635 -0.0213  0.3995 -0.0588
23079W        W27479  22.287   5.454   3.154  0.2993  0.1459 -0.0822
23080W        W27480   4.746   5.830  23.398  0.1161  0.2187  0.1780
23081W        W27481   0.610   6.776   8.419  0.4905  0.2010 -0.0742
23082W        W27482   1.187   2.577   8.131  0.3809  0.0094  0.1682
23083W        W27483  18.545   7.675   7.318 -0.4708 -0.1709  0.0345
23084W        W27484  14.876   5.508   0.116 -0.3262  0.2047  0.0413
23085W        W27485  22.344   4.788  11.834  0.1562 -0.2174 -0.2153
23086W        W27486   0.437   0.172  21.224  0.2619 -0.0943  0.1079
23087W        W27487   2.179   2.161   2.174  0.2322 -0.0076  0.0247
23088W        W27488  19.124   6.463   9.956  0.1714  0.1313  0.0107
23089W        W27489   0.548   0.208   6.931 -0.2339 -0.2809 -0.3205
23090W        W27490   4.197   5.966  31.130  0.0360 -0.1176 -0.1528
23091W        W27491   2.238   5.143   9.746  0.1872 -0.2493 -0.0261
23092W        W27492   2.543   4.223  28.662 -0.0561  0.0268  0.0898
23093W        W27493   6.110   0.931  26.134 -0.0368 -0.2386 -0.1228
23094W        W27494  17.047   2.259  15.519 -0.3075 -0.0139 -0.1872
23095W        W27495  18.882   0.466  29.285  0.2154 -0.3522 -0.1459
23096W        W27496   1.881   1.543   6.000 -0.0127 -0.1989 -0.0148
23097W        W27497  21.138   5.372  25.306  0.0024  0.0944 -0.1108
23098W        W27498  17.349   3.353   0.848  0.1064 -0.1255  0.2643
23099W        W27499   2.582   4.187   4.368  0.3240  0.0400 -0.0592
23100W        W27500  19.730   5.189   4.045  0.1210 -0.0293 -0.1595
23101W        W27501   8.875   5.253  25.533  0.2181 -0.1017 -0.2852
23102W        W27502   8.977   1.437  27.698 -0.0145 -0.1819 -0.1596
23103W        W27503  10.930   3.125   4.945  0.0439  0.1443  0.3585
23104W        W27504  22.106   3.111  31.370 -0.0926  0.0867  0.0057
23105W        W27505  10.879   2.812   3.836  0.0712  0.1679 -0.2134
23106W        W27506   9.847   3.621   5.834 -0.2270  0.4494 -0.1522
23107W        W27507   5.657   4.011   9.345  0.0354 -0.3095  0.3897
23108W        W27508  21.708   4.123   7.826  0.1090  0.2569  0.1311
23109W        W27509  11.499   1.655  27.273 -0.0161 -0.4492 -0.3007
23110W        W27510  19.284   5.526   3.881  0.0523  0.0670  0.0719
23111W        W27511   3.983   2.438  26.689  0.1946  0.2993  0.1752
23112W        W27512  12.745   2.532  24.481 -0.0634  0.0670 -0.2472
23113W        W27513   8.386   4.348   4.137  0.0006 -0.3699  0.1214
23114W        W27514  12.004   6.995  20.290 -0.0331 -0.1950  0.1590
23115W        W27515  11.400   5.006  10.840 -0.2329  0.1704 -0.0083
23116W        W27516   3.789   2.677  10.203  0.2486 -0.0800  0.1997
23117W        W27517  20.749   6.828  27.423 -0.5247  0.3263  0.0272
23118W        W27518   4.216   7.369   5.658 -0.0286  0.0645  0.0335
23119W        W27519   9.236   3.618  28.536  0.2898 -0.1352  0.1939
23120W        W27520   5.996   4.357   1.624  0.0233 -0.0029  0.1116
23121W        W27521  14.520   4.477   2.417 -0.1815 -0.0812  0.0656
23122W        W27522  10.413   6.852   0.804  0.3245 -0.4137  0.0912
23123W        W27523   0.220   3.307  24.412  0.0089  0.1191  0.2582
23124W        W27524  20.324   1.932   4.116  0.0535  0.2856  0.0794
23125W        W27525  23.763   3.563  32.558  0.1496  0.4468  0.1825
23126W        W27526   9.713   1.232  25.844  0.0327 -0.0758 -0.3628
23127W        W27527  14.161   4.516  11.750 -0.0590  0.1601  0.1855
23128W        W27528  10.026   7.049  26.711  0.1531 -0.0180 -0.0127
23129W        W27529   5.405   1.938  18.528 -0.1711  0.4875 -0.0144
23130W        W27530   5.127   1.926   4.815 -0.1160  0.3163 -0.1325
23131W        W27531  16.226   4.621   6.932  0.0631 -0.1523  0.0513
23132W        W27532  13.147   6.576  24.460 -0.0961  0.1406 -0.0273
23133W        W27533  10.792   3.933   1.980 -0.0092  0.0488  0.1772
23134W        W27534   0.296   7.210  19.728 -0.0482  0.2627 -0.0400
23135W        W27535   1.632   0.830  24.007  0.0645 -0.3706  0.2526
23136W        W27536  19.321   3.716   3.998 -0.1357  0.0131  0.0603
23137W        W27537  21.770   3.992  30.287  0.0773  0.1724  0.2707
23138W        W27538  18.633   6.603  10.733 -0.1192  0.0815  0.2804
23139W        W27539  20.141   5.464  25.294 -0.0663 -0.5018  0.3330
23140W        W27540  17.852   2.676  28.395  0.1451 -0.1298  0.0156
23141W        W27541  10.143   4.959  15.447  0.0055 -0.0402 -0.1122
23142W        W27542  22.121   7.645   5.425 -0.2905  0.0362  0.3111
23143W        W27543   5.943   5.844  32.050  0.2377 -0.0849 -0.1892
23144W        W27544   8.005   3.761  30.624 -0.0474  0.0561 -0.3250
23145W        W27545  13.212   2.655  29.981 -0.0531  0.1465  0.0267
23146W        W27546   6.040   2.065  29.542 -0.1764 -0.2224  0.1719
23147W        W27547   4.416   2.478  23.762  0.0978 -0.0962 -0.0926
23148W        W27548  17.464   7.743   6.879  0.3642  0.1954 -0.2789
23149W        W27549  14.223   1.432  32.073  0.0698 -0.2140  0.0001
23150W        W27550  14.463   3.484  22.574  0.0704  0.1153 -0.1388
23151W        W27551  16.301   2.737   3.032 -0.4430 -0.0670 -0.0138
23152W        W27552   5.713   5.956   1.985 -0.3450  0.2154 -0.3909
23153W        W27553  24.237   7.640   3.563 -0.1315 -0.2845 -0.1970
23154W        W27554  10.242   2.484  21.077  0.1615 -0.0941 -0.1956
23155W        W27555  20.977   0.948  28.541 -0.0716 -0.0443 -0.1839
23156W        W27556  13.152   1.466  21.259 -0.1655  0.1500  0.0382
23157W        W27557  21.750   0.697  11.999  0.1052  0.2236  0.2389
23158W        W27558  23.615   1.833  24.099 -0.0008  0.1484 -0.0270
23159W        W27559  14.864   7.276  32.390 -0.0604  0.0597 -0.1428
23160W        W27560  17.138   7.032  25.234  0.1578 -0.0327  0.1541
23161W        W27561  15.930   1.457  23.774 -0.0830 -0.0758  0.1196
23162W        W27562   7.334   2.655  29.292  0.2622  0.1311 -0.1038
23163W        W27563  15.309   7.259   3.266 -0.0973 -0.0541  0.2585
23164W        W27564  13.111   3.956   9.948 -0.0143 -0.0868  0.0240
23165W        W27565   0.545   3.975  32.498  0.0415  0.1761  0.0474
23166W        W27566  12.486   2.292   4.159  0.1924 -0.1919  0.1817
23167W        W27567   9.904   5.350   6.078 -0.0626 -0.3702 -0.0115
23168W        W27568  15.386   7.463   6.024  0.1897  0.1090  0.1254
23169W        W27569   2.512   7.708  30.246  0.3165 -0.2058 -0.1140
23170W        W27570  12.469   4.285  23.025  0.1733  0.0094  0.1482
23171W        W27571  18.510   0.153  13.184 -0.2801 -0.1306 -0.0054
23172W        W27572   3.707   4.041  25.164 -0.0220 -0.0032 -0.1197
23173W        W27573  13.795   2.620  10.191 -0.1540  0.1494  0.0921
23174W        W27574  18.903   3.410  14.214  0.1078 -0.2175 -0.2886
23175W        W27575  10.705   1.895   6.848 -0.1685  0.0576 -0.0728
23176W        W27576   0.199   5.058   6.307  0.0251 -0.1950  0.0573
23177W        W27577   1.533   1.140   1.562  0.0609 -0.2459 -0.1584
23178W        W27578   0.082   6.717  27.499  0.1226 -0.0339  0.0879
23179W        W27579  11.327   3.102   8.609 -0.0131 -0.3805  0.2088
23180W        W27580   8.849   0.887  20.672 -0.2100 -0.0803  0.1094
23181W        W27581   5.384   0.254   1.663 -0.1709 -0.0306 -0.0580
23182W        W27582   0.623   1.073  21.672  0.0961  0.2297  0.1924
23183W        W27583  10.536   2.813  23.698  0.3521  0.1442  0.0233
23184W        W27584   3.766   0.799  17.841  0.0073 -0.0255 -0.1197
23185W        W27585  18.943   5.859  30.662 -0.1755  0.2693 -0.0200
23186W        W27586  14.165   1.883   6.525 -0.0321 -0.0658 -0.1417
23187W        W27587  22.051   1.567  15.271  0.2018 -0.1715  0.2317
23188W        W27588  14.520   0.217  14.607 -0.2512 -0.1186  0.3040
23189W        W27589  17.468   0.858  12.742  0.0430 -0.0390 -0.3038
23190W        W27590  12.530   7.852  10.154  0.1702  0.1614 -0.2635
23191W        W27591   9.103   7.160  21.642  0.1197  0.0710 -0.1499
23192W        W27592  21.085   2.645  26.909 -0.2312  0.2339 -0.2681
23193W        W27593   2.563   2.786   9.490 -0.1071 -0.2601  0.1094
23194W        W27594  17.654   6.887  28.365 -0.1077  0.1233  0.2459
23195W        W27595  17.890   7.326   4.813 -0.0569 -0.2510 -0.2078
23196W        W27596  11.976   0.446   0.086  0.0568 -0.1451  0.0837
23197W        W27597  15.596   7.080  14.991 -0.0045  0.0570  0.1401
23198W        W27598   9.762   5.010   9.828  0.1406 -0.0288 -0.1791
23199W        W27599   1.062   6.971  25.069 -0.3532 -0.0728 -0.3145
23200W        W27600  14.494   3.728   3.801 -0.1496  0.2072  0.1790
23201W        W27601  21.916   0.582  26.418  0.2963 -0.0031  0.0289
23202W        W27602   2.676   4.150   5.992 -0.0715  0.4488  0.1651
23203W        W27603   3.267   7.680  22.460 -0.0438  0.2568  0.0627
23204W        W27604   4.841   5.241  18.634  0.0062 -0.2108 -0.0113
23205W        W27605  12.143   4.497  26.051  0.0665 -0.2359 -0.0087
23206W        W27606   2.111   3.728  18.569 -0.2250 -0.0600  0.1559
23207W        W27607   1.530   6.232   6.664  0.2657  0.2392 -0.0456
23208W        W27608  21.283   1.042  26.997  0.0022 -0.3911  0.0677
23209W        W27609   4.218   6.808   7.557  0.1238 -0.0264  0.1470
23210W        W27610  20.886   5.377   0.437  0.1182  0.1706  0.2110
23211W        W27611   4.714   7.728   3.160  0.1894  0.0689 -0.3990
23212W        W27612   1.506   7.493  24.526  0.0249  0.0086  0.1421
23213W        W27613  15.557   4.847  28.880  0.1407  0.2752  0.0130
23214W        W27614  17.206   4.787  26.212  0.0133 -0.1959 -0.0028
23215W        W27615  24.415   6.210   8.221  0.0668  0.1478 -0.0683
23216W        W27616  17.407   6.551  22.691 -0.3107 -0.1741 -0.0548
23217W        W27617  20.592   1.168   6.393 -0.0989  0.1702 -0.3175
23218W        W27618  19.067   2.817  14.421  0.0789  0.1106 -0.0644
23219W        W27619  23.575   7.625  26.116  0.0375  0.0235  0.1740
23220W        W27620  24.152   6.845  12.207  0.0410  0.3844  0.0793
23221W        W27621   9.295   3.079   8.929 -0.1555 -0.0994 -0.3932
23222W        W27622  12.655   0.495  19.374  0.1781 -0.3745  0.1157
23223W        W27623  12.850   5.493  12.111 -0.0625  0.0009  0.2747
23224W        W27624  20.230   6.168  27.181 -0.1926  0.1774  0.0882
23225W        W27625  13.535   0.178   9.583  0.2022 -0.0199  0.1024
23226W        W27626   4.889   6.478   7.012 -0.0379 -0.0157  0.0454
23227W        W27627  23.511   5.260   0.934  0.1129  0.1882  0.0969
23228W        W27628  23.584   3.143  24.463 -0.1053  0.1733  0.0602
23229W        W27629   0.555   2.635  23.448  0.0994 -0.2883  0.2570
23230W        W27630  12.347   7.538  30.176  0.0093 -0.1870  0.0677
23231W        W27631   7.961   2.506  23.190 -0.1064 -0.2340  0.3095
23232W        W27632  14.334   6.141  27.513 -0.4934 -0.1313 -0.0586
23233W        W27633   4.953   4.770  15.941 -0.1402  0.0707  0.2969
23234W        W27634  21.499   7.430  29.851 -0.0307  0.2104  0.1357
23235W        W27635  13.232   1.089  25.980  0.0740  0.0883  0.1286
23236W        W27636   8.804   1.594  23.488  0.0566 -0.2152  0.0620
23237W        W27637  10.780   3.729   5.647  0.0892 -0.1164  0.1418
23238W        W27638  19.298   6.990  15.362  0.0873  0.2224 -0.0688
23239W        W27639   9.383   4.778  31.206 -0.1053 -0.2074 -0.0765
23240W        W27640   3.129   4.764  19.758 -0.0454  0.3382 -0.0827
23241W        W27641  23.951   5.981   9.199  0.2712  0.0176 -0.0715
23242W        W27642   9.187   5.225  16.941  0.1154  0.0997 -0.1465
23243W        W27643  11.146   2.354  26.714  0.3504  0.3041 -0.2044
23244W        W27644  15.788   6.086   6.159 -0.1155 -0.0937 -0.0675
23245W        W27645  24.241   3.869  20.945  0.2081  0.0167  0.0837
23246W        W27646   9.610   6.453   9.484  0.0846 -0.2344  0.0499
23247W        W27647   6.899   4.048   8.284 -0.0219  0.0882 -0.0625
23248W        W27648  10.919   2.809   8.333 -0.1783  0.2256  0.2593
23249W        W27649   0.017   2.112  25.003 -0.0827 -0.2538 -0.1458
23250W        W27650   5.410   2.309  28.433  0.2347  0.0161 -0.6204
23251W        W27651  22.612   4.578   3.387 -0.1703  0.1609 -0.1345
23252W        W27652   1.238   2.478   9.172  0.3237  0.1175 -0.3509
23253W        W27653   1.366   5.064  21.709  0.0012 -0.0569  0.0225
23254W        W27654  20.915   1.992   6.586  0.0130 -0.0641  0.1883
23255W        W27655   6.373   5.189   1.684  0.2028 -0.1344 -0.2772
23256W        W27656   8.843   3.523   5.977  0.0833  0.1060 -0.1630
23257W        W27657   8.364   2.493  28.659  0.2233  0.0142 -0.2662
23258W        W27658   6.903   5.966  15.609 -0.0182 -0.0402  0.0788
23259W        W27659  18.378   6.812  30.660  0.0339  0.0970  0.0488
23260W        W27660  10.052   0.589  22.536 -0.1716  0.0772 -0.1356
23261W        W27661  23.244   2.003  13.804 -0.2066 -0.0023 -0.0143
23262W        W27662   6.223   5.451  31.495 -0.3254 -0.2993 -0.3558
23263W        W27663   6.410   0.326   2.688  0.0553 -0.1212 -0.0861
23264W        W27664   9.046   0.359  29.536  0.4324  0.2048 -0.4143
23265W        W27665   5.245   2.761  28.648 -0.0935  0.2783  0.1533
23266W        W27666   4.247   5.591  10.166  0.0291  0.0209  0.2248
23267W        W27667   0.862   5.241  31.741 -0.0734  0.1679  0.0842
23268W        W27668  18.809   5.137   4.805  0.1684 -0.0800  0.1936
23269W        W27669   5.176   6.660  27.672  0.0845  0.0611 -0.2163
23270W        W27670  12.562   4.612  10.969  0.0301  0.0392 -0.1407
23271W        W27671  23.338   2.741  11.322 -0.2984  0.1914 -0.0278
23272W        W27672  18.416   3.081  13.571  0.1061 -0.0538 -0.1396
23273W        W27673   1.665   2.770  10.440 -0.0973 -0.0511  0.0161
23274W        W27674  14.660   4.594  25.760  0.1652  0.1527 -0.0283
23275W        W27675   6.268   2.935   7.418  0.0265 -0.0179 -0.0175
23276W        W27676  14.836   3.623  14.434  0.1484 -0.0569 -0.0983
23277W        W27677  19.314   3.154   2.695 -0.0987  0.2063  0.0567
23278W        W27678   2.194   5.700  23.097 -0.0485 -0.1253  0.0990
23279W        W27679  14.307   1.434  12.758  0.3563 -0.1887 -0.0019
23280W        W27680  24.210   6.130  11.775 -0.2345 -0.0304 -0.2992
23281W        W27681  24.655   1.150  30.379  0.1907  0.0567 -0.2139
23282W        W27682  19.856   1.854  24.399  0.0555  0.0850  0.1780
23283W        W27683  19.496   3.169  26.940  0.2375 -0.2039 -0.1895
23284W        W27684  15.447   7.594  14.758 -0.1075 -0.0652  0.2845
23285W        W27685   1.252   0.958  28.941 -0.0716  0.1091 -0.0432
23286W        W27686   5.186   6.186   4.919 -0.4320 -0.2554 -0.1585
23287W        W27687   2.827   6.287  10.482  0.0087 -0.2471 -0.1401
23288W        W27688   4.025   7.431   3.480 -0.1108  0.0642  0.0475
23289W        W27689   0.008   6.034   5.098 -0.0644 -0.1077 -0.1190
23290W        W27690  25.113   6.655  10.900  0.2537 -0.3408 -0.0048
23291W        W27691  19.208   0.401   5.150  0.2758 -0.0210  0.0185
23292W        W27692  16.129   0.037  12.980  0.1945 -0.1952  0.2054
23293W        W27693  16.766   1.298   7.698 -0.0757 -0.0892  0.0482
23294W        W27694  21.565   6.747   4.086 -0.0303  0.0784 -0.1246
23295W        W27695  16.326   6.046  25.014  0.2283 -0.1456 -0.0235
23296W        W27696   6.352   1.561   7.483 -0.1174 -0.0423  0.0707
23297W        W27697  21.798   1.119  26.979 -0.0500  0.1980 -0.0579
23298W        W27698   3.473   2.392  32.015 -0.1433 -0.1701  0.2622
23299W        W27699  11.020   1.376   0.405  0.0357  0.2281 -0.1418
23300W        W27700   8.040   7.014  16.241  0.0325  0.1759  0.3145
23301W        W27701  15.121   7.109   9.092 -0.1254  0.1070  0.1211
23302W        W27702   0.447   6.357  21.009  0.1481 -0.1764 -0.1343
23303W        W27703   1.996   5.710  24.593 -0.0219  0.2401 -0.0475
23304W        W27704   1.083   1.483  26.207  0.1917 -0.2028  0.2241
23305W        W27705  19.227   5.418  23.489  0.0391  0.0823 -0.0794
23306W        W27706  22.764   6.282  28.425  0.0313  0.1977 -0.3756
23307W        W27707  17.760   4.377  32.393  0.4246  0.0385  0.0661
23308W        W27708   6.009   7.736  29.334  0.2232 -0.0594 -0.1176
23309W        W27709   3.277   5.367  25.867  0.0340 -0.0039  0.0428
23310W        W27710   1.827   1.380  24.065  0.1669 -0.2233  0.3699
23311W        W27711   9.967   5.077   7.973  0.1845  0.3428 -0.1685
23312W        W27712  14.706   3.536   1.458  0.3226  0.2226  0.0060
23313W        W27713   5.739   6.537  16.862 -0.2181 -0.2771 -0.1815
23314W        W27714   7.756   1.319   3.912  0.0898 -0.2468  0.2137
23315W        W27715  16.855   5.377  26.726 -0.0299 -0.0611  0.1721
23316W        W27716  23.452   2.115   7.088  0.1319 -0.0648 -0.0208
23317W        W27717  17.965   4.036  27.462  0.1025  0.1546  0.0353
23318W        W27718  14.028   2.635   6.184  0.0071 -0.3349  0.0661
23319W        W27719   5.866   6.189  27.424 -0.1855 -0.0515  0.1331
23320W        W27720  17.356   7.396  30.709 -0.3504 -0.0761  0.1288
23321W        W27721  16.355   6.754  28.329  0.1703  0.3806 -0.2492
23322W        W27722  17.391   6.959  30.354  0.2533  0.1173  0.2368
23323W        W27723  13.729   6.126  14.419 -0.0212 -0.1283  0.0862
23324W        W27724  13.056   1.979  25.646  0.1428 -0.1048 -0.2212
23325W        W27725   4.983   3.053  20.377 -0.0146 -0.1135  0.1154
23326W        W27726  10.688   2.051  28.326 -0.0244 -0.0263  0.0151
23327W        W27727  21.066   7.614  14.515  0.1121  0.1062 -0.0753
23328W        W27728   7.014   4.487  17.956  0.0387  0.1247  0.2072
23329W        W27729  21.481   2.577   3.360  0.0624 -0.1857 -0.1444
23330W        W27730  17.399   3.720  22.650 -0.1670 -0.2837 -0.1790
23331W        W27731   0.800   0.255  23.876 -0.0932  0.0322  0.0569
23332W        W27732  13.689   3.184  32.554 -0.3053  0.0360 -0.0686
23333W        W27733  24.785   3.819  22.258 -0.1941  0.0523 -0.2424
23334W        W27734   9.942   6.134   3.695  0.1755  0.3556 -0.1512
23335W        W27735  23.551   2.364  24.779 -0.1094 -0.0312  0.1694
23336W        W27736  17.406   0.349  30.157  0.2363 -0.1120 -0.0892
23337W        W27737   2.669   6.270  19.563  0.0897  0.1739  0.0318
23338W        W27738  24.387   6.974  24.135 -0.0811  0.1073  0.3071
23339W        W27739   2.758   6.851   6.447 -0.1949 -0.1451 -0.1173
23340W        W27740   9.490   2.376  30.151 -0.2395  0.1524  0.0042
23341W        W27741  23.916   0.692  30.217  0.1149 -0.1326  0.1610
23342W        W27742  17.204   1.046  28.028 -0.2901  0.2542  0.0235
23343W        W27743  20.628   1.806  26.956  0.2101 -0.4671 -0.1901
23344W        W27744  10.584   4.885  26.963  0.2609  0.0672 -0.0528
23345W        W27745  10.114   5.477  22.278  0.0504 -0.3286  0.0388
23346W        W27746   8.128   4.555   1.440  0.1450 -0.0880 -0.2559
23347W        W27747  23.702   5.754  31.558  0.0848  0.0651 -0.1607
23348W        W27748  17.589   5.529  15.877  0.0512 -0.2242  0.4986
23349W        W27749   1.309   1.023   6.156 -0.1110 -0.3201  0.2796
23350W        W27750  25.100   4.158  12.667  0.0955  0.0576 -0.1307
23351W        W27751  11.712   3.091  21.876 -0.2971 -0.1973 -0.1908
23352W        W27752  16.148   1.385   5.941  0.1787  0.0130  0.2684
23353W        W27753   9.640   0.188   8.851 -0.0166 -0.1803 -0.1727
23354W        W27754  15.048   2.546   4.073 -0.0224 -0.0505  0.1104
23355W        W27755  19.186   6.683   8.287 -0.1644  0.2077 -0.1753
23356W        W27756   9.775   6.736  26.393 -0.4278 -0.2213  0.1758
23357W        W27757   5.392   6.611  15.555 -0.2157  0.0429  0.1178
23358W        W27758  17.007   2.704  21.992 -0.1190  0.0930 -0.3805
23359W        W27759  16.368   1.872   1.716 -0.2862  0.0833  0.0188
23360W        W27760   2.658   1.207  20.525  0.1696  0.1512 -0.0832
23361W        W27761  19.574   4.268  28.367 -0.1380  0.1282  0.0343
23362W        W27762  18.615   0.974  17.596 -0.0320  0.1814  0.1561
23363W        W27763  14.783   6.732  11.101  0.1523  0.1148 -0.0918
23364W        W27764  17.573   2.661   1.950 -0.0698 -0.1115 -0.0713
23365W        W27765  21.873   4.211  10.008  0.0250 -0.1828  0.0606
23366W        W27766   6.540   0.329   6.043 -0.0659 -0.1351 -0.0326
23367W        W27767  21.253   5.534  15.522 -0.2332  0.1972  0.0249
23368W        W27768   0.402   1.706   5.651  0.0055  0.0119 -0.0416
23369W        W27769  17.061   4.260   9.276 -0.0275 -0.0790  0.1700
23370W        W27770   0.791   4.228   9.531  0.0529 -0.3476 -0.1881
23371W        W27771  19.417   4.690   0.058 -0.2396 -0.2053  0.2808
23372W        W27772  12.496   1.863  31.808 -0.1023 -0.2448 -0.1303
23373W        W27773   0.495   5.288   3.434 -0.1944  0.0609 -0.0379
23374W        W27774  11.540   5.219  22.861 -0.2695  0.0381 -0.1391
23375W        W27775  24.605   2.297  12.338 -0.1996  0.1787 -0.3160
23376W        W27776   5.520   7.849  16.349  0.1539 -0.1934  0.1489
23377W        W27777  15.870   3.249   0.656  0.2813 -0.1857  0.0923
23378W        W27778  13.530   0.380   7.217 -0.0685 -0.0795 -0.2234
23379W        W27779   1.730   2.399  21.163 -0.1064 -0.2229 -0.1611
23380W        W27780  19.797   2.479   1.319  0.0351 -0.2098 -0.0763
23381W        W27781   2.969   0.789  31.197 -0.0740 -0.2008 -0.1421
23382W        W27782   3.039   4.572  21.514  0.2989  0.0746  0.2013
23383W        W27783   6.520   4.797  24.330  0.0930 -0.0773  0.0744
23384W        W27784  20.986   0.227   0.860  0.0305  0.0135  0.0568
23385W        W27785  20.834   4.593  12.456 -0.0826 -0.0779  0.2318
23386W        W27786  16.775   0.860  10.344 -0.1397  0.3084  0.1998
23387W        W27787   5.935   2.310   2.203  0.0812  0.0149 -0.0405
23388W        W27788   5.515   2.670  22.975  0.0162  0.1702 -0.0793
23389W        W27789  23.179   6.889   7.823  0.1673  0.2585  0.2402
23390W        W27790   5.537   3.369  29.186 -0.2460  0.0669  0.2717
23391W        W27791  14.634   1.141   1.905  0.2409  0.0531 -0.1234
23392W        W27792  22.880   0.693  28.469 -0.1322  0.0681  0.2241
23393W        W27793   9.849   1.718   4.103 -0.0104  0.1076  0.3755
23394W        W27794  21.099   5.417  32.491  0.0889  0.3224 -0.1894
23395W        W27795   4.908   0.613  31.720 -0.0499  0.1936 -0.0499
23396W        W27796   9.257   4.345   0.625  0.0529  0.2034 -0.0397
23397W        W27797   1.491   0.234  30.981 -0.3057 -0.0482  0.0540
23398W        W27798   8.314   4.239   1.022  0.2319  0.2882 -0.1233
23399W        W27799   5.738   3.214  26.808  0.3072 -0.0456 -0.1611
23400W        W27800   2.035   3.649   2.391 -0.0903  0.1308  0.0939
23401W        W27801  21.292   1.958   7.401 -0.1750  0.2186 -0.0464
23402W        W27802   5.158   3.172   3.276  0.1771 -0.0076  0.1601
23403W        W27803  16.910   1.426   1.110  0.4178  0.0799 -0.0096
23404W        W27804  20.544   7.323  27.681 -0.3277 -0.0035  0.0951
23405W        W27805   6.672   4.967  25.420  0.0521  0.1308  0.1060
23406W        W27806  19.321   5.648   3.364  0.2017  0.2270  0.0845
23407W        W27807   7.982   6.875  15.724 -0.3265  0.1100  0.2054
23408W        W27808   9.922   1.297  25.183 -0.1061  0.1393  0.1433
23409W        W27809   7.458   1.955  16.197 -0.0361 -0.1463  0.0740
23410W        W27810  24.863   5.903  28.009 -0.1357  0.0387  0.0616
23411W        W27811   8.377   2.395  15.216 -0.1998 -0.2835 -0.0965
23412W        W27812   0.124   7.327  28.084 -0.0747 -0.2522  0.1261
23413W        W27813   8.700   7.850  30.892  0.0778 -0.0931  0.0727
23414W        W27814  17.792   4.528  23.829  0.0142 -0.0568  0.1461
23415W        W27815  23.338   1.770   9.474  0.1279  0.4284 -0.0254
23416W        W27816   9.566   0.273   1.520 -0.0843  0.0409  0.0002
23417W        W27817  24.948   4.240  12.083 -0.2312 -0.0407  0.0126
23418W        W27818  13.672   7.315   8.571 -0.1685  0.3729 -0.0962
23419W        W27819  24.782   6.153  20.350  0.0142 -0.0117  0.4856
23420W        W27820  16.073   1.093   3.944 -0.0451 -0.1038  0.0003
23421W        W27821   6.188   2.070  15.879  0.0247 -0.0908  0.0510
23422W        W27822  21.859   5.762   5.310  0.1380  0.1612 -0.0512
23423W        W27823   1.543   5.459  22.619  0.0460 -0.2931 -0.2261
23424W        W27824  12.932   6.579   4.230 -0.1733 -0.3039 -0.0391
23425W        W27825  17.488   6.604   3.005  0.0641  0.1440  0.2587
23426W        W27826  11.069   7.239  29.975  0.1023  0.2259  0.1237
23427W        W27827  14.544   7.607  14.866  0.1145  0.0770 -0.1489
23428W        W27828   8.433   3.829  16.309  0.0761 -0.3362 -0.0580
23429W        W27829  24.646   3.918  23.063 -0.0623  0.1588  0.1330
23430W        W27830  12.919   5.346   4.252 -0.2813 -0.0712 -0.0499
23431W        W27831   6.479   3.498   6.336 -0.1432  0.2901 -0.1028
23432W        W27832   3.341   7.657   7.441 -0.1797 -0.0194 -0.1702
23433W        W27833   0.515   7.514   8.815 -0.3302 -0.2700  0.4774
23434W        W27834  17.359   6.340  16.008  0.0219  0.0528  0.0113
23435W        W27835   3.562   0.681  32.392  0.1252  0.0883 -0.0102
23436W        W27836   2.110   5.288  24.293  0.0786  0.3255 -0.0375
23437W        W27837  17.000   6.140  31.843 -0.4661  0.0946  0.1063
23438W        W27838  22.018   0.027  26.259 -0.0290  0.1418 -0.0652
23439W        W27839  23.977   0.193  14.259 -0.2844 -0.1853  0.1720
23440W        W27840  19.763   1.641  29.127 -0.0181  0.1133  0.0210
23441W        W27841  18.486   0.847  24.459  0.1096  0.0215 -0.1137
23442W        W27842  12.698   4.129  31.606 -0.1811  0.0720 -0.1591
23443W        W27843   0.739   0.427  29.324  0.0025  0.1313  0.0212
23444W        W27844  11.975   3.293  23.462  0.0846 -0.1415  0.1195
23445W        W27845  22.447   7.571   4.697 -0.0739  0.0137  0.1000
23446W        W27846  24.867   3.385  24.484  0.0765  0.0261  0.1435
23447W        W27847  10.222   3.872   9.373  0.0069 -0.2350 -0.0565
23448W        W27848   0.362   1.846   2.355 -0.1738 -0.0223  0.2532
23449W        W27849   0.768   1.318  19.514 -0.2824 -0.0852  0.1041
23450W        W27850   2.704   7.805   3.045  0.1733  0.0217  0.3471
23451W        W27851  15.299   3.811  13.863 -0.1584  0.0453  0.1330
23452W        W27852   1.037   4.384   2.367  0.1966  0.0339 -0.0696
23453W        W27853  12.360   3.566  10.235 -0.0268  0.0192 -0.0856
23454W        W27854  22.099   1.339  11.845 -0.0437  0.2160 -0.1361
23455W        W27855  22.089   2.449   0.156 -0.1181 -0.2275 -0.0671
23456W        W27856   4.795   2.661  17.806 -0.1835  0.3153  0.2268
23457W        W27857   6.675   7.524  29.656  0.3541  0.1245  0.0236
23458W        W27858   4.893   6.273  19.195 -0.0152 -0.2440  0.2002
23459W        W27859   9.258   1.348  15.870  0.2269  0.0478 -0.1503
23460W        W27860   4.858   7.730  25.297 -0.0433 -0.0774  0.1276
23461W        W27861  12.709   1.268  19.550  0.2848 -0.0120  0.0510
23462W        W27862  11.419   5.745  30.918 -0.0681  0.1112  0.0267
23463W        W27863  22.756   7.360  10.994 -0.1491 -0.1309 -0.0552
23464W        W27864  15.946   0.145   9.606  0.0175  0.1610  0.0231
23465W        W27865  17.580   5.391  27.806 -0.0593  0.2477  0.3817
23466W        W27866   6.212   7.242  25.746  0.0811  0.1978  0.0209
23467W        W27867  21.385   1.937  10.879  0.0646  0.0326  0.4382
23468W        W27868   1.120   6.272   6.226  0.0821  0.1211 -0.0254
23469W        W27869  14.661   1.092  23.193 -0.2138  0.1316 -0.3023
23470W        W27870  25.152   3.076  12.722 -0.1165  0.0252 -0.4720
23471W        W27871   8.479   1.067  31.041 -0.3788  0.0019  0.1677
23472W        W27872   6.340   1.475   9.162  0.1337  0.1471 -0.3748
23473W        W27873  12.849   7.849   2.537 -0.0785 -0.2534  0.1939
23474W        W27874  20.715   3.561  30.083 -0.3430  0.0552 -0.1374
23475W        W27875   6.067   0.700   0.065  0.2072 -0.1136  0.0262
23476W        W27876   9.365   2.880  18.065  0.2667  0.0550 -0.0057
23477W        W27877   1.277   7.267  18.010  0.1456  0.1086  0.1280
23478W        W27878  17.613   3.019  15.591  0.2854  0.0073 -0.1011
23479W        W27879  19.835   6.213  24.840  0.0898 -0.1530 -0.7253
23480W        W27880   6.736   7.742  20.758 -0.0668  0.1615  0.0495
23481W        W27881   6.513   5.331   8.036 -0.1025  0.1339 -0.4681
23482W        W27882   5.856   0.490  16.346  0.2339 -0.3077  0.0366
23483W        W27883   9.026   0.474  21.546 -0.1030 -0.1933 -0.3237
23484W        W27884  13.171   4.945   0.101 -0.2316  0.0736  0.0849
23485W        W27885  15.394   7.227   4.197 -0.0679 -0.1148  0.0502
23486W        W27886  13.054   2.993   2.075  0.0027  0.4802 -0.1032
23487W        W27887   5.861   4.371  20.932  0.1101 -0.4778  0.1226
23488W        W27888   3.669   3.130  28.296  0.2220 -0.2077 -0.1335
23489W        W27889   4.747   0.129   6.175  0.1489 -0.3234 -0.3143
23490W        W27890  22.871   0.835  13.502  0.0375 -0.1926 -0.2093
23491W        W27891  23.618   0.884   0.168 -0.1088 -0.1544 -0.1766
23492W        W27892   3.026   4.707   7.131 -0.1677 -0.2195 -0.3328
23493W        W27893  19.862   1.532   0.604 -0.1339 -0.3378  0.1595
23494W        W27894  11.872   3.706   3.014 -0.0530  0.2123 -0.0495
23495W        W27895  11.610   4.487  22.554 -0.1091  0.1954 -0.0446
23496W        W27896   8.599   5.048   6.757  0.0800  0.2996 -0.1488
23497W        W27897   1.844   2.054  18.214  0.5212 -0.3667 -0.2476
23498W        W27898  19.476   4.678  11.787  0.0027  0.1875  0.0061
23499W        W27899  17.397   6.174  22.378  0.1199  0.0667 -0.0815
23500W        W27900   3.099   6.247   1.839 -0.0216  0.2785  0.1622
23501W        W27901  20.361   7.838   8.463  0.2259 -0.0183  0.1318
23502W        W27902   3.173   1.887  29.056 -0.1191 -0.1385 -0.2281
23503W        W27903  16.486   2.356  31.316 -0.3073 -0.3083 -0.2609
23504W        W27904  22.621   6.210   0.402 -0.0573 -0.0332 -0.5095
23505W        W27905  16.284   0.083  29.280  0.1232 -0.0897  0.0860
23506W        W27906  22.974   1.640  23.335 -0.1088 -0.3049 -0.1193
23507W        W27907  11.262   4.597  25.396  0.1701 -0.0539  0.0560
23508W        W27908  20.616   5.516   6.620  0.0605  0.0892 -0.2337
23509W        W27909   8.151   5.417  27.918 -0.0005  0.2218  0.2196
23510W        W27910  12.596   5.302   3.800  0.0458  0.0769 -0.1173
23511W        W27911   8.720   2.506  21.935 -0.1934 -0.3808  0.0568
23512W        W27912  15.935   0.159  25.003  0.0869  0.1400  0.1748
23513W        W27913  13.582   0.248  21.846  0.0726  0.0209  0.2991
23514W        W27914  23.434   7.012  13.371 -0.1622  0.1622 -0.1532
23515W        W27915  20.088   5.253   2.652 -0.0535 -0.1042 -0.0845
23516W        W27916   8.215   5.947  31.773  0.1381  0.0021 -0.1835
23517W        W27917  15.558   0.035  11.799 -0.1991  0.1668  0.2645
23518W        W27918  24.862   4.847  12.965  0.0914  0.2137 -0.0920
23519W        W27919  17.681   4.086  28.286 -0.0482 -0.0956 -0.1231
23520W        W27920  23.833   3.111   9.123 -0.1563  0.0182  0.4688
23521W        W27921  16.449   3.882   3.442 -0.1346 -0.0470 -0.0167
23522W        W27922  23.721   7.546  28.774  0.0939 -0.0206 -0.0964
23523W        W27923  20.420   2.991  25.200 -0.1956  0.1821  0.0817
23524W        W27924  11.358   6.806  29.693 -0.2876  0.1772  0.1256
23525W        W27925  12.251   3.242  11.137  0.1477  0.1172 -0.0003
23526W        W27926  11.378   7.641   9.511  0.0144  0.2030  0.1277
23527W        W27927   0.366   7.797  12.494  0.1191 -0.0835 -0.0363
23528W        W27928  18.750   4.958  29.100  0.0133 -0.0619  0.0553
23529W        W27929  19.829   1.331   4.387 -0.0775  0.1681  0.2486
23530W        W27930   0.876   7.849  21.154  0.2025  0.0452 -0.1116
23531W        W27931  20.932   6.956   7.126  0.1181 -0.1887 -0.2665
23532W        W27932  10.905   3.431   2.018 -0.2008  0.0279  0.3339
23533W        W27933  17.866   3.857  17.119 -0.1589  0.1782  0.1481
23534W        W27934   6.117   4.966   0.492 -0.1813  0.0394  0.0345
23535W        W27935  13.777   1.718  13.511 -0.0358  0.1579  0.1853
23536W        W27936   3.279   0.076   8.651  0.1473  0.0725 -0.0687
23537W        W27937   8.819   5.892   4.825  0.1452 -0.2084 -0.2514
23538W        W27938   8.386   7.227  26.147 -0.0162  0.0580 -0.0341
23539W        W27939   6.117   1.069  21.073 -0.0178 -0.2879  0.1070
23540W        W27940  20.252   6.917  27.633 -0.2248 -0.0371  0.5447
23541W        W27941   7.466   3.124  29.145  0.0610 -0.0410  0.4443
23542W        W27942   4.655   6.709   9.375  0.0050 -0.0942 -0.0017
23543W        W27943  24.852   6.942  10.605  0.1993  0.2072 -0.0917
23544W        W27944  18.410   2.106  16.706 -0.0484 -0.0933  0.2203
23545W        W27945  19.368   6.012  27.884 -0.2867 -0.1954 -0.0509
23546W        W27946  24.344   5.325  21.013 -0.1727  0.2602 -0.0947
23547W        W27947   9.062   5.677  24.368 -0.0154  0.1474  0.2121
23548W        W27948  21.834   5.778   2.452  0.1079  0.2222 -0.1020
23549W        W27949  20.070   3.161  30.932 -0.0441  0.4033  0.1190
23550W        W27950   3.101   7.151   2.379 -0.1800  0.1406  0.1687
23551W        W27951   8.162   7.600  26.424 -0.3350  0.3250  0.1816
23552W        W27952  23.084   4.696   2.105 -0.0058 -0.0792 -0.1206
23553W        W27953   2.185   5.038  25.251 -0.2839 -0.1712 -0.1221
23554W        W27954  22.608   7.097   7.186  0.2038  0.0103 -0.1061
23555W        W27955  19.884   7.339   5.678  0.1453 -0.2809 -0.2174
23556W        W27956  21.370   5.013  32.315 -0.2222 -0.1279 -0.1703
23557W        W27957  15.251   4.618   1.017  0.3828 -0.1391 -0.1469
23558W        W27958  14.447   3.842  10.577 -0.2489  0.2876 -0.1982
23559W        W27959  12.729   2.929   0.472 -0.0585 -0.0283  0.0839
23560W        W27960  20.011   0.591  16.217 -0.2861  0.2112  0.0441
23561W        W27961  24.649   4.477   1.657 -0.0204 -0.2071  0.3946
23562W        W27962   3.365   3.378  21.938  0.1492 -0.0271  0.2069
23563W        W27963   9.911   2.326   7.591 -0.0130 -0.0048 -0.1656
23564W        W27964  19.104   5.031  14.785  0.0919 -0.1326  0.1880
23565W        W27965  10.965   1.299  29.905 -0.0613  0.1166 -0.1122
23566W        W27966  13.026   2.265  28.925  0.0113  0.0082 -0.3963
23567W        W27967  17.152   5.986  12.434 -0.1263 -0.0576 -0.0003
23568W        W27968  10.908   0.909  23.012  0.0342  0.1862  0.1076
23569W        W27969  19.934   2.386   0.800  0.0750  0.0984 -0.2630
23570W        W27970   1.559   0.759   3.347  0.0381  0.0466 -0.1671
23571W        W27971   9.560   2.459  17.906 -0.0761  0.2494 -0.3884
23572W        W27972   3.686   3.252  30.150  0.2143 -0.0257 -0.0992
23573W        W27973   9.443   1.307  24.085  0.2138  0.0528  0.1044
23574W        W27974  18.314   4.780  25.567 -0.0094 -0.0276 -0.2361
23575W        W27975   6.263   2.221   0.193  0.0690 -0.1868 -0.2306
23576W        W27976  15.186   5.215  24.583 -0.0540 -0.1500  0.1566
23577W        W27977   6.389   7.710  25.570 -0.1289  0.1313 -0.0092
23578W        W27978  21.668   4.634  16.284 -0.2245 -0.0967  0.0206
23579W        W27979  24.555   6.514  26.016  0.1209  0.2145  0.0831
23580W        W27980   3.863   6.341  26.401 -0.0534 -0.0346 -0.2212
23581W        W27981   9.429   2.998  21.207 -0.3343  0.1307  0.1210
23582W        W27982   5.528   0.345  30.669  0.2618 -0.4580 -0.2653
23583W        W27983   2.235   2.000  18.615  0.3173  0.1106 -0.0337
23584W        W27984  19.860   6.681  14.194  0.1071 -0.2596 -0.0775
23585W        W27985  20.533   2.887   1.952 -0.4823 -0.1085 -0.0249
23586W        W27986   1.487   3.348   1.337  0.0026  0.2673 -0.0318
23587W        W27987  10.785   3.815   7.258  0.1584 -0.2070 -0.0352
23588W        W27988   4.039   4.914   5.171 -0.2923 -0.0067  0.1849
23589W        W27989  15.752   3.406   4.656 -0.0635  0.3564  0.0468
23590W        W27990  23.007   3.643   4.702 -0.2294 -0.3479  0.0339
23591W        W27991  13.549   2.133   0.663  0.0493 -0.0533  0.0908
23592W        W27992  16.980   7.441  12.097  0.0172  0.0231  0.3698
23593W        W27993   2.959   1.419  22.709 -0.0062 -0.2042  0.1574
23594W        W27994  16.360   0.799  24.400  0.0862  0.1327 -0.0292
23595W        W27995   0.357   3.799  21.472 -0.1935 -0.0815 -0.0801
23596W        W27996  15.320   3.846  25.978  0.1860  0.2875  0.3972
23597W        W27997   6.446   0.990   7.939  0.1935  0.0454  0.0686
23598W        W27998  10.967   2.646  23.624  0.2213 -0.0405  0.1357
23599W        W27999  10.203   3.331   9.411 -0.0808  0.0406  0.3507
23600W        W28000  15.391   0.105   8.009 -0.1266  0.2292  0.0850
23601W        W28001  15.286   4.531  30.340  0.2089  0.4720  0.0898
23602W        W28002  10.508   0.140   8.159 -0.1301 -0.0595  0.2018
23603W        W28003  22.677   2.676   2.810  0.1467  0.1428  0.0579
23604W        W28004  23.455   1.019  24.699  0.0508  0.1312  0.1351
23605W        W28005   5.821   5.795  15.863 -0.2364 -0.1814 -0.1775
23606W        W28006  20.366   2.194   5.550  0.1217 -0.0196 -0.0714
23607W        W28007   0.446   2.107  25.998 -0.0651 -0.2206 -0.2715
23608W        W28008  12.323   0.670  12.846  0.1597 -0.0848 -0.1011
23609W        W28009   9.893   1.802  25.568 -0.0237  0.0350 -0.1030
23610W        W28010  14.850   4.040   7.407 -0.0660  0.0210 -0.1733
23611W        W28011  24.188   4.605  26.339 -0.1638  0.0590 -0.1007
23612W        W28012   7.603   0.983   2.926 -0.0100 -0.1102  0.0707
23613W        W28013  12.567   6.858  25.585  0.1658  0.0804 -0.0288
23614W        W28014  17.251   2.720   4.841 -0.3102  0.0060  0.1057
23615W        W28015  17.320   0.573   7.309 -0.0393  0.0640 -0.0722
23616W        W28016  16.519   0.571  31.731 -0.2538  0.1116 -0.4843
23617W        W28017   7.709   1.787   3.659  0.0176  0.0746  0.1217
23618W        W28018  12.012   2.328   0.984 -0.0539 -0.1163 -0.2880
23619W        W28019  23.679   5.196   7.156  0.0252  0.0168 -0.5138
23620W        W28020  21.416   6.825  15.044  0.0825  0.1695 -0.2045
23621W        W28021   4.995   2.303  17.437  0.0148  0.0133  0.2008
23622W        W28022   7.126   1.738   8.844  0.0972 -0.1073 -0.1545
23623W        W28023  21.840   1.466   7.002 -0.0960 -0.1304  0.0389
23624W        W28024  16.324   2.444  10.272  0.2946  0.1377  0.1683
23625W        W28025   3.313   3.635  18.129  0.0387  0.2275 -0.1237
23626W        W28026   3.900   1.050  18.581 -0.1198 -0.2683 -0.2397
23627W        W28027  20.977   1.155   4.091  0.0490 -0.2251  0.2842
23628W        W28028  17.774   2.757  25.766  0.1162  0.1375  0.0898
23629W        W28029  13.055   6.924  24.953 -0.3937 -0.0858 -0.0743
23630W        W28030  19.214   1.398   6.839 -0.1166 -0.1691 -0.1046
23631W        W28031   4.725   3.109  20.800 -0.1731 -0.1036  0.0421
23632W        W28032   1.060   6.181   7.560 -0.4353 -0.0050 -0.0351
23633W        W28033  20.415   1.346   5.951  0.1202 -0.1674 -0.0432
23634W        W28034   5.343   5.021   5.611 -0.3949  0.2864 -0.1229
23635W        W28035  14.095   5.450   6.902 -0.0965  0.2096 -0.4567
23636W        W28036   2.201   7.518  24.146  0.0009  0.0750 -0.0273
23637W        W28037  22.239   3.274  14.777 -0.2432 -0.1315 -0.3274
23638W        W28038  21.198   5.062  28.707 -0.2069 -0.0841  0.1648
23639W        W28039  15.167   1.239   3.621 -0.0450 -0.2962  0.1548
23640W        W28040  18.897   6.856  28.334 -0.1805 -0.1232  0.3568
23641W        W28041  23.323   5.646  24.661 -0.0990  0.1348  0.3757
23642W        W28042   1.686   3.294  11.509 -0.4859  0.2356  0.0657
23643W        W28043  20.292   2.116  16.330  0.1907  0.1001  0.0506
23644W        W28044   5.843   4.724  19.679  0.3369  0.0862 -0.2865
23645W        W28045  21.913   2.396   4.234  0.2991  0.0624 -0.0058
23646W        W28046  22.251   1.836  24.061 -0.1175  0.0806  0.0470
23647W        W28047   5.857   1.718  23.702 -0.3248  0.1720 -0.0374
23648W        W28048   3.362   2.693  30.148  0.2259  0.0095 -0.0314
23649W        W28049  11.360   1.424   1.183  0.0333  0.0246  0.2198
23650W        W28050   1.625   4.929   7.430  0.0585  0.0318 -0.0322
23651W        W28051  11.692   4.644   9.317 -0.3953  0.1035 -0.0607
23652W        W28052   8.602   2.263   9.335 -0.0289  0.1704 -0.1929
23653W        W28053   4.668   4.108   4.362  0.3392 -0.0165  0.1313
23654W        W28054   2.667   4.875   4.215  0.0777  0.1826 -0.0383
23655W        W28055   8.617   0.819  10.058  0.0656  0.0638 -0.2701
23656W        W28056  10.959   4.151   5.964  0.3263  0.1787  0.2055
23657W        W28057   5.225   5.859  24.821  0.0134  0.0066  0.0818
23658W        W28058   8.435   0.964  26.718 -0.2520  0.2390  0.0640
23659W        W28059  12.066   2.357  11.349 -0.0106  0.1091  0.4426
23660W        W28060  17.254   0.373   1.227  0.0051  0.2174  0.0623
23661W        W28061  13.262   0.243  12.598  0.0473 -0.1065 -0.0881
23662W        W28062   8.901   3.145  26.356  0.1179  0.0386  0.0124
23663W        W28063   8.485   5.853  30.339 -0.0013 -0.0495 -0.1301
23664W        W28064   9.675   3.035  31.756 -0.3689 -0.0862  0.0906
23665W        W28065   8.080   5.885   8.739 -0.1171 -0.0600 -0.1198
23666W        W28066   2.874   7.797  24.187  0.1954 -0.4806  0.0578
23667W        W28067  23.211   1.473  14.482 -0.2208 -0.0679 -0.0960
23668W        W28068   5.569   3.306  15.547  0.1535 -0.0444 -0.1524
23669W        W28069  20.909   1.769  23.141 -0.0658 -0.0972 -0.2174
23670W        W28070   0.829   2.537  26.862 -0.1452  0.1355 -0.0554
23671W        W28071  13.678   7.276   1.065 -0.1416 -0.3806  0.0418
23672W        W28072   3.857   4.026  32.308 -0.1734 -0.1722  0.1342
23673W        W28073   9.714   4.864  29.851  0.0687 -0.2559 -0.0060
23674W        W28074  14.720   7.447  21.828 -0.0244  0.0622 -0.0586
23675W        W28075   6.791   0.640  22.416 -0.2148 -0.1832  0.1218
23676W        W28076  14.830   4.148  25.941  0.0252 -0.1249 -0.1453
23677W        W28077  21.131   1.446   9.356 -0.2259 -0.0327 -0.2023
23678W        W28078   4.183   2.426   0.150 -0.0542 -0.2955 -0.0537
23679W        W28079  14.437   3.702  23.235 -0.2350 -0.1124  0.1241
23680W        W28080  21.397   3.372  11.162  0.2228  0.1560  0.0547
23681W        W28081   2.195   0.387  24.581 -0.2402 -0.2014 -0.1493
23682W        W28082  11.680   7.670  10.931  0.2843 -0.0782  0.2111
23683W        W28083  10.724   1.864   8.196  0.4046 -0.0967  0.0360
23684W        W28084  13.291   4.020  30.330  0.0902  0.0514 -0.3183
23685ION     NA28085  17.193   3.622  13.669  0.5866 -0.1409 -0.3221
23686ION     NA28086   3.941   3.668  21.079 -0.0611  0.0631 -0.1477
23687ION     NA28087  13.702   6.648  26.023  0.1353  0.0851 -0.1709
23688ION     NA28088   9.669   6.504   1.622 -0.0820 -0.0074  0.1051
23689ION     NA28089   2.704   1.768   9.249 -0.1690 -0.1482 -0.4376
23690ION     NA28090   2.474   5.831   8.524 -0.0518  0.5137  0.1831
23691ION     NA28091   8.933   6.880  22.680 -0.3782  0.1216  0.0377
23692ION     NA28092   0.091   0.263  21.833 -0.3157  0.0369  0.1647
23693ION     NA28093   0.468   5.652  26.858 -0.1462  0.0399  0.0659
23694ION     NA28094   6.953   0.530  24.322  0.0686 -0.4763  0.1157
23695ION     NA28095  11.954   3.387  31.657 -0.1446 -0.0238 -0.1595
23696ION     NA28096  21.541   0.304   0.155  0.3451 -0.3272 -0.2974
23697ION     NA28097   8.733   0.725  15.608 -0.0296  0.4008 -0.1867
23698ION     NA28098  24.063   5.707  27.100  0.0319 -0.1888 -0.0744
23699ION     NA28099  13.248   7.279  30.954 -0.0450 -0.2265  0.1607
23700ION     NA28100  12.204   5.748   1.537 -0.1628  0.0142  0.2006
23701ION     NA28101   6.804   0.424  26.034  0.0751 -0.3626  0.0649
23702ION     NA28102   8.434   4.416   2.560 -0.0107 -0.1920  0.2919
23703ION     NA28103  19.441   0.906  32.504 -0.1235  0.0139 -0.3258
23704ION     NA28104  22.673   2.798   9.490  0.3526  0.1502 -0.0662
23705ION     NA28105   9.649   6.033  27.649 -0.2281 -0.0398 -0.3425
23706ION     NA28106   8.123   6.565   6.092 -0.2487 -0.1812  0.0291
23707ION     NA28107  22.236   7.236  31.426  0.1101  0.3560 -0.2550
23708ION     NA28108  10.019   3.737  22.853  0.0154  0.0284 -0.0676
23709ION     NA28109   5.676   2.981  16.429 -0.2539  0.1508 -0.2218
23710ION     NA28110   6.769   7.270   7.594 -0.1090 -0.1932 -0.1335
23711ION     NA28111  18.201   3.396  29.312 -0.1637 -0.3405 -0.3018
23712ION     NA28112  21.098   1.383  23.056  0.4205  0.3466  0.2494
23713ION     NA28113   9.334   5.246  26.900 -0.1519  0.1412 -0.5281
23714ION     NA28114  19.100   2.849   6.282  0.1153 -0.0074 -0.0292
23715ION     NA28115   4.259   4.600  31.672  0.1146  0.2270 -0.1113
23716ION     NA28116  10.853   4.025  23.084  0.1426  0.0106  0.0817
23717ION     NA28117  17.175   4.220  14.235  0.0131 -0.1802 -0.1261
23718ION     NA28118   1.433   5.591  23.028 -0.1617  0.3207 -0.2228
23719ION     NA28119   6.888   0.268  29.107  0.1411  0.3338  0.0507
23720ION     NA28120  18.326   3.048   5.410  0.3935 -0.5414  0.0461
23721ION     NA28121   3.813   5.409  17.607 -0.1007  0.2784  0.1226
23722ION     NA28122  23.108   4.842  14.080 -0.2246 -0.0039 -0.4668
23723ION     NA28123  19.072   6.921  24.267 -0.2198  0.1084 -0.5460
23724ION     NA28124   4.788   7.162   0.628 -0.1548 -0.0996 -0.3708
23725ION     NA28125   0.921   0.141  27.484 -0.6860  0.0590 -0.1334
23726ION     NA28126   8.870   6.301  20.587 -0.1436  0.1623  0.0507
23727ION     NA28127   7.179   5.526  17.609 -0.0984 -0.1349 -0.1960
23728ION     NA28128   6.811   7.804   4.676  0.0610  0.5411  0.2690
23729ION     NA28129   7.253   4.513  30.845  0.2093  0.1792 -0.3087
23730ION     NA28130  20.389   7.305   0.542 -0.5305  0.7012 -0.1020
23731ION     NA28131  21.914   1.023  27.353  0.0354  0.0642 -0.4292
23732ION     NA28132  18.218   0.608  22.643 -0.1985  0.0405 -0.3769
23733ION     NA28133  17.309   3.447   3.093 -0.1829  0.2817 -0.0096
23734ION     NA28134  17.395   2.928   0.711 -0.0395  0.4777 -0.0725
23735ION     NA28135   7.790   0.419  26.959  0.0044  0.1272 -0.1504
23736ION     NA28136  17.180   7.643   4.914 -0.5156  0.1301 -0.2416
23737ION     NA28137  20.381   3.971  23.334 -0.0124 -0.0161 -0.2562
23738ION     NA28138   0.743   4.715  26.677  0.5816 -0.0393 -0.0857
23739ION     NA28139  13.534   6.216   4.871 -0.4781 -0.1044  0.5054
23740ION     NA28140  16.081   2.974   0.919  0.1196  0.1016 -0.0812
23741ION     NA28141   9.002   1.845  17.428 -0.2683  0.0321 -0.1114
23742ION     NA28142   0.726   6.436   4.669  0.0365 -0.3955  0.2853
23743ION     NA28143  10.666   5.910   0.075 -0.2156  0.3129 -0.0575
23744ION     NA28144  15.056   1.849   7.959 -0.0549  0.0447 -0.2623
23745ION     NA28145   7.375   2.950  22.512  0.3468 -0.2107 -0.1314
23746ION     NA28146  22.407   0.721   0.942  0.2073  0.1323 -0.0489
23747ION     NA28147   8.857   0.327   5.255  0.0521 -0.1776  0.2921
23748ION     NA28148  21.630   3.750  25.734 -0.0518 -0.4524 -0.4298
23749ION     NA28149   2.559   1.532  32.330  0.4635 -0.1524  0.1857
23750ION     NA28150   7.001   3.081  15.967 -0.3350 -0.2312  0.1824
23751ION     NA28151  12.767   0.579   6.971 -0.7221  0.1169  0.0366
23752ION     NA28152  11.054   7.140   9.132  0.2568 -0.3253  0.3747
23753ION     NA28153  22.347   1.921   2.912  0.1887 -0.4012 -0.2898
23754ION     NA28154  13.869   0.401  32.574  0.1188  0.5750 -0.1669
23755ION     NA28155  21.814   1.528  16.819  0.0703 -0.0602  0.3020
23756ION     NA28156  17.917   6.027  26.985 -0.1609 -0.4350  0.2437
23757ION     NA28157   1.918   2.550  24.414  0.0764  0.6873 -0.2763
23758ION     NA28158   0.164   5.270  10.413 -0.3610  0.2406  0.1767
23759ION     NA28159   9.934   3.928  24.320  0.2265  0.6214 -0.1250
23760ION     NA28160  14.870   2.874   8.712  0.0518  0.0760  0.0925
23761ION     NA28161  20.821   1.868  22.491 -0.0556 -0.2862  0.0904
23762ION     NA28162  17.959   2.815  17.094  0.0596  0.0386  0.1905
23763ION     NA28163   0.660   2.027  10.875 -0.0349 -0.7454 -0.1787
23764ION     NA28164   4.421   1.912  25.060  0.2138 -0.1319 -0.1229
23765ION     NA28165  11.813   1.746   5.619 -0.0748  0.3823 -0.0996
23766ION     NA28166  12.730   2.584  30.917 -0.3748  0.3354  0.1596
23767ION     NA28167  24.918   7.197  11.545  0.1856  0.0046  0.1254
23768ION     NA28168   5.157   5.388   4.952 -0.1756  0.1841  0.1355
23769ION     NA28169  18.670   1.272  11.196  0.1813 -0.4923 -0.0279
23770ION     NA28170  15.664   5.084  11.023  0.0305  0.1911  0.6014
23771ION     NA28171  17.708   1.281  25.538  0.2545  0.2627  0.4132
23772ION     NA28172  16.810   1.958  26.197 -0.2295  0.0412 -0.4005
23773ION     NA28173  24.336   7.293   6.316 -0.1665  0.0094  0.2935
23774ION     NA28174  12.131   6.035  28.476 -0.1121  0.0694  0.3012
23775ION     NA28175   5.416   0.180   3.977 -0.2557 -0.3586  0.3685
23776ION     NA28176   5.434   3.291  28.370  0.3421  0.0784  0.0924
23777ION     NA28177  24.908   7.191  20.600  0.1144  0.2546 -0.4432
23778ION     NA28178   5.458   1.116  25.893  0.3402 -0.1948 -0.1729
23779ION     NA28179   1.640   4.935  30.579  0.0338 -0.0493 -0.2171
23780ION     NA28180   1.109   0.238  20.870  0.0491  0.0832  0.3753
23781ION     NA28181  24.483   7.698  21.624  0.5150 -0.5362  0.3550
23782ION     NA28182   9.999   4.469  19.029 -0.0645  0.3101 -0.2134
23783ION     NA28183  24.263   3.150   0.526 -0.0847 -0.3020  0.3478
23784ION     NA28184   6.512   5.182   9.594  0.1741 -0.2957  0.1846
23785ION     NA28185   3.609   4.843   4.564 -0.2243 -0.0096 -0.0890
23786ION     NA28186  24.748   0.263  27.371  0.0620  0.1343 -0.2199
23787ION     NA28187  10.225   3.951  17.469 -0.2209  0.2008  0.0728
23788ION     NA28188   1.602   0.707  21.986 -0.0325 -0.0739  0.0753
23789ION     NA28189   9.683   2.843  23.291 -0.0859  0.0899 -0.2212
23790ION     NA28190  21.224   0.509  15.151 -0.2367  0.1771 -0.0684
23791ION     NA28191  24.661   4.970  27.204 -0.1257  0.2053  0.0390
23792ION     NA28192  22.010   1.278   9.392 -0.2616  0.1288  0.5625
23793ION     NA28193  23.011   4.195  29.848 -0.4533 -0.1656  0.5099
23794ION     NA28194  22.871   4.412  26.416  0.3617 -0.1349 -0.0866
23795ION     NA28195  13.011   0.884   5.390  0.0554 -0.1502  0.0218
23796ION     NA28196   2.816   6.394  28.308  0.1650  0.1176  0.2047
23797ION     NA28197  18.043   5.626   6.347 -0.0665  0.1034  0.0302
23798ION     NA28198  18.088   7.706   6.060 -0.0000 -0.0835 -0.1999
23799ION     NA28199   1.280   1.344  28.983 -0.1845  0.1266 -0.4041
23800ION     NA28200  24.231   2.993   2.697  0.0148  0.3439 -0.2245
23801ION     NA28201   1.987   3.941  29.529  0.1195  0.0860  0.1131
23802ION     NA28202  17.525   7.402   8.200 -0.2961 -0.2454 -0.0509
23803ION     NA28203   6.109   3.074   7.053  0.1341 -0.0499 -0.0204
23804ION     NA28204  12.062   1.176   4.983 -0.4479  0.0487  0.2830
23805ION     NA28205   2.984   4.837   8.820 -0.1649  0.3251 -0.2714
23806ION     NA28206  24.398   0.176   7.171 -0.0116 -0.1555 -0.4270
23807ION     NA28207  22.169   4.968   9.932 -0.0295  0.0470 -0.1521
23808ION     NA28208  15.240   6.376  23.976 -0.1472 -0.0588  0.1421
23809ION     NA28209  24.268   5.817  11.464 -0.1675 -0.1073  0.5028
23810ION     NA28210  19.935   1.833   0.291 -0.0194  0.1660  0.0469
23811ION     NA28211  22.465   7.416  12.735  0.0918 -0.0713  0.2180
23812ION     NA28212  12.585   2.344   7.505 -0.4058  0.1031  0.1484
23813ION     NA28213  21.977   2.491   5.770 -0.1154  0.1215 -0.2013
23814ION     NA28214  18.925   3.691  13.528  0.3744  0.0452  0.1544
23815ION     NA28215   6.395   4.801  30.228 -0.1298 -0.1386  0.0889
23816ION     NA28216  22.471   7.205  27.619 -0.1545 -0.2192 -0.4677
23817ION     NA28217  17.605   7.358  23.682 -0.0450  0.3053  0.2368
23818ION     NA28218  23.419   4.988   2.720  0.1292  0.0326  0.1759
23819ION     NA28219   0.894   5.308  28.463 -0.1071  0.3503 -0.2945
23820ION     NA28220  21.246   5.245   4.210 -0.4110 -0.1506 -0.0562
23821ION     NA28221  20.635   3.392  17.306 -0.1657  0.6173 -0.0838
23822ION     NA28222   5.844   0.872   1.661 -0.2923  0.2379 -0.1247
23823ION     NA28223  17.091   0.034   6.074 -0.1632  0.1461 -0.5301
23824ION     NA28224  19.599   0.005  17.086 -0.5174 -0.0610 -0.0033
23825ION     NA28225  24.715   4.623  22.111 -0.1166 -0.4895  0.2463
23826ION     NA28226   8.283   7.104   2.238 -0.1546 -0.2501  0.1076
23827ION     NA28227  10.369   2.175   7.583  0.3805 -0.4176 -0.1403
23828ION     NA28228  21.923   6.997   1.373 -0.5882  0.0038  0.4932
23829ION     NA28229   4.549   7.093  32.300  0.1156  0.4731 -0.2683
23830ION     CL28230  15.458   5.696  10.979 -0.1693  0.1174  0.2634
23831ION     CL28231  18.698   3.975  11.950  0.1683 -0.3186 -0.0948
23832ION     CL28232   6.678   3.887  18.958 -0.4659 -0.1448 -0.0100
23833ION     CL28233  15.968   6.418  24.108 -0.0167  0.2459  0.0224
23834ION     CL28234  17.149   4.250  14.695 -0.0940 -0.0686  0.2764
23835ION     CL28235  17.624   0.513  11.673  0.4417  0.6022  0.0440
23836ION     CL28236  22.188   1.345   3.345 -0.2382 -0.4209  0.0922
23837ION     CL28237   9.061   2.032   7.649 -0.2058  0.3851 -0.0967
23838ION     CL28238  23.428   3.796  28.369 -0.1467 -0.3721 -0.1268
23839ION     CL28239   9.785   7.011   8.388  0.0530 -0.3370 -0.1181
23840ION     CL28240   0.259   3.799   5.044 -0.4200  0.1460 -0.1433
23841ION     CL28241  22.994   6.253  23.036 -0.1653  0.3763  0.1494
23842ION     CL28242  22.517   7.601  27.413 -0.2827  0.1918 -0.1340
23843ION     CL28243   7.923   1.083  26.792 -0.5385  0.0036 -0.1654
23844ION     CL28244  13.713   0.041  29.526  0.0887  0.2337  0.1072
23845ION     CL28245  15.315   6.000  14.612  0.1836 -0.3708  0.3346
23846ION     CL28246  13.722   1.886  12.871  0.0784  0.3349 -0.3703
23847ION     CL28247  20.989   6.951   3.452  0.1578  0.2727  0.0228
23848ION     CL28248   8.987   1.656  21.077 -0.0834 -0.1285  0.1339
23849ION     CL28249  20.737   4.821  15.197  0.6018  0.1336 -0.0128
23850ION     CL28250  17.195   4.191  29.142  0.0210  0.1196  0.5166
23851ION     CL28251  17.228   2.174  14.256  0.2741 -0.1504  0.0270
23852ION     CL28252   4.525   6.859  31.636 -0.3754 -0.5423 -0.2025
23853ION     CL28253   7.009   3.101  17.334 -0.2536  0.0762  0.0097
23854ION     CL28254  25.120   7.725  11.179  0.1113 -0.2596 -0.3489
23855ION     CL28255  15.101   3.646  11.618 -0.0615 -0.3665  0.1298
23856ION     CL28256   2.972   6.452   5.371 -0.2107  0.0270  0.2630
23857ION     CL28257   5.182   5.866  26.281 -0.1500 -0.1772  0.1154
23858ION     CL28258  14.125   0.554   1.709  0.0464 -0.1382 -0.3137
23859ION     CL28259  17.258   5.673  27.489 -0.4305 -0.2241 -0.0221
23860ION     CL28260   8.768   7.547  23.309 -0.1096  0.0293 -0.3756
23861ION     CL28261   2.701   1.271  19.246 -0.0834 -0.0484  0.6077
23862ION     CL28262   1.571   3.298   2.215 -0.4433 -0.0002  0.1014
23863ION     CL28263   5.697   7.182   4.412  0.0158 -0.0658 -0.0729
23864ION     CL28264  18.022   7.426  23.746  0.6906  0.2110  0.2968
23865ION     CL28265  13.194   5.909   6.325 -0.1622  0.1582  0.3508
23866ION     CL28266  11.328   2.994   5.090  0.3043 -0.0234  0.2716
23867ION     CL28267   5.417   5.631  29.684 -0.1660  0.1842  0.1184
23868ION     CL28268  22.827   7.101   7.981  0.4754 -0.2741 -0.3377
23869ION     CL28269  24.416   7.708  21.179 -0.0847 -0.2003 -0.2000
23870ION     CL28270   0.746   6.567  23.538  0.5916  0.2711 -0.0936
23871ION     CL28271   2.282   5.336  32.114 -0.0360  0.0453  0.2937
23872ION     CL28272  24.831   4.253  25.830  0.0655  0.1069 -0.1390
23873ION     CL28273  16.477   3.546  13.583  0.3763 -0.6456  0.2161
23874ION     CL28274   3.994   4.325  31.682  0.2278  0.0507  0.1791
23875ION     CL28275  19.602   1.591   5.582  0.3355  0.1931  0.4176
23876ION     CL28276  17.238   3.162   9.928  0.0896 -0.0512  0.0186
23877ION     CL28277  21.633   0.299   1.239 -0.0004  0.4394 -0.1356
23878ION     CL28278   4.496   3.489  20.754 -0.3598  0.1884  0.1537
23879ION     CL28279   6.380   7.220   7.485  0.2622 -0.0981 -0.2190
23880ION     CL28280  15.742   2.607   4.251 -0.1056  0.0439  0.2114
23881ION     CL28281  20.938   5.811  11.873  0.0044  0.0785  0.2453
23882ION     CL28282  24.263   3.895  31.531  0.0685  0.3858 -0.2158
23883ION     CL28283   5.436   4.703  23.594  0.1886 -0.4358  0.5361
23884ION     CL28284  12.440   4.491  23.383  0.1647 -0.0691 -0.0878
23885ION     CL28285  21.086   2.112  10.625  0.3697  0.0293 -0.2848
23886ION     CL28286  15.906   4.381  10.854 -0.1295 -0.2183 -0.0578
23887ION     CL28287   5.613   0.256   4.624 -0.1388 -0.2942  0.3004
23888ION     CL28288   1.854   7.062  25.755 -0.3324  0.3117  0.1878
23889ION     CL28289   6.305   3.157   9.576 -0.3239  0.4448 -0.1205
23890ION     CL28290  15.811   3.435  25.805 -0.7611  0.1946  0.1991
23891ION     CL28291   4.178   6.509  23.807  0.0727 -0.0510 -0.3273
23892ION     CL28292  23.004   4.632  14.359 -0.2121  0.0016  0.0183
23893ION     CL28293  14.531   3.049   1.996 -0.1122  0.4670  0.1012
23894ION     CL28294  20.085   7.344   4.784 -0.0261 -0.7932 -0.2748
23895ION     CL28295  17.087   0.392   7.615 -0.0389  0.1306  0.0471
23896ION     CL28296  20.667   5.833  31.013  0.3703 -0.0573  0.0806
23897ION     CL28297   7.249   6.005  17.024 -0.1988 -0.2325 -0.0556
23898ION     CL28298  23.655   0.735   2.183 -0.1915 -0.2887 -0.1551
23899ION     CL28299   2.228   0.570   0.259  0.0027  0.0333  0.0679
23900ION     CL28300  15.501   1.005  22.681  0.1750  0.0522  0.0375
23901ION     CL28301   8.130   2.555  16.990  0.2043  0.2848 -0.1467
23902ION     CL28302  12.549   1.144  19.924 -0.2467  0.2271 -0.1545
23903ION     CL28303   4.289   3.584  30.477  0.0362 -0.2147  0.2971
23904ION     CL28304   9.518   2.979   8.555  0.2008  0.2276 -0.1967
23905ION     CL28305   5.098   7.488   7.006 -0.2532  0.1584  0.1598
23906ION     CL28306   9.514   2.515  24.724  0.2414  0.0299 -0.0530
23907ION     CL28307  10.769   3.444  26.121  0.4303  0.5948 -0.1073
23908ION     CL28308  20.170   1.646   0.134 -0.0040  0.2799  0.0330
23909ION     CL28309  12.476   6.216  11.682  0.3173  0.2411  0.4279
23910ION     CL28310  22.336   1.323  29.616 -0.2428  0.1859 -0.0067
23911ION     CL28311  23.761   5.252   1.705  0.1871 -0.0741 -0.2118
23912ION     CL28312  19.063   4.009   1.311 -0.0256  0.1155 -0.2634
23913ION     CL28313  23.232   4.300  11.219 -0.0718  0.1073 -0.0397
23914ION     CL28314   8.267   5.400  31.536  0.1117 -0.1775 -0.3135
23915ION     CL28315  18.807   2.207   8.398  0.1925  0.0344  0.0651
23916ION     CL28316   1.430   5.691  23.995 -0.0102 -0.1299 -0.0010
23917ION     CL28317   2.567   2.099  27.659  0.2265 -0.1341  0.3415
23918ION     CL28318  13.886   0.678   6.074 -0.1391  0.5348 -0.3833
23919ION     CL28319   6.254   4.866  31.223 -0.2541 -0.1294  0.1081
23920ION     CL28320  11.158   1.814  32.077 -0.5577  0.0813 -0.4963
23921ION     CL28321   4.538   6.448  18.922 -0.2911  0.0289 -0.2404
23922ION     CL28322  19.059   3.521  13.789  0.2890 -0.2086  0.1976
23923ION     CL28323  14.178   5.726   9.000 -0.3369  0.1579  0.1557
23924ION     CL28324  19.002   4.148   0.585  0.1875 -0.1133 -0.2931
23925ION     CL28325   8.955   6.552   1.877  0.0014  0.2694  0.3106
23926ION     CL28326  12.024   6.908   8.630 -0.2559  0.0043 -0.0162
23927ION     CL28327   4.004   6.006   3.410 -0.4197  0.2044 -0.4278
23928ION     CL28328  20.401   4.841  13.772  0.1249 -0.4177 -0.3571
23929ION     CL28329  17.517   3.309   5.919 -0.2935  0.3326  0.2352
23930ION     CL28330   3.176   7.179  31.407 -0.4110 -0.1591 -0.1119
23931ION     CL28331   7.327   2.372   5.124 -0.0892 -0.2263  0.2541
23932ION     CL28332   8.024   1.835   0.331 -0.4950  0.0748 -0.2826
23933ION     CL28333  15.153   4.650   0.617  0.1946  0.1021  0.6277
23934ION     CL28334  21.866   4.656  26.209 -0.0457  0.5551  0.1214
23935ION     CL28335  21.296   7.035   2.717 -0.0921  0.0728 -0.3875
23936ION     CL28336  18.371   3.235  27.639 -0.2741  0.6287  0.0109
23937ION     CL28337  17.588   3.292   1.566  0.1968  0.2397  0.2107
23938ION     CL28338   0.275   4.594   0.461 -0.0125 -0.0494  0.0969
23939ION     CL28339  22.198   5.209   0.187 -0.0079  0.1972 -0.6927
23940ION     CL28340  22.956   6.781  26.309  0.6309 -0.0247  0.1277
23941ION     CL28341  12.765   1.812   7.848  0.0797  0.1249 -0.2349
23942ION     CL28342  21.354   2.342  23.815  0.0785 -0.3212  0.1859
23943ION     CL28343  21.449   0.721  30.904 -0.1579  0.1681 -0.1295
23944ION     CL28344  18.242   5.388  30.910 -0.6225  0.0363 -0.3170
23945ION     CL28345  10.152   5.708  31.738 -0.3995 -0.3808  0.0063
23946ION     CL28346   8.228   0.784  15.363  0.2971  0.1675  0.0788
23947ION     CL28347  20.043   3.884  29.433  0.2671  0.1052 -0.5422
23948ION     CL28348  15.672   6.869   7.421 -0.1140  0.1163  0.0640
23949ION     CL28349  13.523   5.532  25.177  0.2437  0.1369 -0.1305
23950ION     CL28350   1.276   0.860  29.395 -0.0630 -0.5264  0.4635
23951ION     CL28351  15.147   6.085   1.983 -0.1283  0.1767 -0.1528
23952ION     CL28352   8.527   4.656  21.156 -0.2937  0.1956 -0.0505
23953ION     CL28353  19.257   0.622  12.506 -0.0401 -0.0569 -0.2022
23954ION     CL28354   7.213   2.900   8.497 -0.2966 -0.0710  0.0880
23955ION     CL28355  20.680   2.594   5.534  0.5135  0.2877 -0.2052
23956ION     CL28356   8.469   3.453   3.947  0.0413 -0.3592 -0.1866
23957ION     CL28357  11.049   2.427   9.033 -0.6011 -0.0016 -0.4073
23958ION     CL28358  18.795   3.495   1.038  0.2260 -0.0440  0.1474
23959ION     CL28359   4.791   2.188  24.916  0.0574  0.0824  0.6809
23960ION     CL28360  15.077   5.975  28.833  0.2469 -0.3997  0.1606
23961ION     CL28361  10.619   3.883  20.679  0.3714  0.6562 -0.2016
23962ION     CL28362  10.049   1.582  17.941 -0.0966 -0.4860 -0.4275
23963ION     CL28363   3.665   6.165  22.683  0.1559  0.4521 -0.1956
23964ION     CL28364  21.374   7.679  12.711  0.1213  0.6389 -0.1294
23965ION     CL28365   8.624   6.591  22.735 -0.2477 -0.4242  0.2704
23966ION     CL28366   9.947   2.954  20.054  0.3734 -0.3461 -0.0635
23967ION     CL28367  15.703   1.132  31.561  0.6482 -0.1217 -0.1379
23968ION     CL28368  10.079   4.253  17.264  0.2799  0.3668 -0.1438
23969ION     CL28369  11.323   4.053   5.106 -0.0718  0.3556  0.0395
23970ION     CL28370  13.058   6.549   8.296 -0.3153 -0.2017 -0.0754
23971ION     CL28371  23.703   5.579  27.022  0.3810  0.2425  0.1635
23972ION     CL28372  19.431   6.165  32.139  0.1116 -0.0967 -0.5535
23973ION     CL28373   4.708   5.894  19.322 -0.3034 -0.3219  0.0469
23974ION     CL28374   4.019   4.023  18.669  0.4333 -0.1401 -0.1749
23975DOPC   NC328375  17.037   3.281  22.105  0.1302  0.1704  0.1356
23975DOPC   PO428376  17.185   3.610  22.184 -0.3917 -0.0356 -0.0522
23975DOPC   GL128377  17.131   3.889  21.952  0.0310  0.1307 -0.3061
23975DOPC   GL228378  17.396   3.871  21.856  0.1162  0.2704  0.0571
23975DOPC   C1A28379  16.930   3.918  21.605 -0.1269 -0.1857 -0.3145
23975DOPC   D2A28380  16.970   3.731  21.130 -0.0805  0.0935 -0.0936
23975DOPC   C3A28381  17.041   3.917  20.760  0.1463 -0.3018 -0.3434
23975DOPC   C4A28382  17.364   4.003  20.421  0.0332  0.0443  0.1682
23975DOPC   C1B28383  17.383   3.746  21.372  0.0548 -0.0420 -0.0581
23975DOPC   D2B28384  17.350   3.390  21.032  0.2138 -0.1527  0.2889
23975DOPC   C3B28385  17.244   2.956  21.150 -0.0477  0.2547 -0.1856
23975DOPC   C4B28386  16.749   2.758  21.334  0.2370  0.3299  0.0122
23976DOPC   NC328387   4.740   3.259  15.142 -0.0234  0.0788 -0.4547
23976DOPC   PO428388   5.025   3.236  14.918  0.0582 -0.1577 -0.0083
23976DOPC   GL128389   4.766   3.093  14.612  0.0167 -0.0981 -0.2328
23976DOPC   GL228390   4.538   3.144  14.765 -0.0204 -0.6217  0.1157
23976DOPC   C1A28391   4.883   3.108  14.205  0.0144 -0.2213 -0.3730
23976DOPC   D2A28392   4.779   3.013  13.726 -0.3035 -0.0129  0.0363
23976DOPC   C3A28393   4.566   3.253  13.409 -0.2909 -0.0097  0.1766
23976DOPC   C4A28394   4.130   3.552  13.261 -0.0698 -0.2310 -0.3441
23976DOPC   C1B28395   4.238   3.035  14.440 -0.2545  0.1354 -0.3588
23976DOPC   D2B28396   3.854   3.002  14.082  0.2382  0.1314  0.0765
23976DOPC   C3B28397   3.665   3.135  13.653 -0.1269  0.1781 -0.3690
23976DOPC   C4B28398   3.315   3.366  13.385 -0.1199  0.2123 -0.3981
23977DOPC   NC328399   2.362   1.704  17.000  0.3037 -0.3865  0.0136
23977DOPC   PO428400   1.995   1.579  17.155  0.0731 -0.0674  0.0267
23977DOPC   GL128401   1.716   1.598  16.935  0.0065  0.1607 -0.1484
23977DOPC   GL228402   1.855   1.785  16.705  0.2686  0.1942  0.1184
23977DOPC   C1A28403   1.319   1.551  16.695 -0.2168 -0.1580 -0.1802
23977DOPC   D2A28404   1.133   1.813  16.262 -0.1153  0.0059  0.3891
23977DOPC   C3A28405   0.898   2.136  16.126  0.0417 -0.3336  0.3199
23977DOPC   C4A28406   0.662   2.583  16.048 -0.1986 -0.0609  0.1239
23977DOPC   C1B28407   2.159   1.663  16.390  0.1268  0.0299  0.1928
23977DOPC   D2B28408   2.438   1.538  15.987 -0.1135  0.0525  0.0658
23977DOPC   C3B28409   2.227   1.416  15.563 -0.2284 -0.1514  0.1934
23977DOPC   C4B28410   1.940   1.566  15.216 -0.1051  0.1405 -0.3163
23978DOPC   NC328411  11.405   5.609  17.598  0.1283 -0.0344 -0.0350
23978DOPC   PO428412  11.123   5.622  17.318 -0.0628 -0.0075 -0.0424
23978DOPC   GL128413  11.460   5.694  17.035  0.2576  0.0157 -0.0918
23978DOPC   GL228414  11.582   5.409  17.202  0.0038  0.0423 -0.1624
23978DOPC   C1A28415  11.617   5.549  16.642 -0.0670  0.1455 -0.1171
23978DOPC   D2A28416  11.859   5.376  16.225  0.1180 -0.0261  0.0092
23978DOPC   C3A28417  12.195   5.174  15.966 -0.0365  0.0440 -0.2262
23978DOPC   C4A28418  12.549   4.949  15.742  0.0463  0.0896  0.0185
23978DOPC   C1B28419  11.839   5.178  16.848  0.2826 -0.2728 -0.0855
23978DOPC   D2B28420  12.218   5.083  16.515  0.2463 -0.2182  0.0665
23978DOPC   C3B28421  12.611   5.238  16.299 -0.1414  0.0048 -0.1341
23978DOPC   C4B28422  12.990   5.455  16.222  0.0370 -0.2393  0.0356
23979DOPC   NC328423   2.325   4.447  17.497 -0.1434 -0.0631 -0.0418
23979DOPC   PO428424   2.178   4.146  17.645  0.0040  0.2351 -0.2559
23979DOPC   GL128425   1.900   4.036  17.338 -0.0052 -0.0581 -0.0608
23979DOPC   GL228426   2.067   4.221  17.184  0.0781  0.1064  0.3726
23979DOPC   C1A28427   1.470   3.950  17.269 -0.0774  0.1864 -0.0732
23979DOPC   D2A28428   1.004   3.835  17.194  0.1792  0.1681  0.4149
23979DOPC   C3A28429   0.687   4.068  16.942 -0.2242 -0.0084  0.1213
23979DOPC   C4A28430   0.569   4.257  16.502  0.1017 -0.3852 -0.1939
23979DOPC   C1B28431   1.844   4.314  16.787  0.2783 -0.2812 -0.0007
23979DOPC   D2B28432   1.580   4.383  16.385  0.0446 -0.0223  0.0662
23979DOPC   C3B28433   1.410   4.671  16.132  0.0556 -0.1565 -0.2299
23979DOPC   C4B28434   1.310   5.047  15.811  0.2407 -0.1641 -0.1081
23980DOPC   NC328435  16.579   0.656  22.186  0.0777  0.2511  0.0354
23980DOPC   PO428436  16.369   0.869  21.920 -0.0932 -0.0446 -0.0991
23980DOPC   GL128437  16.543   0.993  21.547 -0.2651 -0.1907  0.0041
23980DOPC   GL228438  16.385   0.726  21.547  0.0736 -0.2508  0.1992
23980DOPC   C1A28439  16.510   1.043  21.106  0.3109  0.0697 -0.2150
23980DOPC   D2A28440  16.538   0.852  20.644 -0.2350 -0.0986 -0.2854
23980DOPC   C3A28441  16.711   0.592  20.328 -0.2984 -0.2735 -0.0972
23980DOPC   C4A28442  17.048   0.682  19.940 -0.0936  0.0849 -0.0337
23980DOPC   C1B28443  16.123   0.725  21.209  0.2084 -0.2036 -0.0097
23980DOPC   D2B28444  16.055   0.831  20.703 -0.0868  0.1349 -0.1763
23980DOPC   C3B28445  16.190   0.759  20.276 -0.1451  0.1290 -0.3113
23980DOPC   C4B28446  16.474   0.700  19.870  0.1452 -0.3379 -0.4376
23981DOPC   NC328447  19.838   3.710  21.997 -0.0617 -0.0990 -0.1980
23981DOPC   PO428448  19.728   3.369  22.194 -0.0490  0.3579 -0.2065
23981DOPC   GL128449  19.499   3.273  21.833 -0.1422  0.1416 -0.0298
23981DOPC   GL228450  19.319   3.458  21.896 -0.0109 -0.3312  0.0962
23981DOPC   C1A28451  19.492   3.082  21.461 -0.0627 -0.3478  0.3453
23981DOPC   D2A28452  19.453   2.633  21.281 -0.1657 -0.3418  0.0178
23981DOPC   C3A28453  19.506   2.256  21.004  0.1327  0.0470 -0.0022
23981DOPC   C4A28454  19.658   1.824  20.861 -0.3793 -0.1684  0.1600
23981DOPC   C1B28455  19.055   3.302  21.593 -0.1282 -0.0422 -0.0269
23981DOPC   D2B28456  18.770   3.276  21.201  0.1714  0.1043 -0.2093
23981DOPC   C3B28457  18.918   3.426  20.775 -0.0260 -0.1223 -0.1791
23981DOPC   C4B28458  19.383   3.456  20.665  0.0510  0.1662 -0.3180
23982DOPC   NC328459  11.740   6.210  19.052  0.2579 -0.0706 -0.2618
23982DOPC   PO428460  11.804   6.326  18.668  0.3209  0.1543 -0.3345
23982DOPC   GL128461  12.143   6.371  18.499  0.0170  0.0904  0.2163
23982DOPC   GL228462  12.256   6.643  18.574 -0.1225 -0.0597 -0.2288
23982DOPC   C1A28463  12.399   6.049  18.343  0.5552 -0.0085  0.0968
23982DOPC   D2A28464  12.770   5.731  18.208 -0.0818 -0.2245  0.0018
23982DOPC   C3A28465  13.184   5.897  17.992  0.0466 -0.1076  0.1964
23982DOPC   C4A28466  13.642   6.043  17.835  0.0051 -0.0733 -0.1933
23982DOPC   C1B28467  12.707   6.495  18.544 -0.0243  0.0890 -0.0885
23982DOPC   D2B28468  13.029   6.104  18.538  0.0396 -0.2373 -0.0008
23982DOPC   C3B28469  13.445   6.189  18.294 -0.0371 -0.2515 -0.0259
23982DOPC   C4B28470  13.954   6.141  18.263  0.2023 -0.1371  0.0536
23983DOPC   NC328471   1.572   5.068  18.432 -0.3864  0.1663 -0.0636
23983DOPC   PO428472   1.423   5.416  18.347  0.0258  0.0422 -0.0710
23983DOPC   GL128473   1.184   5.318  17.996 -0.1430  0.2456 -0.0064
23983DOPC   GL228474   0.901   5.461  18.094  0.2491 -0.0436 -0.0106
23983DOPC   C1A28475   1.327   5.301  17.605  0.2482 -0.1216  0.2117
23983DOPC   D2A28476   1.476   5.204  17.132 -0.0343 -0.1702 -0.1990
23983DOPC   C3A28477   1.246   5.113  16.768 -0.0686 -0.1203 -0.0332
23983DOPC   C4A28478   0.916   4.917  16.529 -0.0012  0.0983  0.1296
23983DOPC   C1B28479   0.566   5.609  17.857  0.0850 -0.1973  0.0267
23983DOPC   D2B28480   0.163   5.503  17.578 -0.2187  0.0667 -0.1288
23983DOPC   C3B28481  -0.033   5.188  17.358  0.0797  0.2224  0.0435
23983DOPC   C4B28482  -0.345   4.798  17.427  0.0336 -0.3834  0.2451
23984DOPC   NC328483  14.064   0.230  20.458  0.1005 -0.0376 -0.2235
23984DOPC   PO428484  14.462   0.260  20.575  0.0783 -0.1702  0.0956
23984DOPC   GL128485  14.911   0.140  20.530 -0.0170  0.1977  0.4041
23984DOPC   GL228486  14.980   0.454  20.615  0.0547 -0.3596  0.0389
23984DOPC   C1A28487  15.200   0.147  20.192 -0.0680  0.1568 -0.0324
23984DOPC   D2A28488  15.505   0.077  19.758  0.2801  0.1550 -0.0292
23984DOPC   C3A28489  15.871   0.105  19.410 -0.1087 -0.0692  0.0322
23984DOPC   C4A28490  16.245   0.131  19.134  0.0035  0.0256  0.1571
23984DOPC   C1B28491  15.044   0.617  20.298  0.1469 -0.1095 -0.0208
23984DOPC   D2B28492  15.266   0.898  20.008 -0.1023 -0.2446 -0.2005
23984DOPC   C3B28493  15.447   1.083  19.590 -0.1351  0.1052 -0.0276
23984DOPC   C4B28494  15.915   1.105  19.314  0.1208  0.0960 -0.0382
23985DOPC   NC328495  11.313   6.962  17.342 -0.1519 -0.2759  0.2437
23985DOPC   PO428496  11.528   6.657  17.222 -0.2064 -0.0811  0.2643
23985DOPC   GL128497  11.667   6.702  16.794  0.4378  0.3976  0.0748
23985DOPC   GL228498  11.543   6.474  16.702 -0.0737  0.0387 -0.1509
23985DOPC   C1A28499  11.805   7.011  16.491  0.0221  0.1067 -0.2352
23985DOPC   D2A28500  11.711   7.412  16.219 -0.0891 -0.0427 -0.0419
23985DOPC   C3A28501  12.059   7.638  15.990  0.0479  0.1057  0.1189
23985DOPC   C4A28502  12.531   7.514  15.809  0.1545  0.1867 -0.1532
23985DOPC   C1B28503  11.655   6.392  16.303 -0.0135  0.1829  0.0315
23985DOPC   D2B28504  11.541   6.106  15.926  0.1673 -0.6167 -0.3796
23985DOPC   C3B28505  11.810   5.824  15.734 -0.0654  0.1663 -0.1432
23985DOPC   C4B28506  12.182   5.498  15.598 -0.2059  0.0664 -0.1968
23986DOPC   NC328507   0.522   0.630  19.135 -0.0331 -0.0861 -0.6396
23986DOPC   PO428508   0.337   0.701  19.490 -0.2888 -0.0813  0.1360
23986DOPC   GL128509   0.106   0.466  19.233 -0.0407  0.0360  0.1976
23986DOPC   GL228510   0.098   0.658  18.998  0.3706 -0.6191  0.3741
23986DOPC   C1A28511  -0.298   0.390  19.265 -0.4393 -0.1711 -0.0178
23986DOPC   D2A28512  -0.570   0.821  19.147  0.1882  0.0559  0.0309
23986DOPC   C3A28513  -0.958   0.959  19.420 -0.2492 -0.1711  0.0041
23986DOPC   C4A28514  -1.255   1.248  19.720  0.1625 -0.0255  0.2249
23986DOPC   C1B28515  -0.244   0.849  18.832 -0.1891 -0.2788  0.0542
23986DOPC   D2B28516  -0.637   0.905  18.568 -0.1367 -0.1534  0.0824
23986DOPC   C3B28517  -0.926   0.552  18.431 -0.0777 -0.0072 -0.3919
23986DOPC   C4B28518  -1.006   0.198  18.082  0.1530  0.1945  0.0002
23987DOPC   NC328519   7.762   6.457  14.083  0.2819  0.1364  0.0294
23987DOPC   PO428520   7.811   6.121  14.229 -0.1571 -0.2246  0.1307
23987DOPC   GL128521   7.822   5.956  13.878  0.4069  0.0286  0.1917
23987DOPC   GL228522   8.007   5.892  13.840  0.1377  0.0886 -0.0258
23987DOPC   C1A28523   7.570   5.932  13.458 -0.0643  0.2516  0.1059
23987DOPC   D2A28524   7.444   5.790  12.972  0.2189  0.0078 -0.0134
23987DOPC   C3A28525   7.287   5.588  12.591 -0.0167  0.2447 -0.1005
23987DOPC   C4A28526   7.219   5.158  12.319 -0.0468 -0.1441 -0.1573
23987DOPC   C1B28527   8.053   6.162  13.466  0.0448 -0.0038 -0.0925
23987DOPC   D2B28528   8.054   6.439  13.058 -0.1094 -0.0457  0.3071
23987DOPC   C3B28529   8.250   6.464  12.589 -0.1712  0.1432 -0.0177
23987DOPC   C4B28530   8.050   6.462  12.129 -0.0261  0.4423  0.3828
23988DOPC   NC328531  11.646   6.591  17.970  0.0304 -0.1098 -0.1078
23988DOPC   PO428532  11.674   6.891  17.720 -0.4245 -0.2012  0.1188
23988DOPC   GL128533  11.853   6.877  17.416  0.0507 -0.0657 -0.0651
23988DOPC   GL228534  11.728   7.108  17.232  0.0529  0.0556  0.1977
23988DOPC   C1A28535  12.244   6.584  17.311  0.1077  0.2802 -0.1135
23988DOPC   D2A28536  12.470   6.599  16.883 -0.1349  0.2466 -0.1047
23988DOPC   C3A28537  12.963   6.719  16.804 -0.1078  0.0270 -0.0115
23988DOPC   C4A28538  13.383   6.577  16.641  0.2570  0.1473  0.0263
23988DOPC   C1B28539  12.021   7.053  16.956  0.3353  0.0654  0.1047
23988DOPC   D2B28540  12.329   6.944  16.498  0.0926  0.2708 -0.1855
23988DOPC   C3B28541  12.719   6.651  16.381 -0.1215 -0.1145 -0.4065
23988DOPC   C4B28542  13.103   6.436  16.263 -0.0534  0.2482 -0.1533
23989DOPC   NC328543  24.003   0.871  21.105 -0.0333 -0.0535 -0.1747
23989DOPC   PO428544  23.839   0.744  20.758 -0.1248  0.0170  0.2268
23989DOPC   GL128545  23.908   0.930  20.366  0.0441  0.4520 -0.0317
23989DOPC   GL228546  23.769   0.591  20.335  0.0339 -0.0507 -0.0932
23989DOPC   C1A28547  23.512   1.050  20.134 -0.0235  0.1766 -0.2190
23989DOPC   D2A28548  23.250   1.252  19.746 -0.0425 -0.1857  0.1919
23989DOPC   C3A28549  23.216   1.113  19.280  0.1779 -0.1058 -0.2938
23989DOPC   C4A28550  23.417   0.872  18.945 -0.0667 -0.0456  0.2131
23989DOPC   C1B28551  23.985   0.342  20.039  0.5075  0.2918  0.2714
23989DOPC   D2B28552  24.085  -0.084  19.797 -0.0459  0.0377  0.0019
23989DOPC   C3B28553  23.895  -0.126  19.345  0.0837 -0.0271 -0.2554
23989DOPC   C4B28554  23.729  -0.266  18.881  0.1266 -0.2781  0.2126
23990DOPC   NC328555  21.773   0.917  22.143  0.2335 -0.0048 -0.2936
23990DOPC   PO428556  21.528   0.615  22.260  0.0721 -0.0697 -0.0434
23990DOPC   GL128557  21.139   0.698  22.017  0.4712 -0.2485 -0.1522
23990DOPC   GL228558  21.323   0.937  22.042  0.0818 -0.3149 -0.0461
23990DOPC   C1A28559  20.953   0.590  21.639 -0.0706 -0.1432  0.3214
23990DOPC   D2A28560  21.010   0.318  21.224  0.1779 -0.1970 -0.3009
23990DOPC   C3A28561  20.809   0.273  20.831 -0.1667 -0.0818  0.0549
23990DOPC   C4A28562  20.881   0.242  20.346  0.1425  0.2719  0.2428
23990DOPC   C1B28563  21.304   0.954  21.595 -0.0882 -0.0168 -0.1402
23990DOPC   D2B28564  21.127   0.837  21.199  0.1802 -0.1549  0.0613
23990DOPC   C3B28565  20.859   1.188  21.033 -0.0929  0.2994  0.3183
23990DOPC   C4B28566  20.605   1.503  20.807  0.5380  0.0904 -0.0165
23991DOPC   NC328567   7.004   0.913  13.858  0.0314 -0.5521 -0.0552
23991DOPC   PO428568   6.921   1.270  13.706  0.4245 -0.1172  0.3312
23991DOPC   GL128569   6.579   1.367  13.540 -0.0270 -0.2909  0.0353
23991DOPC   GL228570   6.344   1.299  13.660  0.0966  0.2037  0.0462
23991DOPC   C1A28571   6.398   1.274  13.143 -0.2085  0.3114  0.2619
23991DOPC   D2A28572   6.201   1.076  12.740 -0.1654  0.2003 -0.0762
23991DOPC   C3A28573   6.382   0.862  12.430  0.0089  0.3325 -0.0201
23991DOPC   C4A28574   6.589   0.677  12.008  0.0494  0.0285 -0.0065
23991DOPC   C1B28575   5.997   1.381  13.460 -0.2393 -0.2334 -0.1353
23991DOPC   D2B28576   5.820   1.595  13.059 -0.3538  0.0482 -0.0937
23991DOPC   C3B28577   6.176   1.562  12.715 -0.2492 -0.1801  0.2955
23991DOPC   C4B28578   6.487   1.528  12.372  0.1424  0.0186  0.2675
23992DOPC   NC328579   3.666   6.947  15.897 -0.2861  0.0175  0.0712
23992DOPC   PO428580   3.368   7.171  15.824 -0.1519  0.1382 -0.1740
23992DOPC   GL128581   2.969   7.020  15.664  0.0427  0.0343  0.3268
23992DOPC   GL228582   2.904   7.329  15.649 -0.1317 -0.1391 -0.4147
23992DOPC   C1A28583   2.757   6.624  15.623  0.2106  0.4473  0.0730
23992DOPC   D2A28584   2.387   6.418  15.416  0.1000 -0.1651  0.0110
23992DOPC   C3A28585   1.951   6.395  15.373 -0.2482 -0.0812 -0.1695
23992DOPC   C4A28586   1.510   6.329  15.224 -0.2515  0.1308  0.4400
23992DOPC   C1B28587   2.570   7.414  15.374  0.2740 -0.1724 -0.4273
23992DOPC   D2B28588   2.461   7.753  15.049  0.1093  0.0203 -0.2500
23992DOPC   C3B28589   2.404   8.109  14.832  0.0401 -0.0474  0.0372
23992DOPC   C4B28590   2.297   8.136  14.362 -0.2468 -0.0165  0.0878
23993DOPC   NC328591   9.311   1.388  14.810  0.0894  0.1806 -0.1496
23993DOPC   PO428592   9.292   1.622  15.104  0.4494 -0.0896 -0.2088
23993DOPC   GL128593   9.729   1.731  15.034  0.3312 -0.3052 -0.1790
23993DOPC   GL228594   9.789   1.481  14.914  0.1757  0.2266  0.2348
23993DOPC   C1A28595   9.887   2.129  14.906  0.4076 -0.3259  0.2919
23993DOPC   D2A28596   9.810   2.621  14.782 -0.1187 -0.2020 -0.2296
23993DOPC   C3A28597   9.777   2.742  14.313 -0.0601 -0.1538 -0.3027
23993DOPC   C4A28598   9.560   2.966  13.952 -0.0944  0.0094  0.3365
23993DOPC   C1B28599  10.042   1.320  14.669 -0.2085  0.1636 -0.1014
23993DOPC   D2B28600  10.419   1.196  14.460 -0.3895  0.2300 -0.2404
23993DOPC   C3B28601  10.773   1.096  14.154  0.1774  0.0698  0.2794
23993DOPC   C4B28602  11.181   0.913  13.955  0.1680  0.4028 -0.1339
23994DOPC   NC328603  12.034   4.987  18.788  0.2318  0.1999  0.0574
23994DOPC   PO428604  12.399   5.005  18.907  0.0129  0.3389 -0.2346
23994DOPC   GL128605  12.827   5.094  18.882  0.1289  0.3813  0.2113
23994DOPC   GL228606  12.805   5.274  19.070  0.0004  0.1871 -0.0975
23994DOPC   C1A28607  13.185   4.794  18.845 -0.1448 -0.0818 -0.0682
23994DOPC   D2A28608  13.677   4.766  18.731  0.0781  0.0261 -0.2538
23994DOPC   C3A28609  13.985   4.445  18.662  0.0066  0.0794 -0.0139
23994DOPC   C4A28610  14.425   4.582  18.514  0.0042 -0.2274 -0.0192
23994DOPC   C1B28611  13.000   5.526  18.720  0.0414 -0.1327  0.2353
23994DOPC   D2B28612  13.310   5.577  18.369  0.1314 -0.1362 -0.0659
23994DOPC   C3B28613  13.727   5.677  18.147 -0.0271 -0.0915 -0.0758
23994DOPC   C4B28614  14.066   5.832  17.794 -0.1876  0.1053  0.1982
23995DOPC   NC328615  11.479   6.172  17.093 -0.0151  0.1605  0.0811
23995DOPC   PO428616  11.559   6.029  17.452 -0.3065 -0.0038 -0.0391
23995DOPC   GL128617  11.884   6.108  17.296 -0.3351  0.0136  0.2827
23995DOPC   GL228618  11.868   6.377  17.135 -0.2904 -0.3104 -0.1245
23995DOPC   C1A28619  12.289   6.072  17.461 -0.3774  0.1493  0.3782
23995DOPC   D2A28620  12.647   6.388  17.614  0.1418  0.1099  0.1167
23995DOPC   C3A28621  13.061   6.603  17.480 -0.3028 -0.1940  0.1676
23995DOPC   C4A28622  13.388   6.818  17.196  0.1366 -0.0296  0.1849
23995DOPC   C1B28623  12.024   6.524  16.673  0.0443  0.0313 -0.2569
23995DOPC   D2B28624  12.081   6.622  16.181 -0.1167  0.0099 -0.1775
23995DOPC   C3B28625  12.437   6.796  15.973  0.2148 -0.1251 -0.2535
23995DOPC   C4B28626  12.768   7.061  15.862 -0.2210 -0.2083 -0.0129
23996DOPC   NC328627   9.254   7.241  15.973  0.1284 -0.0721 -0.0713
23996DOPC   PO428628   9.419   6.969  15.770 -0.0643  0.1161 -0.0776
23996DOPC   GL128629   9.788   7.019  15.560  0.1679 -0.0232 -0.0317
23996DOPC   GL228630   9.886   7.255  15.683  0.4074 -0.0950 -0.1293
23996DOPC   C1A28631   9.824   6.901  15.158  0.0932 -0.0635 -0.1349
23996DOPC   D2A28632   9.859   6.927  14.692 -0.0908  0.1747 -0.0964
23996DOPC   C3A28633  10.086   6.545  14.525  0.0946  0.1466 -0.1527
23996DOPC   C4A28634  10.563   6.386  14.594  0.1882  0.0427 -0.0613
23996DOPC   C1B28635  10.318   7.291  15.575  0.1539 -0.2865  0.0330
23996DOPC   D2B28636  10.758   7.421  15.480  0.0084 -0.1151 -0.1808
23996DOPC   C3B28637  10.921   7.416  15.100 -0.0339 -0.0491 -0.2419
23996DOPC   C4B28638  11.005   7.664  14.639 -0.0990  0.2239 -0.1481
23997DOPC   NC328639  23.361   0.287  21.404  0.0922 -0.0232  0.3114
23997DOPC   PO428640  23.496  -0.057  21.322  0.3303 -0.2609 -0.2419
23997DOPC   GL128641  23.316  -0.142  20.997 -0.2249  0.1828  0.1097
23997DOPC   GL228642  23.506   0.006  20.825  0.0937  0.2521  0.0224
23997DOPC   C1A28643  22.880  -0.271  20.865 -0.0340  0.0372 -0.0995
23997DOPC   D2A28644  22.489  -0.355  20.619 -0.0393 -0.1033 -0.1476
23997DOPC   C3A28645  22.445   0.004  20.266  0.1349 -0.1420 -0.2009
23997DOPC   C4A28646  22.372   0.115  19.808 -0.0688 -0.0448 -0.0273
23997DOPC   C1B28647  23.275   0.203  20.460  0.1668  0.0597 -0.2445
23997DOPC   D2B28648  23.211   0.601  20.184 -0.2188  0.4082  0.0403
23997DOPC   C3B28649  23.129   0.739  19.727  0.1673 -0.1264  0.1150
23997DOPC   C4B28650  22.804   0.800  19.387  0.0904 -0.0224 -0.0979
23998DOPC   NC328651   6.322   3.510  14.634 -0.1139 -0.0990 -0.1387
23998DOPC   PO428652   6.002   3.288  14.588 -0.0666 -0.0450  0.0175
23998DOPC   GL128653   5.825   3.230  14.168 -0.0002 -0.0474  0.1780
23998DOPC   GL228654   5.597   3.411  14.222  0.2137  0.1936 -0.1842
23998DOPC   C1A28655   5.732   3.447  13.794 -0.0134  0.1044 -0.1504
23998DOPC   D2A28656   5.417   3.716  13.494 -0.0594  0.0470  0.2269
23998DOPC   C3A28657   5.428   3.632  13.035  0.3551  0.0804  0.0673
23998DOPC   C4A28658   5.584   3.604  12.526 -0.1772 -0.0542  0.0445
23998DOPC   C1B28659   5.292   3.590  13.964  0.0643 -0.0842  0.0665
23998DOPC   D2B28660   4.922   3.552  13.631  0.0869 -0.0251  0.2022
23998DOPC   C3B28661   4.874   3.599  13.087 -0.2777  0.0709 -0.0415
23998DOPC   C4B28662   4.886   3.479  12.612  0.4120  0.2172 -0.1149
23999DOPC   NC328663   9.361   4.824  15.073  0.1173 -0.2150 -0.0795
23999DOPC   PO428664   9.187   5.082  14.816 -0.0516  0.1101 -0.1477
23999DOPC   GL128665   9.548   5.234  14.791 -0.0236  0.2224 -0.1109
23999DOPC   GL228666   9.650   4.970  14.766  0.1443 -0.1260  0.1737
23999DOPC   C1A28667   9.749   5.454  14.466  0.1845 -0.0013  0.0334
23999DOPC   D2A28668   9.962   5.566  14.030  0.0242  0.1045  0.0007
23999DOPC   C3A28669  10.395   5.719  14.088 -0.0747 -0.0504 -0.0386
23999DOPC   C4A28670  10.765   6.055  14.115 -0.2675 -0.0900  0.1987
23999DOPC   C1B28671   9.957   4.951  14.480  0.3040 -0.0447 -0.0439
23999DOPC   D2B28672   9.833   5.074  14.038 -0.4327 -0.1804  0.1031
23999DOPC   C3B28673   9.932   4.921  13.632  0.0339  0.3391  0.0338
23999DOPC   C4B28674  10.104   4.692  13.267  0.0463 -0.0029 -0.1940
24000DOPC   NC328675   4.822   0.623  14.932  0.0571  0.2414 -0.1257
24000DOPC   PO428676   4.968   0.809  14.595  0.0361 -0.2365  0.0588
24000DOPC   GL128677   4.808   0.919  14.295 -0.1715 -0.0738  0.0260
24000DOPC   GL228678   4.830   1.046  14.042 -0.1505 -0.0832 -0.1746
24000DOPC   C1A28679   4.467   1.218  14.245  0.0985  0.2407  0.2336
24000DOPC   D2A28680   4.026   1.405  14.154 -0.0262 -0.1209 -0.1003
24000DOPC   C3A28681   3.665   1.163  14.107  0.1080 -0.2535 -0.0050
24000DOPC   C4A28682   3.234   1.094  13.909  0.1261 -0.1171 -0.1220
24000DOPC   C1B28683   4.509   1.046  13.729  0.2696  0.1024 -0.2202
24000DOPC   D2B28684   4.175   0.950  13.368 -0.3246  0.0638 -0.1057
24000DOPC   C3B28685   3.919   0.680  13.339 -0.1342  0.1377  0.1140
24000DOPC   C4B28686   3.552   0.543  13.220  0.3591 -0.1131 -0.0401
24001DOPC   NC328687  21.139   6.227  22.342 -0.0814 -0.0077  0.1389
24001DOPC   PO428688  20.867   6.316  22.092 -0.1279 -0.0184 -0.0456
24001DOPC   GL128689  20.719   6.450  21.746 -0.0419 -0.0154 -0.1979
24001DOPC   GL228690  20.685   6.176  21.621  0.0073  0.2884  0.0785
24001DOPC   C1A28691  20.684   6.653  21.372  0.0259 -0.1049 -0.2778
24001DOPC   D2A28692  20.544   6.971  21.050  0.1990  0.1131  0.1855
24001DOPC   C3A28693  20.620   7.415  20.877 -0.2192 -0.0163  0.0350
24001DOPC   C4A28694  20.401   7.832  20.879 -0.0591  0.0183 -0.1151
24001DOPC   C1B28695  20.560   6.180  21.221 -0.1983  0.0873  0.2883
24001DOPC   D2B28696  20.127   6.039  21.006 -0.2139  0.0558 -0.1128
24001DOPC   C3B28697  19.987   6.017  20.533 -0.0028  0.5319 -0.1991
24001DOPC   C4B28698  19.792   6.222  20.107  0.0900  0.2635 -0.3128
24002DOPC   NC328699  15.780   0.016  22.096 -0.2071 -0.0767 -0.1344
24002DOPC   PO428700  15.553   0.081  21.790 -0.1127 -0.1422  0.2139
24002DOPC   GL128701  15.797   0.037  21.490  0.0967  0.3990 -0.0874
24002DOPC   GL228702  15.831   0.296  21.344  0.0606 -0.0489  0.1106
24002DOPC   C1A28703  15.871  -0.184  21.176  0.1086  0.0495 -0.0149
24002DOPC   D2A28704  16.098  -0.182  20.734 -0.2591 -0.0834  0.3844
24002DOPC   C3A28705  16.471  -0.227  20.395 -0.1708  0.0406 -0.0060
24002DOPC   C4A28706  16.458  -0.313  19.962  0.3946  0.0066  0.1875
24002DOPC   C1B28707  15.901   0.244  20.855 -0.2366 -0.1149 -0.2510
24002DOPC   D2B28708  15.940   0.268  20.363 -0.3253  0.1190 -0.0640
24002DOPC   C3B28709  16.011  -0.018  19.994 -0.1114  0.0533 -0.1166
24002DOPC   C4B28710  15.860  -0.428  19.801  0.4562 -0.2130 -0.0923
24003DOPC   NC328711  13.342   4.353  19.884  0.2932 -0.1293  0.2266
24003DOPC   PO428712  13.112   4.670  19.722 -0.0803  0.0983 -0.0955
24003DOPC   GL128713  13.540   4.693  19.646 -0.0385 -0.2960  0.1432
24003DOPC   GL228714  13.559   4.991  19.756  0.2603 -0.2313 -0.1646
24003DOPC   C1A28715  13.828   4.650  19.299 -0.4185  0.1763  0.3146
24003DOPC   D2A28716  14.262   4.556  19.067  0.2458  0.3646 -0.1825
24003DOPC   C3A28717  14.648   4.500  18.972 -0.0424  0.1319 -0.2060
24003DOPC   C4A28718  15.052   4.315  19.131 -0.0565  0.1445  0.2051
24003DOPC   C1B28719  13.718   5.186  19.430  0.0153  0.0382  0.0719
24003DOPC   D2B28720  13.995   5.139  18.980 -0.0535  0.0119 -0.0664
24003DOPC   C3B28721  14.454   5.013  18.866  0.1492 -0.0004  0.3960
24003DOPC   C4B28722  14.849   4.927  18.676 -0.0741 -0.0128 -0.0662
24004DOPC   NC328723   3.307   1.825  15.829 -0.1003 -0.1777  0.2919
24004DOPC   PO428724   2.978   1.965  15.978 -0.1445 -0.0068 -0.1496
24004DOPC   GL128725   2.635   2.108  15.787  0.0760 -0.0270  0.3237
24004DOPC   GL228726   2.628   2.424  15.819 -0.0302  0.1463 -0.2276
24004DOPC   C1A28727   2.420   1.917  15.436  0.1423  0.0186  0.1299
24004DOPC   D2A28728   2.443   1.568  15.068 -0.0113 -0.1260 -0.2071
24004DOPC   C3A28729   2.451   1.613  14.585  0.0091 -0.1039  0.2178
24004DOPC   C4A28730   2.096   1.830  14.317  0.0109  0.0682 -0.2299
24004DOPC   C1B28731   2.293   2.667  15.692  0.0787  0.0620  0.1279
24004DOPC   D2B28732   1.924   2.879  15.467  0.1163 -0.1643 -0.2576
24004DOPC   C3B28733   1.850   3.090  14.952 -0.3130  0.2962 -0.0080
24004DOPC   C4B28734   1.503   3.357  14.651 -0.0928 -0.1318 -0.0421
24005DOPC   NC328735  21.527   0.254  22.591  0.4771  0.0629 -0.2028
24005DOPC   PO428736  21.717   0.169  22.236 -0.0499 -0.1891 -0.0982
24005DOPC   GL128737  21.625   0.154  21.858  0.0151  0.4063 -0.3725
24005DOPC   GL228738  21.549  -0.102  21.818 -0.3984  0.1869  0.0021
24005DOPC   C1A28739  21.609   0.170  21.414  0.0694 -0.0088 -0.0809
24005DOPC   D2A28740  21.712   0.006  20.963 -0.1784  0.0839 -0.0101
24005DOPC   C3A28741  21.427  -0.049  20.554 -0.0829  0.2812  0.1946
24005DOPC   C4A28742  21.197  -0.319  20.179 -0.0042  0.0381  0.0643
24005DOPC   C1B28743  21.185  -0.108  21.566 -0.0718 -0.0288  0.5877
24005DOPC   D2B28744  20.692  -0.113  21.369  0.0029 -0.1081  0.0782
24005DOPC   C3B28745  20.289  -0.298  21.255  0.0881 -0.0059  0.1937
24005DOPC   C4B28746  20.128  -0.553  20.846  0.1388  0.0580 -0.1350
24006DOPC   NC328747  22.662   4.057  21.334  0.0088 -0.0352 -0.0203
24006DOPC   PO428748  22.965   3.850  21.212 -0.0121 -0.4860 -0.0578
24006DOPC   GL128749  22.885   3.655  20.838  0.0405  0.3070 -0.2692
24006DOPC   GL228750  23.076   3.777  20.704 -0.1112 -0.2703 -0.0419
24006DOPC   C1A28751  22.560   3.578  20.573  0.0874 -0.2189 -0.2004
24006DOPC   D2A28752  22.197   3.360  20.376 -0.2158  0.3765  0.0036
24006DOPC   C3A28753  21.946   3.434  19.928  0.2718 -0.0187 -0.2440
24006DOPC   C4A28754  21.856   3.545  19.492 -0.0504 -0.0925 -0.1730
24006DOPC   C1B28755  23.087   3.974  20.301  0.1206 -0.0694 -0.0344
24006DOPC   D2B28756  22.838   3.994  19.932  0.0555 -0.0703 -0.2517
24006DOPC   C3B28757  22.846   4.185  19.489 -0.0413  0.1588  0.2833
24006DOPC   C4B28758  22.667   4.293  18.997  0.3141 -0.0324  0.3148
24007DOPC   NC328759  15.697   7.176  22.598  0.0323 -0.4508  0.1595
24007DOPC   PO428760  15.741   7.084  22.209  0.3062 -0.1647 -0.0224
24007DOPC   GL128761  16.018   7.041  21.796 -0.2807 -0.0760 -0.0503
24007DOPC   GL228762  15.735   7.056  21.709  0.1417 -0.1236 -0.2951
24007DOPC   C1A28763  16.096   6.707  21.590 -0.1231  0.0379  0.3558
24007DOPC   D2A28764  15.848   6.404  21.266 -0.0476  0.1538  0.0556
24007DOPC   C3A28765  15.980   6.272  20.877 -0.1502 -0.2386  0.3039
24007DOPC   C4A28766  16.063   6.210  20.411  0.1487  0.1927  0.3072
24007DOPC   C1B28767  15.779   7.046  21.255  0.3845 -0.1874 -0.1507
24007DOPC   D2B28768  15.772   7.239  20.850  0.0645 -0.0803 -0.1411
24007DOPC   C3B28769  15.592   7.679  20.707  0.3180 -0.0511  0.0051
24007DOPC   C4B28770  15.363   8.061  20.657 -0.0778  0.2448  0.0732
24008DOPC   NC328771  17.234   6.523  21.892  0.1401  0.1492  0.3791
24008DOPC   PO428772  17.445   6.661  22.229  0.0874 -0.0571  0.2476
24008DOPC   GL128773  17.729   6.687  21.871  0.2759 -0.4234 -0.1693
24008DOPC   GL228774  17.768   6.429  21.925  0.0904  0.1487 -0.3048
24008DOPC   C1A28775  17.622   6.758  21.494  0.0392 -0.1070 -0.0180
24008DOPC   D2A28776  17.732   6.871  21.045  0.1904 -0.2130 -0.1060
24008DOPC   C3A28777  17.765   7.141  20.734  0.0688  0.0758  0.0002
24008DOPC   C4A28778  18.015   7.212  20.317  0.0236 -0.1318 -0.3591
24008DOPC   C1B28779  18.112   6.187  21.808 -0.0152  0.1301  0.0732
24008DOPC   D2B28780  18.556   5.918  21.794 -0.1457  0.3747 -0.2675
24008DOPC   C3B28781  18.935   5.888  21.528 -0.1376 -0.1050 -0.1608
24008DOPC   C4B28782  19.272   5.884  21.160 -0.1272 -0.1460  0.0649
24009DOPC   NC328783  11.368   4.101  17.514  0.0178 -0.2191  0.0022
24009DOPC   PO428784  11.646   3.941  17.659 -0.0267 -0.0995 -0.3465
24009DOPC   GL128785  11.965   3.729  17.513 -0.0241  0.0931 -0.1546
24009DOPC   GL228786  12.091   4.015  17.500  0.1216 -0.0490 -0.0952
24009DOPC   C1A28787  12.279   3.442  17.393  0.2304  0.2435  0.0445
24009DOPC   D2A28788  12.733   3.342  17.197 -0.1543  0.1077 -0.0028
24009DOPC   C3A28789  13.128   3.046  17.112  0.1828 -0.1092  0.0799
24009DOPC   C4A28790  13.559   3.072  17.269 -0.0293 -0.0295  0.2030
24009DOPC   C1B28791  12.513   4.205  17.486 -0.0791  0.1571  0.1487
24009DOPC   D2B28792  12.898   4.310  17.189  0.2022  0.0134  0.1100
24009DOPC   C3B28793  13.037   3.868  17.264  0.1708 -0.0322  0.2432
24009DOPC   C4B28794  13.221   3.510  17.065  0.0410  0.1938  0.1798
24010DOPC   NC328795   6.814   2.606  14.250  0.1790 -0.0293  0.0368
24010DOPC   PO428796   7.141   2.680  14.040 -0.0004  0.0101  0.1524
24010DOPC   GL128797   7.141   2.796  13.631 -0.1434  0.0539 -0.2099
24010DOPC   GL228798   7.413   2.635  13.621 -0.0031  0.0768 -0.1388
24010DOPC   C1A28799   7.269   2.963  13.264 -0.1532 -0.0026  0.0170
24010DOPC   D2A28800   7.323   2.827  12.804  0.0725  0.1513 -0.1108
24010DOPC   C3A28801   7.689   2.727  12.491 -0.2232 -0.2346 -0.0062
24010DOPC   C4A28802   8.062   2.635  12.226 -0.0915  0.1320  0.2304
24010DOPC   C1B28803   7.520   2.535  13.193 -0.0731  0.0743  0.0385
24010DOPC   D2B28804   7.645   2.344  12.743 -0.0323  0.1120 -0.0916
24010DOPC   C3B28805   8.089   2.159  12.686 -0.0058  0.1726 -0.0042
24010DOPC   C4B28806   8.443   1.848  12.563 -0.0465  0.3749 -0.1582
24011DOPC   NC328807  16.777   0.152  22.331 -0.1126 -0.1948  0.4288
24011DOPC   PO428808  16.996   0.384  22.127  0.2363 -0.0762 -0.3384
24011DOPC   GL128809  17.187   0.085  21.776 -0.0482  0.0611  0.2201
24011DOPC   GL228810  17.198   0.341  21.694  0.2488 -0.0848  0.2589
24011DOPC   C1A28811  17.103  -0.325  21.546 -0.0298  0.0405 -0.3697
24011DOPC   D2A28812  17.397  -0.656  21.329 -0.1011  0.0800 -0.0627
24011DOPC   C3A28813  17.473  -0.245  21.051  0.1927 -0.1411  0.0132
24011DOPC   C4A28814  17.479   0.046  20.731 -0.0688 -0.4504 -0.1545
24011DOPC   C1B28815  17.025   0.518  21.294 -0.1939 -0.1543  0.1791
24011DOPC   D2B28816  17.153   0.505  20.787 -0.1009  0.0445  0.1387
24011DOPC   C3B28817  17.278   0.439  20.346 -0.2775 -0.0514  0.1001
24011DOPC   C4B28818  17.489   0.390  19.943 -0.1315 -0.2895  0.0636
24012DOPC   NC328819  16.288   7.307  22.048  0.2076  0.1244 -0.2137
24012DOPC   PO428820  16.464   7.617  22.128 -0.1848 -0.0570 -0.1366
24012DOPC   GL128821  16.664   7.531  21.692  0.1646 -0.1708  0.0707
24012DOPC   GL228822  16.787   7.717  21.785 -0.0246  0.1136 -0.2080
24012DOPC   C1A28823  16.748   7.276  21.317 -0.0372  0.1414  0.0825
24012DOPC   D2A28824  17.065   7.347  21.011  0.0664 -0.1370 -0.2524
24012DOPC   C3A28825  17.035   7.525  20.598 -0.0592 -0.0926 -0.2666
24012DOPC   C4A28826  17.277   7.796  20.245 -0.1320 -0.1277  0.0225
24012DOPC   C1B28827  16.755   7.953  21.435  0.1037  0.2064  0.4108
24012DOPC   D2B28828  16.550   8.336  21.070 -0.2189 -0.0187  0.0673
24012DOPC   C3B28829  16.407   8.165  20.634  0.1005  0.4627 -0.0308
24012DOPC   C4B28830  16.427   8.060  20.149  0.2360 -0.1829  0.3233
24013DOPC   NC328831   2.259   7.802  17.453  0.1272  0.0307 -0.1600
24013DOPC   PO428832   1.880   7.589  17.429  0.1346  0.0619  0.1611
24013DOPC   GL128833   1.553   7.248  17.411 -0.1039 -0.1226 -0.0069
24013DOPC   GL228834   1.334   7.440  17.479  0.1463  0.0795 -0.4664
24013DOPC   C1A28835   1.310   7.328  16.994  0.2106  0.2389 -0.0187
24013DOPC   D2A28836   0.915   7.348  16.629  0.0247  0.1335 -0.0687
24013DOPC   C3A28837   0.580   7.068  16.601 -0.0998 -0.0954  0.2863
24013DOPC   C4A28838   0.249   6.770  16.481  0.1277  0.0829  0.2596
24013DOPC   C1B28839   0.954   7.488  17.303 -0.0082  0.0482 -0.3635
24013DOPC   D2B28840   0.745   7.761  16.933 -0.1539  0.2722  0.1392
24013DOPC   C3B28841   0.477   7.595  16.602 -0.2694 -0.1997 -0.2774
24013DOPC   C4B28842   0.085   7.736  16.324 -0.0150  0.1862 -0.1293
24014DOPC   NC328843  21.982   7.015  21.861  0.0976 -0.3453 -0.1286
24014DOPC   PO428844  22.302   7.260  21.896 -0.1477 -0.1247 -0.0069
24014DOPC   GL128845  22.208   7.192  21.491  0.2870 -0.0872  0.0079
24014DOPC   GL228846  21.913   7.356  21.479 -0.0385  0.1013  0.0714
24014DOPC   C1A28847  22.108   7.054  21.054  0.0079  0.0186 -0.0368
24014DOPC   D2A28848  22.077   7.219  20.578  0.4049 -0.1954 -0.4043
24014DOPC   C3A28849  22.319   7.173  20.210  0.0994  0.3153  0.1036
24014DOPC   C4A28850  22.232   7.181  19.686 -0.0186 -0.2206  0.4035
24014DOPC   C1B28851  21.522   7.390  21.335 -0.0521  0.3549  0.0421
24014DOPC   D2B28852  21.134   7.704  21.077 -0.0352  0.0655 -0.0283
24014DOPC   C3B28853  20.924   7.678  20.613  0.0211 -0.1777 -0.2293
24014DOPC   C4B28854  20.530   7.521  20.401  0.1193  0.1612 -0.1079
24015DOPC   NC328855  10.337   6.389  16.027 -0.1709  0.3457 -0.1212
24015DOPC   PO428856  10.157   6.076  16.173 -0.0244 -0.1509  0.0537
24015DOPC   GL128857  10.393   5.914  15.899 -0.2463 -0.0581 -0.2406
24015DOPC   GL228858  10.589   5.696  16.108 -0.5121  0.1836 -0.3054
24015DOPC   C1A28859  10.421   5.665  15.524 -0.0257  0.1996  0.1039
24015DOPC   D2A28860  10.476   5.394  15.142  0.0531 -0.0547 -0.1423
24015DOPC   C3A28861  10.829   5.417  14.781  0.1825 -0.2007 -0.2932
24015DOPC   C4A28862  11.214   5.389  14.538 -0.1366 -0.0933  0.1473
24015DOPC   C1B28863  10.827   5.554  15.795  0.0965 -0.0150  0.2873
24015DOPC   D2B28864  10.911   5.413  15.350 -0.2178  0.3860  0.0657
24015DOPC   C3B28865  11.266   5.455  15.025  0.2909 -0.4360  0.0367
24015DOPC   C4B28866  11.665   5.375  14.648 -0.1828 -0.2673 -0.2608
24016DOPC   NC328867   0.426   5.979  18.293 -0.0139 -0.1613  0.0191
24016DOPC   PO428868   0.723   6.212  18.362  0.3667  0.0010 -0.0423
24016DOPC   GL128869   0.766   6.039  17.982 -0.0594 -0.0774 -0.0429
24016DOPC   GL228870   1.042   6.137  17.918  0.1536 -0.2199  0.2655
24016DOPC   C1A28871   0.487   6.062  17.645  0.0458  0.1873 -0.0912
24016DOPC   D2A28872   0.117   5.925  17.277 -0.1421 -0.2830  0.2512
24016DOPC   C3A28873  -0.072   6.137  16.897 -0.2265  0.0088 -0.1011
24016DOPC   C4A28874  -0.058   6.347  16.458  0.0455  0.1427 -0.1658
24016DOPC   C1B28875   1.045   5.723  17.691  0.2271 -0.1174  0.0420
24016DOPC   D2B28876   0.840   5.257  17.628 -0.0200  0.3057  0.0583
24016DOPC   C3B28877   0.507   5.072  17.423  0.4611 -0.0329 -0.2574
24016DOPC   C4B28878   0.235   4.991  17.017 -0.0075 -0.1571  0.0273
24017DOPC   NC328879  14.540   4.072  21.586 -0.0433 -0.3582  0.0689
24017DOPC   PO428880  14.712   3.730  21.533 -0.0827  0.0843  0.0144
24017DOPC   GL128881  15.049   3.651  21.237 -0.2776 -0.1494  0.3980
24017DOPC   GL228882  14.807   3.619  21.043  0.2639 -0.4993  0.0431
24017DOPC   C1A28883  15.501   3.714  21.275 -0.0785 -0.2633 -0.0507
24017DOPC   D2A28884  15.939   3.805  21.108 -0.0996 -0.0706 -0.2569
24017DOPC   C3A28885  16.125   3.940  20.687 -0.2995 -0.4273  0.0291
24017DOPC   C4A28886  16.286   4.037  20.232  0.0496 -0.1813  0.3967
24017DOPC   C1B28887  15.153   3.641  20.774  0.0292  0.0341  0.0990
24017DOPC   D2B28888  15.609   3.814  20.605  0.0470 -0.0748 -0.0572
24017DOPC   C3B28889  15.822   3.809  20.178  0.0828 -0.2174 -0.0958
24017DOPC   C4B28890  16.060   3.857  19.763  0.0149  0.0882  0.1658
24018DOPC   NC328891   9.517   1.337  15.465  0.2145 -0.0205  0.0913
24018DOPC   PO428892   9.854   1.478  15.640 -0.0571 -0.0607 -0.2276
24018DOPC   GL128893  10.229   1.503  15.403  0.0867  0.1830  0.0783
24018DOPC   GL228894  10.431   1.535  15.542 -0.0250  0.1209 -0.2472
24018DOPC   C1A28895  10.171   1.677  14.993  0.1817  0.0518 -0.1300
24018DOPC   D2A28896  10.050   1.794  14.576  0.2051  0.1194 -0.1492
24018DOPC   C3A28897  10.170   1.564  14.153 -0.1681 -0.2231 -0.1626
24018DOPC   C4A28898  10.469   1.332  13.817 -0.0447 -0.0159 -0.0033
24018DOPC   C1B28899  10.794   1.282  15.455 -0.2462 -0.2224  0.4061
24018DOPC   D2B28900  11.202   1.102  15.200 -0.1159  0.2026 -0.1094
24018DOPC   C3B28901  11.369   0.813  14.856 -0.0401  0.1637  0.0706
24018DOPC   C4B28902  11.278   0.329  14.646 -0.1014 -0.1170 -0.0611
24019DOPC   NC328903  10.662   2.264  16.689  0.0955  0.0732 -0.0464
24019DOPC   PO428904  10.922   2.130  16.966  0.1539 -0.0517 -0.0598
24019DOPC   GL128905  11.150   1.874  16.708  0.0694  0.4412 -0.1347
24019DOPC   GL228906  11.060   2.000  16.501  0.0675  0.1152  0.1517
24019DOPC   C1A28907  11.609   1.717  16.824  0.0887  0.0834  0.1643
24019DOPC   D2A28908  11.953   1.553  17.097  0.0581  0.2979  0.0441
24019DOPC   C3A28909  12.372   1.398  17.058  0.0456  0.1807  0.1697
24019DOPC   C4A28910  12.818   1.217  17.066 -0.3882 -0.4406 -0.1064
24019DOPC   C1B28911  11.476   2.064  16.467  0.1800 -0.2331  0.1881
24019DOPC   D2B28912  11.947   2.051  16.562 -0.0075 -0.1796 -0.0687
24019DOPC   C3B28913  12.302   2.204  16.320  0.0092 -0.2539  0.2494
24019DOPC   C4B28914  12.707   2.464  16.239 -0.0566 -0.2169  0.2373
24020DOPC   NC328915  24.853   1.721  19.316 -0.1300  0.1047 -0.0877
24020DOPC   PO428916  25.178   1.478  19.273 -0.1305 -0.2993  0.1326
24020DOPC   GL128917  25.062   1.362  18.938 -0.0287 -0.1774  0.0232
24020DOPC   GL228918  25.237   1.637  18.798  0.2313 -0.0096 -0.1553
24020DOPC   C1A28919  24.727   1.304  18.770 -0.0141 -0.2142 -0.2288
24020DOPC   D2A28920  24.459   1.372  18.347 -0.1736 -0.1790 -0.1483
24020DOPC   C3A28921  24.094   1.046  18.244 -0.0045  0.1480 -0.0240
24020DOPC   C4A28922  23.836   0.677  18.117 -0.0647 -0.1289  0.3354
24020DOPC   C1B28923  25.008   1.590  18.404 -0.1143  0.0244  0.0977
24020DOPC   D2B28924  24.781   1.538  17.983 -0.0811 -0.0454 -0.0369
24020DOPC   C3B28925  24.515   1.110  17.958  0.0857  0.2716 -0.0682
24020DOPC   C4B28926  24.316   0.679  17.903  0.0781  0.2026  0.1915
24021DOPC   NC328927  12.477   5.595  18.648  0.0841 -0.1776  0.2483
24021DOPC   PO428928  12.139   5.429  18.504  0.1080 -0.1846 -0.1131
24021DOPC   GL128929  12.219   5.605  18.154 -0.1034  0.1024  0.0124
24021DOPC   GL228930  12.337   5.297  18.079  0.0463  0.3354 -0.1345
24021DOPC   C1A28931  12.435   5.935  17.888  0.1329 -0.0446 -0.1581
24021DOPC   D2A28932  12.791   5.897  17.586 -0.2256  0.0592 -0.1959
24021DOPC   C3A28933  12.758   6.134  17.170  0.0975  0.1228  0.1496
24021DOPC   C4A28934  12.798   6.253  16.666  0.0470  0.2875  0.0594
24021DOPC   C1B28935  12.714   5.415  17.828 -0.3893  0.1110  0.0585
24021DOPC   D2B28936  13.133   5.552  17.606 -0.0516 -0.2313  0.1621
24021DOPC   C3B28937  13.250   5.967  17.371 -0.2394  0.1189  0.1025
24021DOPC   C4B28938  13.227   6.256  17.026 -0.0296  0.2356 -0.0161
24022DOPC   NC328939  12.957   1.668  19.518 -0.0757  0.1717 -0.1579
24022DOPC   PO428940  13.242   1.849  19.310  0.2096 -0.3043  0.0147
24022DOPC   GL128941  13.215   2.151  19.010  0.1512  0.0448 -0.1537
24022DOPC   GL228942  13.276   2.392  19.097  0.0429  0.1592  0.2396
24022DOPC   C1A28943  13.506   2.016  18.732  0.1288 -0.1029 -0.0545
24022DOPC   D2A28944  13.797   1.864  18.305  0.1305 -0.3789  0.1915
24022DOPC   C3A28945  13.739   1.876  17.844 -0.1615 -0.0830 -0.2574
24022DOPC   C4A28946  13.736   1.716  17.359 -0.1608 -0.0412 -0.1044
24022DOPC   C1B28947  13.748   2.381  19.160 -0.2655  0.0488  0.1901
24022DOPC   D2B28948  14.240   2.353  19.025 -0.0317 -0.0374 -0.0605
24022DOPC   C3B28949  14.364   2.077  18.627 -0.1686 -0.1882 -0.0589
24022DOPC   C4B28950  14.606   1.832  18.348  0.1902  0.0153  0.0280
24023DOPC   NC328951  20.670   5.195  22.066  0.1964 -0.1561  0.0438
24023DOPC   PO428952  20.704   4.826  21.929 -0.0117  0.1330 -0.1803
24023DOPC   GL128953  20.589   4.910  21.559 -0.0265 -0.3486 -0.1118
24023DOPC   GL228954  20.914   4.955  21.439  0.2704 -0.0298  0.0834
24023DOPC   C1A28955  20.476   4.735  21.217 -0.1091  0.0139 -0.1635
24023DOPC   D2A28956  20.421   4.467  20.832  0.2078  0.2805 -0.0897
24023DOPC   C3A28957  20.067   4.331  20.496  0.1123 -0.1663  0.0170
24023DOPC   C4A28958  19.805   4.161  20.087  0.0656  0.0285  0.0568
24023DOPC   C1B28959  20.990   4.826  21.012 -0.1633  0.0556  0.1504
24023DOPC   D2B28960  20.944   4.758  20.528  0.0068  0.0538 -0.3684
24023DOPC   C3B28961  20.491   4.688  20.326  0.2181  0.0074  0.3956
24023DOPC   C4B28962  20.125   4.560  20.073 -0.1850 -0.1549 -0.4389
24024DOPC   NC328963  24.416   1.430  20.593  0.0534  0.0286  0.2471
24024DOPC   PO428964  24.325   1.132  20.355  0.1187 -0.1330 -0.0383
24024DOPC   GL128965  24.315   1.036  20.026  0.3138 -0.0202 -0.0261
24024DOPC   GL228966  24.421   1.224  19.876 -0.2981 -0.0463  0.3058
24024DOPC   C1A28967  23.969   0.796  19.825 -0.2066 -0.0253 -0.0636
24024DOPC   D2A28968  23.546   0.549  19.835  0.4112  0.1347  0.2808
24024DOPC   C3A28969  23.524   0.089  20.016  0.4177  0.0354  0.2888
24024DOPC   C4A28970  23.611  -0.156  20.413  0.0052  0.1936  0.3453
24024DOPC   C1B28971  24.318   1.533  19.636 -0.0205 -0.0006 -0.0898
24024DOPC   D2B28972  24.392   1.887  19.340 -0.2764  0.1401 -0.2222
24024DOPC   C3B28973  24.090   2.226  19.225 -0.2453 -0.0328 -0.2319
24024DOPC   C4B28974  23.849   2.520  18.975  0.0740  0.2540 -0.1127
24025DOPC   NC328975  13.968   2.000  20.899  0.0844  0.1046 -0.1550
24025DOPC   PO428976  14.336   2.126  20.808 -0.1422  0.1739  0.4191
24025DOPC   GL128977  14.351   2.141  20.368  0.2340  0.2110 -0.1783
24025DOPC   GL228978  14.601   1.972  20.341 -0.0690 -0.2390  0.0879
24025DOPC   C1A28979  14.394   2.314  19.966  0.0607 -0.1515  0.0146
24025DOPC   D2A28980  14.603   2.262  19.523  0.2484  0.0223 -0.0877
24025DOPC   C3A28981  14.674   2.082  19.135  0.0075 -0.2617  0.1283
24025DOPC   C4A28982  14.878   1.936  18.759 -0.1479  0.2578 -0.2282
24025DOPC   C1B28983  14.748   1.918  19.980 -0.0669  0.1163  0.1484
24025DOPC   D2B28984  14.732   1.696  19.461  0.0153 -0.1141  0.1072
24025DOPC   C3B28985  14.804   1.361  19.108 -0.1963 -0.2613  0.0543
24025DOPC   C4B28986  14.694   1.123  18.651 -0.1610  0.1265  0.1856
24026DOPC   NC328987  18.762   0.977  22.091 -0.0322  0.2884 -0.3034
24026DOPC   PO428988  19.045   0.780  22.183 -0.0446 -0.0474 -0.1421
24026DOPC   GL128989  19.266   0.611  21.892 -0.2954  0.0419  0.0654
24026DOPC   GL228990  19.507   0.697  21.858  0.3069  0.0173  0.0355
24026DOPC   C1A28991  19.215   0.546  21.428 -0.0984  0.0011 -0.0986
24026DOPC   D2A28992  18.959   0.790  21.029 -0.0446 -0.1781  0.1165
24026DOPC   C3A28993  18.695   0.536  20.715 -0.2229 -0.0707 -0.2624
24026DOPC   C4A28994  18.460   0.190  20.398 -0.2932 -0.2999  0.2384
24026DOPC   C1B28995  19.606   0.816  21.440 -0.0010  0.0008  0.2998
24026DOPC   D2B28996  19.484   0.616  20.956  0.1083 -0.1411 -0.0214
24026DOPC   C3B28997  19.226   0.647  20.598 -0.2305  0.0537 -0.2270
24026DOPC   C4B28998  19.150   0.618  20.121  0.1774  0.1011  0.1020
24027DOPC   NC328999  20.218   5.442  22.675  0.1107 -0.0983  0.0646
24027DOPC   PO429000  20.392   5.706  22.461 -0.3650  0.1649  0.0931
24027DOPC   GL129001  20.266   5.668  22.048  0.3469 -0.2244 -0.1011
24027DOPC   GL229002  20.183   5.368  21.948  0.1162 -0.1657 -0.1016
24027DOPC   C1A29003  20.601   5.700  21.794 -0.1268 -0.0206  0.1918
24027DOPC   D2A29004  20.866   5.441  21.392 -0.1788  0.2915 -0.1207
24027DOPC   C3A29005  21.024   5.835  21.316  0.0064  0.1260  0.0035
24027DOPC   C4A29006  21.036   6.306  21.323 -0.0046 -0.0238 -0.1152
24027DOPC   C1B29007  20.382   5.324  21.545  0.0017  0.4782  0.0477
24027DOPC   D2B29008  20.607   5.225  21.046 -0.0356 -0.0399 -0.0368
24027DOPC   C3B29009  20.270   4.972  20.851  0.0792 -0.1154 -0.0073
24027DOPC   C4B29010  19.931   4.910  20.420 -0.1027  0.1041 -0.1780
24028DOPC   NC329011  14.477   4.871  21.647 -0.4242 -0.2382  0.1901
24028DOPC   PO429012  14.703   4.561  21.647 -0.0995 -0.1957  0.2247
24028DOPC   GL129013  14.889   4.315  21.361  0.2419  0.1319  0.2801
24028DOPC   GL229014  14.950   4.575  21.185  0.3371 -0.2869 -0.1947
24028DOPC   C1A29015  14.692   4.125  21.057  0.2185 -0.3387 -0.2612
24028DOPC   D2A29016  14.627   3.994  20.566 -0.1106  0.0637  0.0284
24028DOPC   C3A29017  14.866   4.036  20.186  0.1121 -0.1389 -0.0258
24028DOPC   C4A29018  15.074   4.240  19.700 -0.0702 -0.0308 -0.1690
24028DOPC   C1B29019  15.264   4.643  20.887 -0.2009 -0.0616 -0.0091
24028DOPC   D2B29020  15.452   4.876  20.512  0.0745  0.1138  0.0072
24028DOPC   C3B29021  15.593   4.713  20.081 -0.0223  0.1562 -0.0312
24028DOPC   C4B29022  15.815   4.704  19.632 -0.1163  0.0023 -0.1161
24029DOPC   NC329023   3.736   5.728  15.473 -0.0053 -0.0997 -0.0578
24029DOPC   PO429024   3.949   5.439  15.349  0.1981 -0.0719 -0.1499
24029DOPC   GL129025   3.696   5.470  14.923  0.0416 -0.1065 -0.2579
24029DOPC   GL229026   3.426   5.374  15.087  0.4060 -0.1164 -0.0207
24029DOPC   C1A29027   3.667   5.480  14.522 -0.1469 -0.0362  0.3604
24029DOPC   D2A29028   3.739   5.385  14.026  0.0519 -0.0743 -0.3617
24029DOPC   C3A29029   3.415   5.586  13.707  0.2244 -0.1633 -0.0433
24029DOPC   C4A29030   3.157   5.661  13.303 -0.4023  0.0784  0.0753
24029DOPC   C1B29031   3.029   5.508  15.026 -0.2476  0.0554 -0.2413
24029DOPC   D2B29032   2.594   5.520  14.847  0.0135 -0.0171  0.0502
24029DOPC   C3B29033   2.461   5.795  14.496 -0.1988 -0.0094  0.0811
24029DOPC   C4B29034   2.258   6.203  14.157  0.0967  0.0492 -0.3045
24030DOPC   NC329035   1.241   3.541  18.269 -0.3662  0.0733  0.0919
24030DOPC   PO429036   1.207   3.854  18.497 -0.0104  0.1133 -0.1927
24030DOPC   GL129037   0.927   3.867  18.135 -0.1508  0.1341 -0.0542
24030DOPC   GL229038   1.091   3.938  17.973  0.1523 -0.0723  0.2094
24030DOPC   C1A29039   0.553   3.762  17.992 -0.1530  0.4168 -0.0962
24030DOPC   D2A29040   0.111   3.480  17.896  0.4384 -0.3204 -0.1094
24030DOPC   C3A29041   0.040   3.424  17.472 -0.1640  0.1367  0.0007
24030DOPC   C4A29042  -0.179   3.331  17.010 -0.0937  0.0531 -0.1834
24030DOPC   C1B29043   1.062   4.133  17.563 -0.2373 -0.1595 -0.1749
24030DOPC   D2B29044   1.083   4.329  17.143  0.2209  0.1559  0.0044
24030DOPC   C3B29045   0.821   4.562  16.869 -0.1723 -0.1449  0.3634
24030DOPC   C4B29046   0.454   4.778  16.589 -0.0242  0.0431  0.0646
24031DOPC   NC329047  12.704   7.201  19.401  0.0132 -0.0776 -0.1498
24031DOPC   PO429048  12.700   6.899  19.600  0.2078 -0.1913 -0.1512
24031DOPC   GL129049  13.061   6.747  19.390  0.0189  0.1588 -0.0829
24031DOPC   GL229050  13.102   7.013  19.254  0.2275 -0.2337  0.0285
24031DOPC   C1A29051  13.435   6.608  19.202 -0.4764 -0.0049 -0.0709
24031DOPC   D2A29052  13.772   6.930  19.190  0.0115  0.0551 -0.1612
24031DOPC   C3A29053  14.128   6.914  18.921  0.0840 -0.0248 -0.0890
24031DOPC   C4A29054  14.589   6.934  18.831 -0.1181 -0.0490 -0.2599
24031DOPC   C1B29055  13.359   7.014  18.841 -0.2415  0.2277 -0.0833
24031DOPC   D2B29056  13.730   6.971  18.507  0.4161  0.0033  0.2881
24031DOPC   C3B29057  14.165   6.988  18.336 -0.0626 -0.1795 -0.1331
24031DOPC   C4B29058  14.705   6.907  18.313 -0.1475  0.4549 -0.1021
24032DOPC   NC329059  18.760   2.266  22.249  0.3352 -0.1191  0.0443
24032DOPC   PO429060  18.360   2.376  22.186  0.1310 -0.1751 -0.1247
24032DOPC   GL129061  18.182   2.423  21.796 -0.0493  0.1036 -0.0200
24032DOPC   GL229062  18.509   2.427  21.663  0.1016  0.5645  0.0454
24032DOPC   C1A29063  18.028   2.723  21.505  0.1379 -0.0545  0.0194
24032DOPC   D2A29064  18.204   3.158  21.242 -0.2171  0.0854 -0.2312
24032DOPC   C3A29065  18.297   3.603  21.422  0.1659 -0.0082 -0.1241
24032DOPC   C4A29066  18.467   4.043  21.435  0.2163 -0.0142 -0.0195
24032DOPC   C1B29067  18.508   2.313  21.193  0.0719 -0.1618 -0.0824
24032DOPC   D2B29068  18.597   2.398  20.711 -0.1885  0.0550 -0.0659
24032DOPC   C3B29069  18.325   2.741  20.430  0.1878  0.1299  0.0915
24032DOPC   C4B29070  17.964   2.881  20.104  0.1330  0.1405  0.2022
24033DOPC   NC329071  10.643   3.911  16.705 -0.0612 -0.2384 -0.1475
24033DOPC   PO429072  10.822   4.214  16.523 -0.1097 -0.0405  0.3592
24033DOPC   GL129073  10.815   4.447  16.176  0.3049 -0.0508 -0.1269
24033DOPC   GL229074  11.008   4.440  16.284 -0.0670 -0.2524  0.2992
24033DOPC   C1A29075  10.934   4.286  15.825 -0.0252  0.3092  0.3149
24033DOPC   D2A29076  11.108   4.366  15.340  0.0437 -0.2196 -0.0508
24033DOPC   C3A29077  11.407   4.501  15.017 -0.0523 -0.1548  0.0516
24033DOPC   C4A29078  11.717   4.493  14.626 -0.2020 -0.0414 -0.0413
24033DOPC   C1B29079  11.417   4.517  16.199 -0.0981 -0.1991  0.1732
24033DOPC   D2B29080  11.830   4.287  16.129 -0.0135  0.2381 -0.1855
24033DOPC   C3B29081  12.175   4.118  15.914 -0.3096 -0.2326  0.1504
24033DOPC   C4B29082  12.273   3.934  15.477 -0.1017  0.0557 -0.0316
24034DOPC   NC329083  24.333   3.253  20.204  0.2724  0.2093 -0.0405
24034DOPC   PO429084  24.373   2.938  20.449  0.0574  0.2172  0.0255
24034DOPC   GL129085  24.084   2.676  20.480  0.2456 -0.3093  0.0117
24034DOPC   GL229086  23.869   2.949  20.441  0.0104 -0.0709  0.0821
24034DOPC   C1A29087  23.752   2.567  20.186  0.3857  0.1885  0.0674
24034DOPC   D2A29088  23.274   2.447  20.018 -0.2881  0.1734 -0.2020
24034DOPC   C3A29089  23.060   2.570  19.659 -0.2415  0.1266 -0.3472
24034DOPC   C4A29090  22.879   2.633  19.187  0.0397 -0.0879 -0.0854
24034DOPC   C1B29091  23.896   3.007  19.978 -0.0122  0.0095 -0.1035
24034DOPC   D2B29092  23.865   3.142  19.502 -0.2395  0.0072  0.3067
24034DOPC   C3B29093  23.564   3.430  19.212 -0.2007  0.2726 -0.0512
24034DOPC   C4B29094  23.185   3.720  19.044 -0.0614 -0.0785  0.0546
24035DOPC   NC329095   6.002   2.803  14.251 -0.2822  0.2020  0.1805
24035DOPC   PO429096   6.326   2.588  14.375 -0.2045 -0.0974 -0.1410
24035DOPC   GL129097   6.424   2.672  13.986 -0.1229  0.0789 -0.0523
24035DOPC   GL229098   6.294   2.506  13.795  0.0317  0.1622  0.0006
24035DOPC   C1A29099   6.311   3.055  13.856 -0.5158 -0.0593 -0.1243
24035DOPC   D2A29100   6.218   3.481  13.669 -0.0770  0.0628 -0.0391
24035DOPC   C3A29101   5.975   3.611  13.331 -0.1749 -0.0496 -0.0194
24035DOPC   C4A29102   5.910   3.726  12.850  0.1703 -0.1661  0.0306
24035DOPC   C1B29103   6.272   2.627  13.322  0.0229  0.2388 -0.0360
24035DOPC   D2B29104   6.071   2.787  12.952 -0.4259 -0.2925 -0.3978
24035DOPC   C3B29105   5.790   2.613  12.614  0.2655  0.0504 -0.1896
24035DOPC   C4B29106   5.484   2.439  12.232 -0.2660  0.1484 -0.2083
24036DOPC   NC329107  17.500   0.242  22.135 -0.2399 -0.0187  0.0698
24036DOPC   PO429108  17.477   0.453  22.446 -0.2594  0.1537  0.1758
24036DOPC   GL129109  17.658   0.756  22.228  0.0432  0.1140  0.3202
24036DOPC   GL229110  17.466   0.682  22.063 -0.2839 -0.0309 -0.0326
24036DOPC   C1A29111  17.915   0.838  21.852  0.1456 -0.3051 -0.1409
24036DOPC   D2A29112  18.048   0.919  21.416 -0.1336 -0.2239  0.3439
24036DOPC   C3A29113  18.075   0.792  20.926 -0.1805  0.0392  0.2363
24036DOPC   C4A29114  18.193   0.707  20.413  0.1224  0.0047  0.1252
24036DOPC   C1B29115  17.241   0.839  21.652  0.2081  0.2318 -0.1243
24036DOPC   D2B29116  16.945   1.029  21.330  0.0319 -0.0500  0.0873
24036DOPC   C3B29117  17.023   1.015  20.902  0.2644  0.0952 -0.0800
24036DOPC   C4B29118  17.123   0.926  20.403  0.1761  0.1208 -0.0616
24037DOPC   NC329119  23.426   0.961  20.653  0.0186 -0.1629  0.2314
24037DOPC   PO429120  23.355   1.220  20.938  0.1348 -0.0798  0.0627
24037DOPC   GL129121  23.114   1.365  20.645  0.3810 -0.1384 -0.2849
24037DOPC   GL229122  22.967   1.054  20.734  0.1899  0.3266 -0.0413
24037DOPC   C1A29123  23.212   1.537  20.253  0.1018  0.2281 -0.1492
24037DOPC   D2A29124  23.513   1.657  19.900  0.1113 -0.1467 -0.0796
24037DOPC   C3A29125  23.472   1.565  19.443  0.0270  0.0459 -0.0723
24037DOPC   C4A29126  23.490   1.490  19.024  0.0650  0.1750  0.1144
24037DOPC   C1B29127  22.955   1.014  20.306 -0.1412  0.0217 -0.1296
24037DOPC   D2B29128  22.712   1.076  19.872  0.1139 -0.3072  0.1767
24037DOPC   C3B29129  22.636   1.278  19.434  0.1384  0.0876  0.1222
24037DOPC   C4B29130  22.583   1.154  18.976 -0.4907  0.0997  0.0179
24038DOPC   NC329131   3.575   7.496  16.135 -0.1773 -0.1178  0.0710
24038DOPC   PO429132   3.778   7.430  15.810 -0.0892  0.2183 -0.0201
24038DOPC   GL129133   3.646   7.179  15.462 -0.1311  0.1748  0.1832
24038DOPC   GL229134   3.830   7.107  15.383  0.3060  0.1242 -0.1393
24038DOPC   C1A29135   3.368   7.313  15.134 -0.2168  0.2532 -0.0758
24038DOPC   D2A29136   2.905   7.451  14.938  0.0807 -0.1213 -0.1740
24038DOPC   C3A29137   2.589   7.505  14.654 -0.1374  0.0172 -0.1050
24038DOPC   C4A29138   2.262   7.248  14.411  0.2439  0.1581 -0.1516
24038DOPC   C1B29139   3.805   7.146  14.959 -0.1322 -0.0038  0.1697
24038DOPC   D2B29140   3.720   6.976  14.528  0.1105  0.2501  0.0740
24038DOPC   C3B29141   3.501   7.255  14.186 -0.1884 -0.0779 -0.0593
24038DOPC   C4B29142   3.430   7.446  13.770  0.0110  0.2214  0.3779
24039DOPC   NC329143  16.300   4.039  22.240  0.0480 -0.1956  0.0182
24039DOPC   PO429144  16.540   4.347  22.279  0.0175  0.1320  0.0675
24039DOPC   GL129145  16.838   4.202  21.990  0.0307 -0.1929 -0.2834
24039DOPC   GL229146  16.555   4.068  21.854  0.1513  0.1413 -0.3459
24039DOPC   C1A29147  17.188   4.311  21.771  0.1742 -0.0632 -0.1660
24039DOPC   D2A29148  17.507   4.448  21.375  0.3688 -0.0286 -0.0609
24039DOPC   C3A29149  17.784   4.478  21.004  0.0561  0.2549 -0.1009
24039DOPC   C4A29150  17.894   4.384  20.547 -0.2593  0.3319  0.0879
24039DOPC   C1B29151  16.387   4.281  21.492  0.1672 -0.0134  0.2494
24039DOPC   D2B29152  16.061   4.348  21.083 -0.0316  0.1283  0.1893
24039DOPC   C3B29153  16.270   4.486  20.684 -0.0507 -0.0122  0.1227
24039DOPC   C4B29154  16.389   4.548  20.223 -0.0960 -0.1847 -0.0405
24040DOPC   NC329155   3.738   5.696  16.614 -0.1451  0.0389 -0.0017
24040DOPC   PO429156   3.595   5.368  16.376 -0.0160  0.0739 -0.0112
24040DOPC   GL129157   3.289   5.440  16.109 -0.2649 -0.0484  0.3212
24040DOPC   GL229158   3.110   5.557  16.264  0.1750 -0.0171  0.0078
24040DOPC   C1A29159   3.001   5.202  15.931 -0.2111  0.0527 -0.1410
24040DOPC   D2A29160   2.536   4.992  15.949 -0.0612 -0.3406  0.1614
24040DOPC   C3A29161   2.251   4.831  15.645 -0.3405 -0.2975 -0.0792
24040DOPC   C4A29162   2.069   4.390  15.492  0.1407 -0.2001 -0.0154
24040DOPC   C1B29163   2.965   5.845  15.989  0.0581 -0.0607  0.0625
24040DOPC   D2B29164   2.546   6.116  15.991 -0.0267 -0.1242 -0.0598
24040DOPC   C3B29165   2.307   6.508  15.888 -0.1333 -0.1207 -0.0261
24040DOPC   C4B29166   1.943   6.799  15.763  0.0410 -0.0717 -0.2420
24041DOPC   NC329167  15.809   2.871  21.648 -0.0155  0.0213 -0.1949
24041DOPC   PO429168  16.023   2.524  21.661  0.4401  0.1307  0.3297
24041DOPC   GL129169  16.051   2.573  21.252 -0.0060  0.0722 -0.1255
24041DOPC   GL229170  15.750   2.557  21.181  0.2244  0.1169  0.3747
24041DOPC   C1A29171  16.284   2.436  20.847  0.1130 -0.0293  0.0983
24041DOPC   D2A29172  16.393   2.681  20.398 -0.1433  0.0838 -0.1067
24041DOPC   C3A29173  16.689   2.621  20.044  0.0870 -0.1401  0.1484
24041DOPC   C4A29174  17.032   2.536  19.657  0.1923 -0.0326 -0.0768
24041DOPC   C1B29175  15.635   2.345  20.831 -0.0541 -0.5615 -0.3040
24041DOPC   D2B29176  15.536   2.059  20.469 -0.0386 -0.1328  0.1724
24041DOPC   C3B29177  15.820   2.090  20.090  0.1430 -0.1585 -0.2262
24041DOPC   C4B29178  16.145   2.190  19.720  0.0295 -0.3888 -0.1035
24042DOPC   NC329179   3.909   3.238  15.600  0.3652 -0.0921  0.2851
24042DOPC   PO429180   3.874   2.839  15.559 -0.4220 -0.0873  0.0215
24042DOPC   GL129181   3.987   2.616  15.230  0.1174 -0.0448 -0.1993
24042DOPC   GL229182   3.762   2.489  15.189  0.0465 -0.0256 -0.1375
24042DOPC   C1A29183   4.123   2.857  14.892  0.0014  0.2348 -0.3334
24042DOPC   D2A29184   3.788   3.161  14.637  0.1122 -0.0143  0.3691
24042DOPC   C3A29185   3.361   3.186  14.442 -0.1385 -0.2407  0.2348
24042DOPC   C4A29186   3.005   2.972  14.145 -0.1417 -0.1424 -0.1113
24042DOPC   C1B29187   3.632   2.604  14.805 -0.0991  0.1438  0.2655
24042DOPC   D2B29188   3.495   2.716  14.347 -0.0743 -0.1717  0.0238
24042DOPC   C3B29189   3.158   2.492  14.040  0.1913 -0.1787 -0.2978
24042DOPC   C4B29190   2.747   2.240  13.868 -0.1323  0.1826 -0.1220
24043DOPC   NC329191   6.159   1.311  14.244 -0.0553  0.1823 -0.1905
24043DOPC   PO429192   6.099   1.655  14.085 -0.3266  0.2478 -0.4787
24043DOPC   GL129193   6.035   1.657  13.794 -0.3921 -0.0191 -0.3579
24043DOPC   GL229194   5.702   1.579  13.751  0.4153 -0.0623  0.0892
24043DOPC   C1A29195   5.963   1.879  13.431 -0.1384  0.0926 -0.0633
24043DOPC   D2A29196   6.044   2.123  12.976  0.2408 -0.4206  0.0885
24043DOPC   C3A29197   5.885   2.104  12.540 -0.2480  0.0918 -0.1433
24043DOPC   C4A29198   5.966   2.294  12.096 -0.0308  0.0932 -0.0857
24043DOPC   C1B29199   5.451   1.683  13.406 -0.0521  0.0325 -0.0860
24043DOPC   D2B29200   5.314   1.624  12.987 -0.0686 -0.0594 -0.1295
24043DOPC   C3B29201   5.090   1.196  12.928  0.0383  0.0612 -0.0137
24043DOPC   C4B29202   5.239   0.971  12.537 -0.3221 -0.3271 -0.2054
24044DOPC   NC329203  10.238   1.184  15.827 -0.2246 -0.0825 -0.0781
24044DOPC   PO429204  10.533   0.981  16.028  0.0470 -0.0073 -0.1783
24044DOPC   GL129205  10.574   0.654  15.738  0.1347 -0.2659 -0.1797
24044DOPC   GL229206  10.319   0.720  15.650  0.1555  0.1918  0.4266
24044DOPC   C1A29207  10.852   0.710  15.405 -0.0745 -0.1186 -0.0395
24044DOPC   D2A29208  11.195   0.489  15.139  0.0046  0.0929 -0.0022
24044DOPC   C3A29209  11.585   0.352  15.125  0.2673  0.0287  0.1811
24044DOPC   C4A29210  12.067   0.172  15.242  0.0668  0.2397  0.2316
24044DOPC   C1B29211  10.388   0.981  15.313 -0.0940 -0.1400 -0.1702
24044DOPC   D2B29212  10.520   1.321  15.009 -0.3706  0.1332  0.0298
24044DOPC   C3B29213  10.535   1.617  14.634  0.1150  0.0433 -0.0806
24044DOPC   C4B29214  10.683   1.648  14.152  0.0759 -0.4483  0.1543
24045DOPC   NC329215  15.081   4.246  22.109  0.2161 -0.5174 -0.1239
24045DOPC   PO429216  15.006   4.080  21.795 -0.2039  0.0539  0.2437
24045DOPC   GL129217  15.226   4.021  21.463  0.0178 -0.0090 -0.0517
24045DOPC   GL229218  15.474   4.087  21.517 -0.0391  0.0622 -0.2048
24045DOPC   C1A29219  15.141   4.147  21.043 -0.1908 -0.1007  0.2078
24045DOPC   D2A29220  15.154   4.127  20.537  0.2039  0.4117 -0.0041
24045DOPC   C3A29221  15.354   4.292  20.159  0.1077  0.1145 -0.2763
24045DOPC   C4A29222  15.625   4.209  19.812  0.2017  0.0153  0.0726
24045DOPC   C1B29223  15.600   4.397  21.163 -0.0084  0.0402  0.2823
24045DOPC   D2B29224  15.702   4.306  20.710  0.0527 -0.1970 -0.0682
24045DOPC   C3B29225  15.919   4.345  20.342 -0.1638 -0.0563  0.3312
24045DOPC   C4B29226  16.070   4.356  19.832  0.0292  0.0839 -0.2160
24046DOPC   NC329227   2.497   0.998  17.003  0.2419  0.0893  0.0946
24046DOPC   PO429228   2.240   1.133  17.251 -0.2221  0.2033 -0.1117
24046DOPC   GL129229   1.781   1.148  17.165 -0.0837 -0.2665 -0.1556
24046DOPC   GL229230   1.701   1.040  17.309  0.0306  0.0545 -0.0959
24046DOPC   C1A29231   1.573   1.152  16.753 -0.2349  0.0851 -0.1600
24046DOPC   D2A29232   1.280   1.187  16.332  0.1384  0.5381  0.0842
24046DOPC   C3A29233   1.244   1.453  15.962  0.1561 -0.1712 -0.0632
24046DOPC   C4A29234   1.384   1.881  15.795  0.1355 -0.2430 -0.3039
24046DOPC   C1B29235   1.328   0.854  17.171  0.2084 -0.0217  0.1180
24046DOPC   D2B29236   0.948   1.013  16.844 -0.3054  0.0186  0.2136
24046DOPC   C3B29237   0.848   1.386  16.547  0.3098 -0.4745 -0.0732
24046DOPC   C4B29238   0.735   1.591  16.090  0.1600 -0.0128  0.1419
24047DOPC   NC329239   5.095   2.796  14.573 -0.1833  0.1011 -0.1607
24047DOPC   PO429240   5.354   2.481  14.621  0.0737  0.2449 -0.2556
24047DOPC   GL129241   5.383   2.327  14.173  0.0572  0.3050  0.1804
24047DOPC   GL229242   5.330   2.067  14.217 -0.0996 -0.2406  0.2567
24047DOPC   C1A29243   5.176   2.576  13.913 -0.0696  0.0701 -0.1149
24047DOPC   D2A29244   5.393   2.779  13.484  0.1188  0.0802 -0.0317
24047DOPC   C3A29245   5.368   2.702  13.026 -0.2775  0.0304 -0.0013
24047DOPC   C4A29246   5.231   2.431  12.635  0.1387  0.0201 -0.2905
24047DOPC   C1B29247   5.008   2.131  13.971 -0.1303 -0.1242  0.1108
24047DOPC   D2B29248   4.657   2.361  13.659  0.1614 -0.1583 -0.0209
24047DOPC   C3B29249   4.499   2.692  13.363 -0.2296 -0.1704 -0.1599
24047DOPC   C4B29250   4.718   3.002  13.013 -0.2232 -0.1561  0.3589
24048DOPC   NC329251  16.929   5.076  22.450 -0.1395 -0.3416  0.0618
24048DOPC   PO429252  17.287   5.252  22.386  0.5861 -0.0687 -0.1257
24048DOPC   GL129253  17.281   4.973  22.154  0.0148 -0.1854 -0.1321
24048DOPC   GL229254  17.494   5.191  22.027  0.2472 -0.1499 -0.2073
24048DOPC   C1A29255  17.098   4.784  21.766  0.0868 -0.2023  0.3004
24048DOPC   D2A29256  16.879   4.512  21.411 -0.2529 -0.0377 -0.0684
24048DOPC   C3A29257  17.127   4.209  21.216  0.1072 -0.0621 -0.2058
24048DOPC   C4A29258  17.531   3.999  20.989  0.1147 -0.0157  0.1203
24048DOPC   C1B29259  17.440   5.184  21.543 -0.0348  0.0246 -0.1852
24048DOPC   D2B29260  17.189   4.889  21.260 -0.1115  0.0043 -0.3337
24048DOPC   C3B29261  17.383   4.839  20.884 -0.0392 -0.0855  0.2156
24048DOPC   C4B29262  17.480   4.669  20.420  0.0775  0.1755  0.1937
24049DOPC   NC329263   8.065   7.341  14.690  0.0335 -0.0563 -0.0332
24049DOPC   PO429264   7.906   6.985  14.495  0.1839 -0.1246 -0.1704
24049DOPC   GL129265   7.794   7.110  14.086 -0.0305  0.0040  0.1734
24049DOPC   GL229266   7.977   7.267  14.169 -0.1668 -0.4733 -0.0041
24049DOPC   C1A29267   7.792   7.084  13.624 -0.1123 -0.0500  0.1883
24049DOPC   D2A29268   7.968   7.068  13.099 -0.1632  0.2499  0.0275
24049DOPC   C3A29269   7.740   7.468  12.874  0.0212 -0.1022 -0.3673
24049DOPC   C4A29270   7.541   7.608  12.425 -0.0719 -0.0362  0.1225
24049DOPC   C1B29271   8.286   7.260  13.752 -0.0879  0.4190  0.2639
24049DOPC   D2B29272   8.486   7.358  13.262 -0.0463  0.1351 -0.3197
24049DOPC   C3B29273   8.318   7.619  12.904  0.0651 -0.0271 -0.0566
24049DOPC   C4B29274   8.098   7.800  12.512 -0.0186 -0.3979  0.0385
24050DOPC   NC329275  18.946   6.279  21.859 -0.1749 -0.0598  0.2566
24050DOPC   PO429276  19.142   6.300  22.177 -0.2247 -0.1593  0.1791
24050DOPC   GL129277  19.355   6.122  21.892 -0.1628  0.0321  0.2967
24050DOPC   GL229278  19.422   6.415  21.770 -0.2707  0.2235 -0.0487
24050DOPC   C1A29279  19.453   5.747  21.626  0.5822  0.0167 -0.1470
24050DOPC   D2A29280  19.491   5.428  21.284  0.1570  0.2028  0.1183
24050DOPC   C3A29281  19.226   5.142  21.028  0.1311 -0.1158  0.2625
24050DOPC   C4A29282  18.848   5.017  20.699 -0.1711  0.1572  0.0651
24050DOPC   C1B29283  19.176   6.299  21.455  0.0010 -0.2050 -0.0706
24050DOPC   D2B29284  18.881   6.228  21.096 -0.1678  0.0654  0.1764
24050DOPC   C3B29285  18.738   5.840  21.007  0.3155  0.1799 -0.1485
24050DOPC   C4B29286  19.094   5.600  20.738 -0.2314  0.0182  0.4018
24051DOPC   NC329287  22.514   5.288  21.937 -0.0018  0.1069 -0.0310
24051DOPC   PO429288  22.315   5.314  21.572  0.2099  0.0402 -0.0804
24051DOPC   GL129289  22.131   5.580  21.366 -0.2679  0.2010 -0.1303
24051DOPC   GL229290  21.837   5.490  21.434  0.0511 -0.2462  0.3002
24051DOPC   C1A29291  22.152   5.448  20.912  0.1904 -0.0159 -0.2113
24051DOPC   D2A29292  22.186   5.457  20.459  0.1224 -0.5234  0.0643
24051DOPC   C3A29293  22.211   5.709  20.057 -0.2308  0.0435  0.2833
24051DOPC   C4A29294  22.303   6.129  19.842  0.3647  0.1052 -0.0284
24051DOPC   C1B29295  21.630   5.430  21.058 -0.1271  0.0547 -0.2327
24051DOPC   D2B29296  21.548   5.419  20.492 -0.0006  0.2112  0.0413
24051DOPC   C3B29297  21.219   5.582  20.179  0.0981 -0.1909 -0.1211
24051DOPC   C4B29298  20.992   5.890  19.930 -0.1008 -0.1354  0.0230
24052DOPC   NC329299  12.126   7.155  18.604  0.2250 -0.2364  0.0105
24052DOPC   PO429300  12.355   7.047  18.950 -0.1718  0.0721 -0.0539
24052DOPC   GL129301  12.605   6.881  18.702  0.1476  0.0962  0.1276
24052DOPC   GL229302  12.880   7.014  18.877 -0.0517 -0.3038  0.3960
24052DOPC   C1A29303  12.548   7.030  18.311 -0.2431 -0.1369 -0.0505
24052DOPC   D2A29304  12.668   7.437  18.000  0.2138  0.0638  0.0309
24052DOPC   C3A29305  13.077   7.538  17.830  0.1377  0.0457  0.0244
24052DOPC   C4A29306  13.154   7.815  17.449  0.2734 -0.0652 -0.2171
24052DOPC   C1B29307  13.025   6.856  18.496 -0.2862 -0.2494 -0.1954
24052DOPC   D2B29308  13.400   6.744  18.202  0.2082  0.1472  0.1413
24052DOPC   C3B29309  13.806   6.587  18.157 -0.1823 -0.0155  0.1413
24052DOPC   C4B29310  14.344   6.537  18.040 -0.0834 -0.1284  0.2195
24053DOPC   NC329311   8.987   6.945  14.383 -0.1825  0.0012  0.1053
24053DOPC   PO429312   9.011   7.066  14.759 -0.2023  0.0612  0.0216
24053DOPC   GL129313   9.392   6.894  14.792 -0.0771  0.3573  0.0170
24053DOPC   GL229314   9.500   7.126  14.873 -0.3183  0.3316 -0.0666
24053DOPC   C1A29315   9.545   6.796  14.366  0.1922  0.2562 -0.1472
24053DOPC   D2A29316   9.443   6.745  13.920 -0.0006  0.1069 -0.0962
24053DOPC   C3A29317   9.624   6.505  13.569  0.3093  0.0071 -0.0577
24053DOPC   C4A29318   9.873   6.564  13.185  0.0439  0.0998 -0.1674
24053DOPC   C1B29319   9.649   7.364  14.582 -0.2186  0.2290 -0.2235
24053DOPC   D2B29320   9.954   7.524  14.240  0.1449  0.1576  0.5987
24053DOPC   C3B29321  10.385   7.466  14.037  0.0957  0.1385 -0.0095
24053DOPC   C4B29322  10.856   7.441  13.843  0.0488 -0.0125  0.2608
24054DOPC   NC329323  11.175   7.514  17.520 -0.0127 -0.0691  0.0252
24054DOPC   PO429324  11.529   7.389  17.576 -0.1975 -0.3664  0.0700
24054DOPC   GL129325  11.900   7.515  17.460 -0.1617 -0.5106 -0.1274
24054DOPC   GL229326  12.058   7.429  17.626  0.1065  0.3934 -0.2543
24054DOPC   C1A29327  12.199   7.542  17.168 -0.0578 -0.0994  0.1149
24054DOPC   D2A29328  12.557   7.333  16.881  0.0193  0.2842  0.0484
24054DOPC   C3A29329  12.714   7.203  16.476  0.0231 -0.0331  0.0095
24054DOPC   C4A29330  13.117   6.956  16.303  0.2298  0.1445  0.1937
24054DOPC   C1B29331  12.261   7.131  17.421  0.0699 -0.1326  0.2104
24054DOPC   D2B29332  12.688   6.903  17.272 -0.2318  0.1010  0.0232
24054DOPC   C3B29333  13.028   7.064  17.483 -0.1054 -0.0816  0.0453
24054DOPC   C4B29334  13.472   7.322  17.475  0.0320  0.0824 -0.0234
24055DOPC   NC329335  12.048   0.061  18.969 -0.0227 -0.2041  0.1052
24055DOPC   PO429336  12.197  -0.251  18.758  0.3091  0.0840 -0.2906
24055DOPC   GL129337  12.584  -0.434  18.686 -0.3752  0.1473 -0.0440
24055DOPC   GL229338  12.574  -0.417  19.025  0.0465 -0.0179  0.2610
24055DOPC   C1A29339  12.930  -0.526  18.473 -0.2823 -0.1559  0.0167
24055DOPC   D2A29340  13.358  -0.562  18.185 -0.1928  0.3945 -0.1856
24055DOPC   C3A29341  13.695  -0.687  17.915 -0.2149  0.2087  0.0662
24055DOPC   C4A29342  14.100  -0.900  17.872  0.0723  0.0364  0.0383
24055DOPC   C1B29343  12.987  -0.220  18.841  0.1327 -0.3444 -0.1382
24055DOPC   D2B29344  13.464  -0.359  18.674  0.2035  0.0618  0.1767
24055DOPC   C3B29345  13.865  -0.470  18.366  0.0525 -0.1001  0.2678
24055DOPC   C4B29346  14.240  -0.457  18.013  0.1359  0.0124  0.1026
24056DOPC   NC329347   3.936   4.120  15.687  0.0689 -0.0203 -0.0503
24056DOPC   PO429348   3.828   3.731  15.772 -0.2701  0.1214  0.0852
24056DOPC   GL129349   3.554   3.554  15.461  0.5066  0.2052 -0.2473
24056DOPC   GL229350   3.417   3.771  15.473 -0.2414 -0.4794  0.0900
24056DOPC   C1A29351   3.654   3.585  14.966 -0.1802  0.1540 -0.0565
24056DOPC   D2A29352   3.643   3.761  14.478  0.0506  0.1720 -0.0407
24056DOPC   C3A29353   3.255   3.703  14.249  0.1109  0.1285  0.0724
24056DOPC   C4A29354   2.782   3.570  14.132  0.0513  0.0468  0.2851
24056DOPC   C1B29355   3.186   3.826  15.147 -0.1527 -0.0298 -0.1347
24056DOPC   D2B29356   3.091   3.567  14.746  0.0208  0.0779 -0.0242
24056DOPC   C3B29357   2.835   3.284  14.535 -0.2232  0.1669 -0.1753
24056DOPC   C4B29358   2.524   3.102  14.203 -0.1842 -0.0765 -0.3020
24057DOPC   NC329359   1.190   0.795  18.723  0.2348 -0.0661 -0.0450
24057DOPC   PO429360   0.972   0.674  18.418 -0.0059  0.1467  0.0303
24057DOPC   GL129361   0.648   0.772  18.153 -0.1304 -0.0342 -0.0843
24057DOPC   GL229362   0.469   0.840  18.345 -0.1485 -0.1832  0.1597
24057DOPC   C1A29363   0.680   1.031  17.800 -0.2412 -0.1603  0.4366
24057DOPC   D2A29364   0.483   1.290  17.426  0.1389  0.0167 -0.0825
24057DOPC   C3A29365   0.068   1.352  17.224  0.2969 -0.1832  0.2306
24057DOPC   C4A29366  -0.010   1.320  16.703  0.0832  0.2730  0.2737
24057DOPC   C1B29367   0.192   0.572  18.493 -0.0921 -0.0628 -0.1178
24057DOPC   D2B29368  -0.118   0.324  18.776 -0.2568 -0.0326 -0.1208
24057DOPC   C3B29369  -0.541   0.464  18.803  0.1653  0.1916 -0.0818
24057DOPC   C4B29370  -0.984   0.584  18.988 -0.1633  0.0133 -0.1374
24058DOPC   NC329371  20.911   1.089  22.363 -0.0338  0.3911 -0.0147
24058DOPC   PO429372  21.134   1.373  22.255  0.0729  0.1279  0.2086
24058DOPC   GL129373  21.144   1.399  21.838  0.0210  0.1923 -0.3444
24058DOPC   GL229374  20.937   1.066  21.860 -0.2220  0.4908  0.0796
24058DOPC   C1A29375  21.272   1.371  21.415  0.0720  0.0358 -0.1310
24058DOPC   D2A29376  21.485   1.139  20.982 -0.1964 -0.0119 -0.0620
24058DOPC   C3A29377  21.176   1.352  20.685  0.0783 -0.1956  0.2409
24058DOPC   C4A29378  20.903   1.669  20.422 -0.1419  0.0073  0.0566
24058DOPC   C1B29379  20.682   1.163  21.498  0.2950 -0.0629 -0.0872
24058DOPC   D2B29380  20.359   1.114  21.111  0.0038 -0.0310  0.0488
24058DOPC   C3B29381  20.025   1.310  20.822 -0.0583  0.2805 -0.1903
24058DOPC   C4B29382  19.644   1.461  20.525 -0.3303 -0.2270  0.1553
24059DOPC   NC329383   0.109   5.468  19.461 -0.0560 -0.0014 -0.1135
24059DOPC   PO429384  -0.053   5.746  19.650 -0.0493 -0.3154 -0.1407
24059DOPC   GL129385  -0.369   5.918  19.381 -0.1590 -0.0133  0.0914
24059DOPC   GL229386  -0.169   6.066  19.219 -0.0019  0.0215  0.0351
24059DOPC   C1A29387  -0.772   5.769  19.229  0.0706 -0.2341 -0.1010
24059DOPC   D2A29388  -0.971   5.613  18.827 -0.1391 -0.0567 -0.0580
24059DOPC   C3A29389  -1.309   5.341  18.704  0.2879  0.2466 -0.0642
24059DOPC   C4A29390  -1.403   4.932  18.545 -0.5132  0.1065 -0.1351
24059DOPC   C1B29391  -0.364   6.228  18.855  0.1814 -0.1666 -0.0193
24059DOPC   D2B29392  -0.765   6.333  18.576  0.1177 -0.1468 -0.0675
24059DOPC   C3B29393  -1.206   6.164  18.555 -0.1356 -0.1533 -0.0115
24059DOPC   C4B29394  -1.666   6.275  18.599 -0.0259 -0.0577  0.0910
24060DOPC   NC329395   2.572   4.001  16.101 -0.0152  0.1422 -0.0647
24060DOPC   PO429396   2.974   3.814  16.099 -0.0485  0.0689  0.0362
24060DOPC   GL129397   2.816   3.463  15.808 -0.0578 -0.3707  0.1938
24060DOPC   GL229398   2.711   3.398  16.036 -0.6403  0.0134 -0.1774
24060DOPC   C1A29399   2.564   3.300  15.477  0.0727 -0.1929  0.0036
24060DOPC   D2A29400   2.357   2.998  15.148  0.4056  0.1040  0.0126
24060DOPC   C3A29401   2.141   2.647  14.925 -0.0523 -0.0061  0.2453
24060DOPC   C4A29402   2.046   2.360  14.494 -0.1086 -0.3346 -0.0113
24060DOPC   C1B29403   2.349   3.605  15.791  0.2802 -0.0196  0.1716
24060DOPC   D2B29404   1.983   3.948  15.679  0.6025 -0.0709  0.0926
24060DOPC   C3B29405   1.677   4.100  15.409  0.2436  0.0054  0.0503
24060DOPC   C4B29406   1.316   4.342  15.207 -0.0002  0.0497 -0.0668
24061DOPC   NC329407  13.060   0.981  19.915  0.1263 -0.2230  0.0577
24061DOPC   PO429408  13.219   1.237  19.653  0.1330 -0.2514  0.3733
24061DOPC   GL129409  13.591   1.249  19.574  0.2985  0.2053 -0.3352
24061DOPC   GL229410  13.542   1.482  19.269 -0.1821  0.1355 -0.1236
24061DOPC   C1A29411  13.960   1.053  19.646  0.2215  0.1627 -0.2137
24061DOPC   D2A29412  14.308   0.772  19.489 -0.0985  0.1083  0.0892
24061DOPC   C3A29413  14.248   0.350  19.286 -0.1426  0.0181 -0.0591
24061DOPC   C4A29414  14.343   0.094  18.902  0.1466 -0.0455 -0.0442
24061DOPC   C1B29415  13.966   1.342  19.146  0.0452 -0.2709  0.1801
24061DOPC   D2B29416  14.393   1.268  19.308  0.1815  0.0088  0.1494
24061DOPC   C3B29417  14.626   0.903  19.066 -0.0368 -0.0267  0.1226
24061DOPC   C4B29418  14.637   0.564  18.771 -0.1537 -0.1713 -0.1889
24062DOPC   NC329419   1.005   1.572  18.361 -0.0115  0.0816 -0.1190
24062DOPC   PO429420   1.012   1.783  18.689  0.0148  0.0656 -0.0035
24062DOPC   GL129421   0.711   2.117  18.679  0.0937 -0.2305  0.2401
24062DOPC   GL229422   0.531   1.878  18.819  0.2613  0.4701 -0.2034
24062DOPC   C1A29423   0.362   2.202  18.478 -0.1825 -0.2891  0.0156
24062DOPC   D2A29424  -0.032   2.067  18.182 -0.3438 -0.2358 -0.3623
24062DOPC   C3A29425  -0.353   2.012  17.831 -0.1220  0.0276  0.1400
24062DOPC   C4A29426  -0.421   2.061  17.358 -0.2475 -0.1573 -0.3432
24062DOPC   C1B29427   0.338   1.662  18.425  0.2870 -0.2986 -0.2159
24062DOPC   D2B29428   0.166   1.613  17.950  0.0713  0.0321 -0.2342
24062DOPC   C3B29429   0.609   1.546  17.852 -0.3691 -0.1525  0.1108
24062DOPC   C4B29430   0.956   1.911  17.978 -0.2801 -0.0057 -0.3781
24063DOPC   NC329431  12.012   4.297  17.866  0.0776 -0.0386 -0.0430
24063DOPC   PO429432  12.016   4.505  18.249  0.1003  0.0702 -0.1000
24063DOPC   GL129433  12.319   4.754  18.097 -0.3918  0.0307 -0.2782
24063DOPC   GL229434  12.395   4.529  17.922  0.0114 -0.2262 -0.1443
24063DOPC   C1A29435  12.709   4.949  18.025  0.0154 -0.2049  0.1720
24063DOPC   D2A29436  12.947   5.285  18.214 -0.0689  0.0067 -0.0196
24063DOPC   C3A29437  13.353   5.322  17.974  0.1266  0.1521 -0.3154
24063DOPC   C4A29438  13.672   5.527  17.629  0.1914  0.3180  0.3448
24063DOPC   C1B29439  12.686   4.605  17.629 -0.1487 -0.0459  0.1653
24063DOPC   D2B29440  13.149   4.636  17.431 -0.5660  0.0214 -0.0952
24063DOPC   C3B29441  13.420   4.287  17.189  0.2274  0.4118 -0.2900
24063DOPC   C4B29442  13.513   3.904  16.919  0.2289 -0.2929  0.0640
24064DOPC   NC329443  19.506   0.918  22.296  0.1965  0.0361 -0.0136
24064DOPC   PO429444  19.863   0.887  22.381  0.0353  0.2422 -0.0397
24064DOPC   GL129445  20.041   0.707  22.010  0.0590 -0.2900 -0.3767
24064DOPC   GL229446  19.838   0.975  21.866 -0.1702  0.1684  0.2829
24064DOPC   C1A29447  20.023   0.479  21.641 -0.1443  0.1557 -0.2998
24064DOPC   D2A29448  20.189   0.290  21.187  0.1203 -0.0519 -0.1059
24064DOPC   C3A29449  19.889   0.314  20.835 -0.0741 -0.0694 -0.0584
24064DOPC   C4A29450  19.666   0.367  20.390 -0.0010  0.0115 -0.1536
24064DOPC   C1B29451  19.902   1.193  21.440  0.0292  0.0225  0.2284
24064DOPC   D2B29452  20.026   1.683  21.197  0.0367  0.1614 -0.1008
24064DOPC   C3B29453  20.168   1.789  20.821  0.1558 -0.3058 -0.2795
24064DOPC   C4B29454  19.972   1.972  20.449 -0.1390  0.3155  0.0852
24065DOPC   NC329455   7.914   1.585  13.984  0.0669  0.0673  0.4210
24065DOPC   PO429456   8.278   1.688  14.050 -0.0970  0.4423 -0.1281
24065DOPC   GL129457   8.491   1.873  13.826  0.0828 -0.0287 -0.2911
24065DOPC   GL229458   8.635   1.663  13.700  0.1664  0.0521 -0.3557
24065DOPC   C1A29459   8.625   2.072  13.463  0.3603  0.0581 -0.1969
24065DOPC   D2A29460   8.759   2.105  13.014 -0.0244  0.0580 -0.4014
24065DOPC   C3A29461   8.917   2.438  12.771  0.1529 -0.2383 -0.0662
24065DOPC   C4A29462   8.971   2.648  12.376  0.2037  0.0321 -0.0855
24065DOPC   C1B29463   9.020   1.757  13.530 -0.0262  0.1234 -0.0545
24065DOPC   D2B29464   9.473   1.905  13.713 -0.1592 -0.0827  0.1252
24065DOPC   C3B29465   9.924   2.017  13.710 -0.1493 -0.0188 -0.1256
24065DOPC   C4B29466  10.298   2.212  13.415  0.2173 -0.1698 -0.0027
24066DOPC   NC329467   3.362   0.603  15.992 -0.0969  0.3934  0.2007
24066DOPC   PO429468   3.683   0.748  15.827  0.2003  0.0364  0.2998
24066DOPC   GL129469   3.672   0.717  15.403  0.0441 -0.1020  0.4650
24066DOPC   GL229470   3.458   0.760  15.486 -0.0131  0.1627  0.1044
24066DOPC   C1A29471   3.859   0.983  15.080 -0.3936 -0.0701 -0.0593
24066DOPC   D2A29472   3.849   1.452  14.914  0.3117  0.0496  0.3137
24066DOPC   C3A29473   3.723   1.505  14.501 -0.0481 -0.2073  0.1773
24066DOPC   C4A29474   3.467   1.585  14.005 -0.2613 -0.0155  0.0325
24066DOPC   C1B29475   3.200   1.074  15.336  0.0344 -0.1539  0.4368
24066DOPC   D2B29476   2.875   1.324  15.011 -0.1028  0.2249  0.0572
24066DOPC   C3B29477   2.690   1.165  14.636  0.0186  0.0438  0.1876
24066DOPC   C4B29478   2.622   0.808  14.291 -0.1334 -0.0255  0.1180
24067DOPC   NC329479  21.429   3.567  21.978 -0.1394  0.0341 -0.1222
24067DOPC   PO429480  21.299   3.180  21.896 -0.2189 -0.1324 -0.1182
24067DOPC   GL129481  21.452   2.948  21.611 -0.3655 -0.2695  0.0992
24067DOPC   GL229482  21.379   2.698  21.653  0.1844  0.3819  0.0056
24067DOPC   C1A29483  21.339   3.060  21.196  0.3014  0.0897  0.1514
24067DOPC   D2A29484  21.262   2.839  20.744 -0.1955  0.0227 -0.2471
24067DOPC   C3A29485  21.247   3.040  20.282 -0.1153  0.1055  0.2411
24067DOPC   C4A29486  21.497   3.439  20.095  0.0240 -0.2616  0.0002
24067DOPC   C1B29487  21.375   2.577  21.201  0.0530 -0.0291  0.2508
24067DOPC   D2B29488  21.510   2.287  20.854 -0.2047  0.1072 -0.0386
24067DOPC   C3B29489  21.800   2.052  20.484 -0.5453 -0.1084 -0.2374
24067DOPC   C4B29490  22.027   1.840  20.130 -0.3128 -0.0167 -0.1763
24068DOPC   NC329491   2.443   0.558  17.218  0.0294  0.0787 -0.0976
24068DOPC   PO429492   2.502   0.511  16.877  0.2176 -0.1937  0.1795
24068DOPC   GL129493   2.171   0.534  16.644  0.1209 -0.2195  0.0116
24068DOPC   GL229494   2.355   0.468  16.452  0.1388  0.0515  0.0382
24068DOPC   C1A29495   1.841   0.855  16.474  0.2236  0.1424 -0.1002
24068DOPC   D2A29496   1.754   1.316  16.293 -0.1516  0.0720 -0.0967
24068DOPC   C3A29497   1.917   1.580  15.956 -0.0457 -0.1079  0.0504
24068DOPC   C4A29498   1.935   1.943  15.588 -0.0204 -0.0621 -0.0486
24068DOPC   C1B29499   2.109   0.598  16.107  0.2267 -0.0535  0.0467
24068DOPC   D2B29500   1.858   0.607  15.653 -0.0734 -0.0255 -0.0763
24068DOPC   C3B29501   1.586   0.324  15.387  0.3145 -0.3047 -0.1902
24068DOPC   C4B29502   1.621  -0.149  15.138 -0.3212 -0.0108  0.2020
24069DOPC   NC329503   9.067   3.999  14.545 -0.0643 -0.1324  0.0057
24069DOPC   PO429504   9.257   3.734  14.731 -0.1706 -0.1564  0.1983
24069DOPC   GL129505   9.621   3.924  14.712  0.2266  0.1539 -0.0509
24069DOPC   GL229506   9.494   4.122  14.464 -0.2062  0.0273  0.1623
24069DOPC   C1A29507   9.902   3.844  14.392  0.0943  0.0247  0.0620
24069DOPC   D2A29508  10.103   4.044  14.000  0.4227  0.0673  0.2103
24069DOPC   C3A29509  10.365   4.417  13.890 -0.1309 -0.0072  0.0172
24069DOPC   C4A29510  10.762   4.432  13.585  0.1076 -0.0908 -0.1246
24069DOPC   C1B29511   9.588   4.031  14.029  0.1089 -0.1871  0.2282
24069DOPC   D2B29512   9.787   3.865  13.607  0.0719  0.0394 -0.1478
24069DOPC   C3B29513  10.166   3.725  13.560 -0.0029  0.0902  0.0622
24069DOPC   C4B29514  10.180   3.277  13.460  0.2189  0.2583  0.1770
24070DOPC   NC329515   2.699   4.640  16.951  0.0047  0.2506 -0.1012
24070DOPC   PO429516   2.477   4.298  16.960 -0.0061 -0.0081 -0.3039
24070DOPC   GL129517   2.227   4.159  16.665 -0.1483  0.1850 -0.2111
24070DOPC   GL229518   2.122   3.963  16.833  0.0027 -0.1218  0.2769
24070DOPC   C1A29519   2.052   4.265  16.281 -0.4786  0.2610  0.1507
24070DOPC   D2A29520   1.794   4.472  15.907 -0.0557  0.1116  0.0037
24070DOPC   C3A29521   1.791   4.896  15.725 -0.1026  0.0088 -0.0461
24070DOPC   C4A29522   1.961   5.166  15.394  0.1348 -0.0987 -0.0063
24070DOPC   C1B29523   1.717   3.793  16.832 -0.2958  0.2682  0.2366
24070DOPC   D2B29524   1.326   3.647  16.608  0.0423 -0.0333 -0.0043
24070DOPC   C3B29525   0.827   3.622  16.767 -0.0519 -0.3916  0.1653
24070DOPC   C4B29526   0.349   3.752  16.600  0.0190  0.0415 -0.0144
24071DOPC   NC329527   8.790   6.000  14.622 -0.1494 -0.2500 -0.2416
24071DOPC   PO429528   8.453   6.204  14.653  0.1211  0.1218 -0.0247
24071DOPC   GL129529   8.562   6.454  14.251  0.2988  0.1370 -0.0415
24071DOPC   GL229530   8.707   6.205  14.206 -0.0626  0.2820 -0.3690
24071DOPC   C1A29531   8.344   6.442  13.839 -0.2111 -0.1630 -0.0705
24071DOPC   D2A29532   8.548   6.354  13.394  0.1861 -0.0314  0.1094
24071DOPC   C3A29533   8.887   6.414  13.136  0.0082 -0.0495  0.4378
24071DOPC   C4A29534   9.328   6.334  12.971  0.3268  0.2529 -0.0272
24071DOPC   C1B29535   8.799   6.062  13.757  0.3325 -0.1615 -0.1513
24071DOPC   D2B29536   8.808   5.915  13.261  0.2167 -0.0943 -0.0485
24071DOPC   C3B29537   9.119   5.932  12.928  0.0604  0.1410 -0.1883
24071DOPC   C4B29538   9.442   5.946  12.579  0.0916  0.1657  0.1257
24072DOPC   NC329539   4.679   3.783  15.412  0.0551 -0.4099  0.3480
24072DOPC   PO429540   4.330   3.973  15.498 -0.0177  0.0437  0.1032
24072DOPC   GL129541   4.067   3.872  15.192 -0.1130 -0.2844  0.4018
24072DOPC   GL229542   3.935   4.094  15.216 -0.0835  0.1754  0.0934
24072DOPC   C1A29543   4.126   3.800  14.751 -0.2084  0.3078 -0.0660
24072DOPC   D2A29544   3.992   4.061  14.384 -0.1083  0.1722  0.3341
24072DOPC   C3A29545   4.249   4.047  14.002  0.0970 -0.1658  0.0868
24072DOPC   C4A29546   4.547   3.915  13.682  0.0304 -0.0416 -0.0863
24072DOPC   C1B29547   3.562   4.096  14.888 -0.0591  0.1389 -0.0574
24072DOPC   D2B29548   3.078   4.116  14.744 -0.2134  0.0456  0.4012
24072DOPC   C3B29549   2.773   3.851  14.559  0.1011  0.1214  0.0136
24072DOPC   C4B29550   2.424   3.518  14.524 -0.0325  0.0198  0.0477
24073DOPC   NC329551   8.559   0.275  14.935  0.2425 -0.0846  0.0410
24073DOPC   PO429552   8.815   0.523  14.767 -0.1085  0.3448 -0.0751
24073DOPC   GL129553   9.083   0.573  14.509  0.0602  0.4404  0.2549
24073DOPC   GL229554   9.107   0.231  14.410 -0.0507  0.0630 -0.0873
24073DOPC   C1A29555   9.457   0.747  14.478  0.2116 -0.1504 -0.2437
24073DOPC   D2A29556   9.945   0.863  14.415  0.0054 -0.1089 -0.2972
24073DOPC   C3A29557  10.233   0.919  14.048  0.1101  0.0484 -0.1642
24073DOPC   C4A29558  10.633   0.872  13.742 -0.1296 -0.0145 -0.1908
24073DOPC   C1B29559   9.210   0.154  13.947 -0.0694 -0.3768 -0.0145
24073DOPC   D2B29560   9.456   0.196  13.577 -0.3588  0.0353  0.1878
24073DOPC   C3B29561   9.879   0.126  13.582  0.1202 -0.1739  0.2064
24073DOPC   C4B29562  10.182   0.058  13.918 -0.0242 -0.1123 -0.0744
24074DOPC   NC329563  24.111   6.112  20.369 -0.1492  0.0935  0.0571
24074DOPC   PO429564  24.384   5.855  20.248  0.0136 -0.0085  0.3191
24074DOPC   GL129565  24.269   5.783  19.839  0.0569 -0.0588  0.0114
24074DOPC   GL229566  24.181   5.986  19.933 -0.0233 -0.3580 -0.0188
24074DOPC   C1A29567  23.876   5.548  19.678  0.2164  0.0512  0.0383
24074DOPC   D2A29568  23.433   5.422  19.481 -0.0684 -0.2622  0.0241
24074DOPC   C3A29569  23.340   5.552  19.002 -0.0889 -0.2260  0.2555
24074DOPC   C4A29570  23.293   5.435  18.571  0.0918  0.0711  0.1323
24074DOPC   C1B29571  24.024   6.078  19.523  0.1686  0.0361 -0.0523
24074DOPC   D2B29572  23.984   6.001  19.032 -0.1669 -0.1632 -0.1703
24074DOPC   C3B29573  23.673   5.803  18.737  0.3591 -0.2406 -0.1347
24074DOPC   C4B29574  23.139   5.913  18.791  0.0265  0.2077 -0.2718
24075DOPC   NC329575  21.711   3.746  17.121  0.3818  0.3893 -0.0090
24075DOPC   PO429576  21.784   3.390  17.325  0.0636 -0.0286 -0.3266
24075DOPC   GL129577  21.718   3.472  17.714  0.1120  0.2524 -0.1302
24075DOPC   GL229578  21.741   3.686  17.687 -0.0348 -0.1487  0.4136
24075DOPC   C1A29579  21.762   3.538  18.201  0.0587 -0.0194 -0.0012
24075DOPC   D2A29580  21.797   3.572  18.736  0.1062 -0.0469 -0.1981
24075DOPC   C3A29581  22.170   3.607  18.975 -0.3282 -0.0171 -0.1638
24075DOPC   C4A29582  22.635   3.765  19.070  0.1721 -0.1886 -0.0333
24075DOPC   C1B29583  22.101   3.818  17.902 -0.1167  0.1260  0.5426
24075DOPC   D2B29584  22.581   3.887  18.043 -0.1081 -0.2462 -0.0434
24075DOPC   C3B29585  23.002   3.704  17.956 -0.1013 -0.0072  0.3701
24075DOPC   C4B29586  23.441   3.671  18.052 -0.0601 -0.1982 -0.0431
24076DOPC   NC329587  11.667   3.320  11.355  0.0098  0.2839  0.0545
24076DOPC   PO429588  11.579   3.484  11.695 -0.0756  0.1197 -0.0415
24076DOPC   GL129589  11.601   3.418  12.046 -0.1330 -0.2082  0.0938
24076DOPC   GL229590  11.453   3.706  12.016 -0.0145 -0.0060 -0.0597
24076DOPC   C1A29591  11.398   3.146  12.294 -0.2014 -0.0778 -0.0208
24076DOPC   D2A29592  10.985   2.935  12.515 -0.0078  0.2841  0.2546
24076DOPC   C3A29593  10.917   2.758  12.916  0.1414 -0.1001  0.0023
24076DOPC   C4A29594  10.801   2.495  13.348  0.1542  0.1148 -0.1236
24076DOPC   C1B29595  11.125   3.859  12.287  0.1028 -0.0359 -0.1395
24076DOPC   D2B29596  10.684   3.984  12.528 -0.1904 -0.1773  0.1180
24076DOPC   C3B29597  10.552   3.711  12.858  0.0493 -0.0920 -0.2969
24076DOPC   C4B29598  10.628   3.584  13.329 -0.1012 -0.4371 -0.4644
24077DOPC   NC329599  23.394   4.382  15.314 -0.0984  0.2235 -0.0118
24077DOPC   PO429600  23.246   4.699  15.503  0.1123 -0.3829 -0.1495
24077DOPC   GL129601  23.627   4.635  15.695  0.2164 -0.4064 -0.0224
24077DOPC   GL229602  23.394   4.461  15.902  0.1374 -0.0109  0.2862
24077DOPC   C1A29603  23.819   4.731  16.165  0.1425  0.2180 -0.2685
24077DOPC   D2A29604  24.004   4.747  16.672 -0.1840 -0.0806 -0.1280
24077DOPC   C3A29605  24.357   4.935  16.950 -0.0158  0.0086  0.1224
24077DOPC   C4A29606  24.819   5.059  16.883 -0.3074  0.0292  0.1836
24077DOPC   C1B29607  23.673   4.097  15.975 -0.1659  0.1635 -0.2162
24077DOPC   D2B29608  23.956   3.653  16.124 -0.2524  0.2029 -0.1567
24077DOPC   C3B29609  24.328   3.802  16.379  0.1323 -0.2279 -0.0423
24077DOPC   C4B29610  24.585   4.202  16.432 -0.1077  0.1069 -0.0059
24078DOPC   NC329611  13.696   2.153  13.758 -0.1290 -0.3397 -0.2488
24078DOPC   PO429612  13.388   1.950  13.874  0.0153  0.1454 -0.3215
24078DOPC   GL129613  13.224   2.006  14.252 -0.3488 -0.2514 -0.2437
24078DOPC   GL229614  12.968   2.049  14.143  0.0798 -0.0878 -0.2624
24078DOPC   C1A29615  12.955   1.817  14.578  0.0634  0.3588  0.1609
24078DOPC   D2A29616  12.593   1.664  14.864  0.1673 -0.2239 -0.2023
24078DOPC   C3A29617  12.246   1.859  15.114 -0.1306 -0.0617 -0.0567
24078DOPC   C4A29618  11.779   1.750  15.279  0.0781  0.1695 -0.0370
24078DOPC   C1B29619  12.596   2.145  14.390 -0.3686  0.0346  0.2723
24078DOPC   D2B29620  12.359   2.222  14.811 -0.1931 -0.0801  0.0497
24078DOPC   C3B29621  12.469   2.614  15.061  0.0621  0.2400  0.2064
24078DOPC   C4B29622  12.481   3.111  15.069  0.0610 -0.2684 -0.2495
24079DOPC   NC329623  21.782   5.726  17.207 -0.4057 -0.3552 -0.1258
24079DOPC   PO429624  21.935   5.560  16.903 -0.0152 -0.1227  0.0463
24079DOPC   GL129625  22.378   5.439  16.918  0.0927  0.1717 -0.0360
24079DOPC   GL229626  22.284   5.536  17.201  0.1444  0.1973 -0.0014
24079DOPC   C1A29627  22.613   5.040  16.835 -0.1553 -0.0743  0.2024
24079DOPC   D2A29628  22.954   4.766  17.021  0.3419  0.1298 -0.0684
24079DOPC   C3A29629  23.328   4.726  17.356 -0.0349  0.2777 -0.3393
24079DOPC   C4A29630  23.742   4.754  17.741 -0.1150  0.3865 -0.2445
24079DOPC   C1B29631  22.185   5.252  17.568  0.0464 -0.5437 -0.0552
24079DOPC   D2B29632  21.885   5.049  17.850 -0.3674  0.0434  0.1164
24079DOPC   C3B29633  22.095   4.916  18.243 -0.1772  0.0675 -0.1109
24079DOPC   C4B29634  22.402   4.777  18.613  0.4747 -0.0859  0.0181
24080DOPC   NC329635  15.519   3.771  16.978 -0.0675  0.2794  0.0466
24080DOPC   PO429636  15.701   3.617  17.298  0.1017  0.1425 -0.0720
24080DOPC   GL129637  15.524   3.529  17.660  0.0485  0.0734  0.0301
24080DOPC   GL229638  15.781   3.403  17.796 -0.3345 -0.3155  0.2643
24080DOPC   C1A29639  15.374   3.532  18.060 -0.1963 -0.1682 -0.0393
24080DOPC   D2A29640  15.220   3.217  18.433  0.0528 -0.0154 -0.0690
24080DOPC   C3A29641  15.233   2.791  18.717  0.1733 -0.0257 -0.2122
24080DOPC   C4A29642  15.203   2.343  18.926 -0.1422  0.1532 -0.2001
24080DOPC   C1B29643  15.669   3.086  18.065 -0.2548 -0.1434 -0.0190
24080DOPC   D2B29644  15.283   2.779  18.212 -0.0183  0.3094  0.0384
24080DOPC   C3B29645  15.369   2.363  18.031 -0.2196 -0.1883 -0.2583
24080DOPC   C4B29646  15.843   2.211  18.027  0.0508 -0.1584 -0.0391
24081DOPC   NC329647   3.510   1.515  11.055  0.1480 -0.0995  0.0449
24081DOPC   PO429648   3.736   1.567  10.765  0.1341 -0.0066  0.2024
24081DOPC   GL129649   4.198   1.572  10.895  0.0637 -0.1787  0.1638
24081DOPC   GL229650   4.056   1.837  11.018 -0.1167  0.0657 -0.1573
24081DOPC   C1A29651   4.306   1.616  11.338  0.1281 -0.0380 -0.1209
24081DOPC   D2A29652   4.141   1.673  11.799  0.2563  0.0597  0.2432
24081DOPC   C3A29653   4.296   1.636  12.248 -0.0931  0.4453 -0.2872
24081DOPC   C4A29654   4.563   1.593  12.661 -0.1552 -0.1427 -0.0144
24081DOPC   C1B29655   4.025   2.021  11.418  0.0328 -0.1679  0.0338
24081DOPC   D2B29656   4.072   2.219  11.781  0.1930  0.0730 -0.0026
24081DOPC   C3B29657   4.177   2.155  12.204  0.1270  0.1663  0.1411
24081DOPC   C4B29658   4.552   2.063  12.471 -0.2718 -0.0077  0.0115
24082DOPC   NC329659  21.851   2.325  16.596 -0.0491 -0.1388  0.2277
24082DOPC   PO429660  22.101   2.593  16.759 -0.3908  0.1277 -0.0732
24082DOPC   GL129661  22.394   2.368  16.955  0.4332  0.2095  0.1755
24082DOPC   GL229662  22.476   2.136  16.830 -0.1115 -0.1753  0.1910
24082DOPC   C1A29663  22.588   2.592  17.255  0.1292 -0.0994  0.1532
24082DOPC   D2A29664  22.927   2.897  17.465  0.3637  0.2206  0.0864
24082DOPC   C3A29665  23.095   2.847  17.926 -0.0657  0.0713 -0.1683
24082DOPC   C4A29666  23.182   2.837  18.371 -0.1635  0.0780  0.2741
24082DOPC   C1B29667  22.793   2.148  17.160  0.0736 -0.1083  0.1281
24082DOPC   D2B29668  23.106   2.139  17.518 -0.2898  0.0019 -0.1294
24082DOPC   C3B29669  23.397   2.403  17.755  0.1655  0.1983  0.0815
24082DOPC   C4B29670  23.843   2.570  17.669 -0.1966  0.3889 -0.0739
24083DOPC   NC329671   3.173   4.568  11.599  0.0639  0.1261 -0.0610
24083DOPC   PO429672   3.080   4.208  11.649 -0.2083  0.2602 -0.2425
24083DOPC   GL129673   3.290   3.867  11.825 -0.1334  0.3152  0.3685
24083DOPC   GL229674   3.482   4.015  11.885 -0.0934  0.1647  0.1057
24083DOPC   C1A29675   3.285   3.522  12.058  0.0125  0.1497 -0.0036
24083DOPC   D2A29676   3.421   3.100  12.303  0.1357 -0.0664  0.1002
24083DOPC   C3A29677   3.107   3.180  12.683  0.0371 -0.2218  0.1069
24083DOPC   C4A29678   2.999   3.534  12.960  0.0067  0.1911  0.3237
24083DOPC   C1B29679   3.264   3.993  12.297 -0.1699  0.1462 -0.3768
24083DOPC   D2B29680   3.236   4.048  12.794 -0.2448 -0.0243  0.1354
24083DOPC   C3B29681   3.620   4.325  12.884 -0.2326  0.2255  0.1123
24083DOPC   C4B29682   4.043   4.356  13.106  0.0783 -0.1673  0.2753
24084DOPC   NC329683  12.044   0.887  12.470 -0.0169 -0.0982  0.1404
24084DOPC   PO429684  12.052   0.559  12.259  0.0105  0.0322  0.1669
24084DOPC   GL129685  11.697   0.424  12.327  0.2270  0.2763 -0.2978
24084DOPC   GL229686  11.685   0.167  12.358  0.1017  0.1907 -0.3000
24084DOPC   C1A29687  11.601   0.607  12.712  0.0173 -0.0177 -0.2343
24084DOPC   D2A29688  11.578   0.778  13.201  0.1334  0.0538 -0.1790
24084DOPC   C3A29689  11.165   0.696  13.458  0.0044  0.2202  0.4315
24084DOPC   C4A29690  10.680   0.478  13.445 -0.0748  0.0221 -0.3192
24084DOPC   C1B29691  11.522  -0.027  12.757  0.1651  0.1002 -0.1032
24084DOPC   D2B29692  11.410  -0.332  13.069  0.0147 -0.2064 -0.0840
24084DOPC   C3B29693  11.054  -0.301  13.392 -0.0171 -0.0281 -0.0584
24084DOPC   C4B29694  10.662  -0.003  13.545 -0.2288 -0.0356 -0.1140
24085DOPC   NC329695   3.152   5.409  10.918  0.4387 -0.2448 -0.2924
24085DOPC   PO429696   3.359   5.712  11.018  0.1755  0.0627  0.0447
24085DOPC   GL129697   3.522   5.649  11.407 -0.0884  0.0227 -0.0875
24085DOPC   GL229698   3.521   5.958  11.463 -0.2335 -0.3105 -0.2094
24085DOPC   C1A29699   3.483   5.297  11.705 -0.0302 -0.2524 -0.1113
24085DOPC   D2A29700   3.510   5.133  12.189 -0.1125  0.0495 -0.0448
24085DOPC   C3A29701   3.237   5.237  12.603  0.0077 -0.0980  0.2560
24085DOPC   C4A29702   2.835   5.271  12.975  0.0610 -0.3558  0.0832
24085DOPC   C1B29703   3.731   5.728  11.789 -0.2046  0.0443  0.0180
24085DOPC   D2B29704   3.922   5.400  12.135  0.1794  0.1634  0.5270
24085DOPC   C3B29705   3.824   5.338  12.586  0.0787  0.1466  0.0016
24085DOPC   C4B29706   3.911   5.250  13.035  0.2026  0.1020 -0.0134
24086DOPC   NC329707  17.933   1.114  18.299 -0.0624 -0.0727 -0.0685
24086DOPC   PO429708  18.263   1.270  18.298 -0.0219 -0.3381 -0.0148
24086DOPC   GL129709  18.403   1.481  18.760  0.3246  0.3544  0.1951
24086DOPC   GL229710  18.621   1.344  18.658  0.0392  0.0088 -0.1128
24086DOPC   C1A29711  18.356   1.513  19.217 -0.0526 -0.3057  0.0149
24086DOPC   D2A29712  18.235   1.538  19.701  0.1866  0.1989 -0.1396
24086DOPC   C3A29713  17.965   1.720  20.007  0.0049  0.3757  0.0281
24086DOPC   C4A29714  17.932   2.007  20.437 -0.0020  0.1567 -0.1388
24086DOPC   C1B29715  18.846   1.329  19.013  0.0222  0.4280 -0.1817
24086DOPC   D2B29716  19.131   1.030  19.298 -0.2991 -0.2171 -0.0730
24086DOPC   C3B29717  19.022   0.674  19.447 -0.1231  0.3260 -0.0152
24086DOPC   C4B29718  18.868   0.338  19.841 -0.1292  0.1872  0.1883
24087DOPC   NC329719  13.106   1.701  12.991 -0.0320 -0.2779 -0.0281
24087DOPC   PO429720  12.867   1.882  13.266 -0.0278  0.2374  0.2261
24087DOPC   GL129721  12.441   1.849  13.573 -0.1474 -0.1065  0.4473
24087DOPC   GL229722  12.383   2.081  13.431 -0.1765 -0.1769  0.2542
24087DOPC   C1A29723  12.356   1.698  14.013  0.0453 -0.4056  0.0969
24087DOPC   D2A29724  12.294   1.684  14.509 -0.0622  0.0533  0.1995
24087DOPC   C3A29725  11.889   1.749  14.763 -0.3700  0.0775  0.0212
24087DOPC   C4A29726  11.496   1.947  14.904  0.0293 -0.0480  0.3913
24087DOPC   C1B29727  11.993   1.947  13.452 -0.0296  0.0826 -0.2324
24087DOPC   D2B29728  11.570   1.643  13.353 -0.0777 -0.1243  0.3092
24087DOPC   C3B29729  11.371   1.270  13.211 -0.1938  0.4277  0.2432
24087DOPC   C4B29730  11.103   1.072  12.807 -0.1274  0.2234 -0.0003
24088DOPC   NC329731  19.997   1.449  18.300  0.1013  0.0537 -0.1213
24088DOPC   PO429732  19.628   1.337  18.399  0.1120 -0.0330  0.3442
24088DOPC   GL129733  19.543   1.592  18.753 -0.0758 -0.1119  0.1351
24088DOPC   GL229734  19.471   1.310  18.840  0.1939  0.0328  0.0440
24088DOPC   C1A29735  19.802   1.581  19.164 -0.0635 -0.1420 -0.1413
24088DOPC   D2A29736  20.218   1.521  19.484 -0.0520  0.2602  0.1018
24088DOPC   C3A29737  20.559   1.508  19.796  0.1651 -0.0044 -0.1079
24088DOPC   C4A29738  20.993   1.818  19.943  0.1106 -0.1316  0.4069
24088DOPC   C1B29739  19.615   1.086  19.137 -0.2133  0.3530  0.3109
24088DOPC   D2B29740  19.878   1.074  19.475  0.2882  0.0025  0.3179
24088DOPC   C3B29741  20.205   1.116  19.730 -0.2297 -0.2101 -0.2036
24088DOPC   C4B29742  20.553   1.137  20.108  0.2220  0.1725 -0.0589
24089DOPC   NC329743  17.854   7.513  18.602  0.1347 -0.2977  0.0934
24089DOPC   PO429744  18.241   7.514  18.504  0.0871 -0.1158 -0.1488
24089DOPC   GL129745  18.481   7.153  18.613 -0.1000 -0.0242 -0.1954
24089DOPC   GL229746  18.465   7.419  18.831  0.3942 -0.3358 -0.1910
24089DOPC   C1A29747  18.466   7.024  19.070 -0.1829  0.0578 -0.1670
24089DOPC   D2A29748  18.327   6.983  19.530 -0.2064 -0.0564 -0.1183
24089DOPC   C3A29749  18.021   6.948  19.868 -0.2242  0.4455 -0.0070
24089DOPC   C4A29750  17.737   6.758  20.295  0.0436  0.2381 -0.0630
24089DOPC   C1B29751  18.197   7.585  19.235  0.1624 -0.1098 -0.1230
24089DOPC   D2B29752  17.989   7.981  19.564 -0.1321  0.0503  0.0431
24089DOPC   C3B29753  17.931   8.479  19.464 -0.2153 -0.1491 -0.1709
24089DOPC   C4B29754  18.201   8.883  19.500  0.3285 -0.0036 -0.1751
24090DOPC   NC329755  21.087   5.248  16.746 -0.0314  0.0949  0.0810
24090DOPC   PO429756  20.960   5.334  17.119 -0.0681 -0.2955  0.0406
24090DOPC   GL129757  21.202   5.409  17.472 -0.1403  0.0571 -0.0621
24090DOPC   GL229758  21.195   5.150  17.656  0.1200 -0.0606 -0.1073
24090DOPC   C1A29759  21.305   5.830  17.722 -0.0413  0.1000 -0.2084
24090DOPC   D2A29760  21.607   6.007  18.155  0.2952  0.3292 -0.1544
24090DOPC   C3A29761  22.086   5.922  18.092 -0.1140  0.1778  0.0299
24090DOPC   C4A29762  22.527   5.844  17.990 -0.0592  0.2308  0.0492
24090DOPC   C1B29763  21.354   5.154  18.012  0.1350 -0.1044 -0.0194
24090DOPC   D2B29764  21.674   5.119  18.440 -0.3228  0.1564  0.0076
24090DOPC   C3B29765  22.084   5.319  18.501  0.0241 -0.3108 -0.1912
24090DOPC   C4B29766  22.367   5.712  18.505  0.0856 -0.0752  0.2612
24091DOPC   NC329767  18.665   3.090  17.756 -0.4397 -0.3066 -0.0110
24091DOPC   PO429768  18.928   3.010  18.069  0.0689  0.0003  0.1091
24091DOPC   GL129769  19.002   3.033  18.442 -0.0419 -0.0302  0.3314
24091DOPC   GL229770  18.912   3.279  18.540 -0.2657 -0.0826  0.0109
24091DOPC   C1A29771  18.850   2.705  18.694  0.2396  0.0781 -0.1135
24091DOPC   D2A29772  18.955   2.380  19.092  0.1112  0.0358  0.0816
24091DOPC   C3A29773  18.950   2.239  19.551  0.1378 -0.1034  0.0424
24091DOPC   C4A29774  18.671   2.073  19.971 -0.2123 -0.3459  0.0914
24091DOPC   C1B29775  18.949   3.471  18.890  0.0030 -0.0481  0.1102
24091DOPC   D2B29776  18.934   3.399  19.425 -0.3663  0.1059  0.0131
24091DOPC   C3B29777  18.758   3.182  19.826 -0.0293 -0.0614 -0.0555
24091DOPC   C4B29778  18.469   3.176  20.258 -0.2329  0.2137  0.0354
24092DOPC   NC329779  12.598   6.947  12.892 -0.1360 -0.1134  0.0952
24092DOPC   PO429780  12.627   7.355  12.912 -0.3794  0.0764 -0.2314
24092DOPC   GL129781  12.332   7.529  12.947 -0.1575  0.0065  0.1721
24092DOPC   GL229782  12.125   7.307  13.001 -0.0066  0.0658  0.1928
24092DOPC   C1A29783  12.253   7.473  13.409  0.1203  0.1713 -0.2923
24092DOPC   D2A29784  12.072   7.633  13.891 -0.0889  0.1247 -0.1290
24092DOPC   C3A29785  11.712   7.924  13.960 -0.2170  0.1469  0.1565
24092DOPC   C4A29786  11.484   8.299  13.784 -0.0137 -0.2360 -0.0349
24092DOPC   C1B29787  11.730   7.264  12.823 -0.0839 -0.1778  0.2350
24092DOPC   D2B29788  11.334   7.337  12.554  0.1011  0.0095 -0.2834
24092DOPC   C3B29789  10.934   7.478  12.797  0.1053  0.0297  0.1006
24092DOPC   C4B29790  10.596   7.439  13.133 -0.0406  0.1461 -0.4409
24093DOPC   NC329791  13.376   5.938  13.802  0.2380 -0.2234 -0.0036
24093DOPC   PO429792  13.374   6.274  14.034 -0.4367  0.1910 -0.1108
24093DOPC   GL129793  13.073   6.203  14.271 -0.2335  0.3648 -0.0547
24093DOPC   GL229794  13.266   6.150  14.424 -0.0238 -0.1153 -0.3242
24093DOPC   C1A29795  12.772   5.984  14.611 -0.2464 -0.1045 -0.0927
24093DOPC   D2A29796  12.393   5.853  14.961 -0.3025  0.0607 -0.0217
24093DOPC   C3A29797  12.134   5.955  15.329 -0.1514  0.1349  0.1056
24093DOPC   C4A29798  11.699   6.231  15.459 -0.1881  0.0078  0.0798
24093DOPC   C1B29799  13.151   6.275  14.838 -0.1422  0.0672  0.0717
24093DOPC   D2B29800  13.111   6.515  15.274 -0.3442 -0.1247  0.0718
24093DOPC   C3B29801  12.795   6.813  15.423  0.0845 -0.2254 -0.0388
24093DOPC   C4B29802  12.758   7.303  15.426 -0.0100 -0.1246 -0.1190
24094DOPC   NC329803   0.696   4.731  13.840  0.2687  0.0807 -0.3121
24094DOPC   PO429804   0.318   4.757  13.682  0.0419 -0.3810 -0.0423
24094DOPC   GL129805   0.132   4.597  14.080 -0.0857 -0.1333 -0.3662
24094DOPC   GL229806   0.415   4.459  14.126 -0.0905 -0.0364  0.0397
24094DOPC   C1A29807  -0.144   4.709  14.402  0.0785  0.0057 -0.0267
24094DOPC   D2A29808  -0.392   4.663  14.824  0.2035  0.1846  0.4054
24094DOPC   C3A29809  -0.361   4.529  15.245 -0.1732 -0.0319 -0.4599
24094DOPC   C4A29810  -0.132   4.422  15.658 -0.2336 -0.3006  0.1023
24094DOPC   C1B29811   0.512   4.129  14.388 -0.0253 -0.3096  0.0832
24094DOPC   D2B29812   0.687   3.726  14.625 -0.0111  0.2460  0.0875
24094DOPC   C3B29813   1.013   3.564  14.880  0.1673 -0.2832 -0.1892
24094DOPC   C4B29814   1.452   3.701  15.077  0.1982 -0.2325 -0.1279
24095DOPC   NC329815  22.347   0.468  16.142  0.2422  0.1003  0.2518
24095DOPC   PO429816  22.579   0.709  16.303 -0.1473  0.1415  0.2123
24095DOPC   GL129817  22.983   0.654  16.446 -0.2549 -0.1499  0.3239
24095DOPC   GL229818  22.881   0.741  16.701  0.2238 -0.0381 -0.0553
24095DOPC   C1A29819  23.395   0.501  16.479 -0.1339  0.0704 -0.2528
24095DOPC   D2A29820  23.889   0.472  16.567 -0.1374 -0.1440 -0.3431
24095DOPC   C3A29821  24.268   0.769  16.665 -0.0482  0.1306 -0.2334
24095DOPC   C4A29822  24.791   0.827  16.782 -0.2360  0.0172 -0.0400
24095DOPC   C1B29823  23.232   0.957  16.864  0.1793  0.0044 -0.0616
24095DOPC   D2B29824  23.598   1.103  17.216 -0.1060 -0.1955 -0.0876
24095DOPC   C3B29825  23.991   0.952  17.216 -0.0306 -0.0477 -0.3003
24095DOPC   C4B29826  24.402   1.005  17.479  0.1622 -0.0424  0.0280
24096DOPC   NC329827  13.440   7.269  14.238 -0.1602  0.2565 -0.1718
24096DOPC   PO429828  13.529   7.661  14.125 -0.1129  0.1243 -0.2297
24096DOPC   GL129829  13.334   7.938  14.331 -0.0775 -0.1826  0.1901
24096DOPC   GL229830  13.170   7.644  14.448 -0.0671 -0.0427 -0.3510
24096DOPC   C1A29831  13.437   8.299  14.600 -0.0233  0.2061  0.2235
24096DOPC   D2A29832  13.655   8.589  14.909 -0.2570  0.3458  0.0750
24096DOPC   C3A29833  13.354   8.723  15.238 -0.0563 -0.2616  0.0457
24096DOPC   C4A29834  13.009   8.697  15.531  0.1743  0.0123 -0.0160
24096DOPC   C1B29835  13.342   7.862  14.850 -0.2578 -0.0449  0.0690
24096DOPC   D2B29836  13.632   8.120  15.093 -0.0351 -0.1141  0.0202
24096DOPC   C3B29837  13.531   8.290  15.504  0.1034  0.3167  0.2881
24096DOPC   C4B29838  13.156   8.358  15.862  0.0147  0.4925 -0.1961
24097DOPC   NC329839  17.921   4.728  18.628 -0.2349  0.1319  0.1269
24097DOPC   PO429840  17.757   4.991  18.426  0.1392  0.1554  0.3601
24097DOPC   GL129841  17.458   4.932  18.759 -0.2103  0.0621  0.1388
24097DOPC   GL229842  17.359   4.748  18.527  0.2964  0.4399  0.0596
24097DOPC   C1A29843  17.212   4.928  19.178  0.1359  0.0034 -0.0870
24097DOPC   D2A29844  17.018   4.935  19.656 -0.2334  0.0032  0.1359
24097DOPC   C3A29845  16.820   4.512  19.814  0.1781 -0.1990  0.4768
24097DOPC   C4A29846  16.513   4.108  19.835 -0.0762 -0.2553 -0.1231
24097DOPC   C1B29847  17.488   4.487  18.818  0.0137 -0.3565 -0.0404
24097DOPC   D2B29848  17.575   4.309  19.238 -0.0139  0.0589 -0.0500
24097DOPC   C3B29849  17.622   4.086  19.603 -0.2242 -0.2794 -0.1108
24097DOPC   C4B29850  17.654   3.656  19.786  0.0607  0.1321 -0.2097
24098DOPC   NC329851   5.529   7.474  10.106  0.0294  0.2069  0.1699
24098DOPC   PO429852   5.870   7.265  10.030  0.0051  0.0189  0.3885
24098DOPC   GL129853   6.095   7.300  10.423 -0.1534  0.0550  0.1529
24098DOPC   GL229854   5.907   7.520  10.453  0.1551 -0.3689  0.1274
24098DOPC   C1A29855   6.145   6.836  10.628  0.1371 -0.0712  0.3246
24098DOPC   D2A29856   6.521   6.593  10.893 -0.2606 -0.1413  0.2475
24098DOPC   C3A29857   6.550   6.796  11.330  0.1300 -0.4363  0.1131
24098DOPC   C4A29858   6.693   6.927  11.801 -0.1685 -0.0524 -0.0339
24098DOPC   C1B29859   6.180   7.648  10.791  0.2704 -0.2485 -0.0442
24098DOPC   D2B29860   6.586   7.669  10.992  0.2508 -0.0048 -0.5617
24098DOPC   C3B29861   6.674   7.646  11.437 -0.2135 -0.1253  0.5862
24098DOPC   C4B29862   6.669   7.482  11.895  0.0231 -0.2279  0.3157
24099DOPC   NC329863   2.747   1.510  10.967 -0.1499 -0.0040 -0.1027
24099DOPC   PO429864   2.392   1.421  11.148 -0.1091 -0.1271 -0.0671
24099DOPC   GL129865   2.510   1.484  11.561 -0.2676 -0.1292 -0.0879
24099DOPC   GL229866   2.814   1.508  11.649  0.2923 -0.6163  0.2142
24099DOPC   C1A29867   2.528   1.642  11.964  0.0773  0.0353 -0.0430
24099DOPC   D2A29868   2.569   1.233  12.314 -0.0258 -0.3979 -0.0293
24099DOPC   C3A29869   2.623   0.781  12.489  0.0077  0.1350 -0.1362
24099DOPC   C4A29870   2.698   0.428  12.809 -0.4467 -0.1125 -0.0383
24099DOPC   C1B29871   2.934   1.347  12.097 -0.2662  0.0636  0.1232
24099DOPC   D2B29872   2.994   1.458  12.563  0.1715  0.0177  0.3476
24099DOPC   C3B29873   3.396   1.654  12.783 -0.0069 -0.0997  0.0443
24099DOPC   C4B29874   3.755   1.749  13.043 -0.0052  0.1485 -0.1372
24100DOPC   NC329875   0.053   4.094  13.277  0.3237 -0.3097  0.2209
24100DOPC   PO429876   0.396   3.946  13.239 -0.0215 -0.1914  0.1781
24100DOPC   GL129877   0.622   3.937  13.589 -0.1933 -0.2550 -0.0933
24100DOPC   GL229878   0.871   3.865  13.486 -0.0663  0.1949 -0.1797
24100DOPC   C1A29879   0.809   4.114  13.961  0.0103 -0.2328 -0.0752
24100DOPC   D2A29880   1.047   4.113  14.410 -0.0137  0.1554  0.2833
24100DOPC   C3A29881   0.919   4.152  14.866  0.4534 -0.0974 -0.1896
24100DOPC   C4A29882   0.815   4.357  15.326  0.0380  0.0751  0.1531
24100DOPC   C1B29883   1.224   3.902  13.773 -0.0334  0.0309  0.1397
24100DOPC   D2B29884   1.511   3.873  14.201  0.2736  0.1117  0.0596
24100DOPC   C3B29885   1.564   3.973  14.649  0.0914  0.0519  0.1212
24100DOPC   C4B29886   1.900   4.186  14.957  0.0186  0.0769 -0.0767
24101DOPC   NC329887  15.025   6.123  15.353  0.0217  0.1309  0.1899
24101DOPC   PO429888  14.764   6.418  15.293  0.1274  0.1348 -0.0490
24101DOPC   GL129889  14.647   6.324  15.685 -0.1279 -0.0224 -0.2077
24101DOPC   GL229890  14.442   6.123  15.567 -0.3407 -0.1142 -0.1093
24101DOPC   C1A29891  14.529   6.596  16.016  0.0173 -0.1409  0.1560
24101DOPC   D2A29892  14.264   6.824  16.373  0.0924  0.0699 -0.2705
24101DOPC   C3A29893  13.917   6.970  16.418 -0.4154  0.0906 -0.1448
24101DOPC   C4A29894  13.524   7.185  16.180 -0.1428  0.0828  0.0613
24101DOPC   C1B29895  14.226   5.805  15.860  0.2388 -0.0142 -0.0590
24101DOPC   D2B29896  13.908   5.742  16.215 -0.0777  0.2963 -0.1845
24101DOPC   C3B29897  13.812   5.410  16.581  0.1027  0.0944 -0.1356
24101DOPC   C4B29898  13.527   5.007  16.652  0.2978  0.0018  0.0328
24102DOPC   NC329899  14.627   5.561  15.065  0.1286  0.4197 -0.0168
24102DOPC   PO429900  14.589   5.889  15.213  0.1698 -0.1457  0.2063
24102DOPC   GL129901  14.209   5.743  15.308  0.0890 -0.1726 -0.0304
24102DOPC   GL229902  14.382   5.550  15.458  0.0065  0.0502  0.0531
24102DOPC   C1A29903  13.853   5.763  15.512  0.1140  0.0951  0.0006
24102DOPC   D2A29904  13.485   5.724  15.845  0.3145  0.0833  0.2914
24102DOPC   C3A29905  13.049   5.840  15.899  0.1645  0.1810  0.0895
24102DOPC   C4A29906  12.653   6.085  16.114  0.1158 -0.1048  0.0983
24102DOPC   C1B29907  14.098   5.286  15.556  0.1026 -0.0409  0.0370
24102DOPC   D2B29908  13.626   5.155  15.733 -0.1726 -0.1989  0.0297
24102DOPC   C3B29909  13.179   5.309  15.757 -0.0361  0.0420 -0.1617
24102DOPC   C4B29910  12.693   5.408  15.837  0.0335  0.1288  0.0921
24103DOPC   NC329911  17.273   5.248  18.261  0.0632  0.1130  0.4519
24103DOPC   PO429912  17.290   5.672  18.222 -0.0672 -0.0495  0.1065
24103DOPC   GL129913  17.301   5.818  18.605  0.2158 -0.0352 -0.1387
24103DOPC   GL229914  17.106   6.043  18.492 -0.2544  0.2481  0.0876
24103DOPC   C1A29915  17.343   5.757  19.070 -0.3006 -0.1298  0.0888
24103DOPC   D2A29916  17.293   5.606  19.530 -0.2861  0.0199 -0.0179
24103DOPC   C3A29917  17.207   5.311  19.921 -0.2568  0.2524 -0.2759
24103DOPC   C4A29918  17.073   4.941  20.273  0.0902  0.0970 -0.2170
24103DOPC   C1B29919  17.053   6.268  18.861  0.0149  0.1721  0.2252
24103DOPC   D2B29920  17.180   6.378  19.319  0.1245 -0.2040  0.2567
24103DOPC   C3B29921  17.280   6.214  19.723 -0.1000 -0.0191 -0.1376
24103DOPC   C4B29922  17.147   6.300  20.205 -0.5355 -0.0627 -0.0290
24104DOPC   NC329923   3.162   3.168  10.887  0.2771  0.0913  0.2206
24104DOPC   PO429924   3.390   2.867  11.066  0.1576  0.0079 -0.0941
24104DOPC   GL129925   3.632   2.900  11.365 -0.1336 -0.0202  0.0281
24104DOPC   GL229926   3.643   3.094  11.553  0.4968  0.2112 -0.1779
24104DOPC   C1A29927   3.950   2.620  11.453  0.0458  0.1857  0.0534
24104DOPC   D2A29928   4.386   2.583  11.703  0.1193 -0.3535 -0.0122
24104DOPC   C3A29929   4.762   2.273  11.798  0.3336  0.0414  0.0993
24104DOPC   C4A29930   5.145   2.043  11.938 -0.0645  0.1112 -0.0861
24104DOPC   C1B29931   3.800   3.123  11.875 -0.2437  0.0589  0.2138
24104DOPC   D2B29932   3.932   3.089  12.344  0.2502  0.1276  0.1904
24104DOPC   C3B29933   3.684   3.046  12.717  0.3144 -0.0847 -0.5381
24104DOPC   C4B29934   3.728   3.251  13.145  0.2620 -0.1227  0.1123
24105DOPC   NC329935  25.082   7.145  13.041 -0.0720 -0.1134 -0.1834
24105DOPC   PO429936  25.206   7.532  13.105  0.0862 -0.2018  0.0745
24105DOPC   GL129937  25.414   7.571  13.503  0.1237  0.3081  0.0762
24105DOPC   GL229938  25.641   7.722  13.383  0.2093  0.2863 -0.0023
24105DOPC   C1A29939  25.668   7.349  13.761 -0.0254  0.0540  0.1097
24105DOPC   D2A29940  26.002   7.432  14.083  0.0818 -0.4431 -0.1440
24105DOPC   C3A29941  26.458   7.443  14.306  0.1608 -0.0791  0.1585
24105DOPC   C4A29942  26.856   7.230  14.511  0.2531 -0.0355 -0.0626
24105DOPC   C1B29943  25.891   7.966  13.658  0.0294 -0.0953  0.0270
24105DOPC   D2B29944  26.297   7.812  13.859  0.1773 -0.0966  0.2595
24105DOPC   C3B29945  26.527   7.998  14.230 -0.1802 -0.0145  0.1689
24105DOPC   C4B29946  26.783   7.755  14.579  0.1637  0.0054 -0.2124
24106DOPC   NC329947  17.848   3.992  18.041 -0.0658 -0.4008 -0.2567
24106DOPC   PO429948  17.516   3.801  18.056 -0.1264 -0.2856 -0.0739
24106DOPC   GL129949  17.315   3.761  18.424 -0.3341  0.0120  0.1850
24106DOPC   GL229950  17.343   3.467  18.490 -0.1089  0.2135 -0.0772
24106DOPC   C1A29951  17.193   4.030  18.711  0.0307  0.0503 -0.2271
24106DOPC   D2A29952  17.022   4.296  19.021 -0.3268  0.0667  0.0279
24106DOPC   C3A29953  17.149   4.137  19.482  0.0027 -0.0298 -0.1145
24106DOPC   C4A29954  17.198   3.847  19.847  0.0435  0.0053  0.0581
24106DOPC   C1B29955  17.218   3.427  18.965  0.0724  0.0382  0.0098
24106DOPC   D2B29956  16.907   3.416  19.388  0.0400 -0.2417 -0.2111
24106DOPC   C3B29957  16.656   3.027  19.553  0.1947  0.0205 -0.0768
24106DOPC   C4B29958  16.353   2.645  19.604 -0.0071  0.4885 -0.0702
24107DOPC   NC329959  14.166   5.322  14.498 -0.0888 -0.2519 -0.3919
24107DOPC   PO429960  13.926   5.183  14.239 -0.3368 -0.1198 -0.1726
24107DOPC   GL129961  13.689   5.006  14.503  0.3471  0.1768 -0.1369
24107DOPC   GL229962  13.752   5.082  14.738 -0.0294 -0.0968 -0.1517
24107DOPC   C1A29963  13.462   4.679  14.650  0.0340 -0.1834 -0.0776
24107DOPC   D2A29964  13.213   4.261  14.781 -0.0955 -0.0005 -0.3791
24107DOPC   C3A29965  12.928   3.960  15.012 -0.2007  0.1612 -0.1897
24107DOPC   C4A29966  12.857   3.452  14.922 -0.0641  0.0119 -0.4256
24107DOPC   C1B29967  13.356   5.239  14.837  0.2271 -0.2818  0.1368
24107DOPC   D2B29968  13.047   4.949  14.677 -0.2619 -0.1754  0.1461
24107DOPC   C3B29969  12.793   4.613  14.841  0.0421 -0.0013 -0.1326
24107DOPC   C4B29970  12.517   4.434  15.122 -0.0310 -0.0417 -0.1606
24108DOPC   NC329971  10.769   1.039  11.031  0.0485 -0.1647 -0.0630
24108DOPC   PO429972  11.030   1.226  11.225 -0.2168  0.2163 -0.3049
24108DOPC   GL129973  10.936   0.978  11.508  0.1290  0.0498 -0.1662
24108DOPC   GL229974  10.708   0.788  11.492  0.0065  0.0111  0.1479
24108DOPC   C1A29975  10.970   1.003  12.008 -0.2434 -0.2733 -0.0765
24108DOPC   D2A29976  10.685   1.061  12.387 -0.0806  0.0968 -0.2191
24108DOPC   C3A29977  10.375   1.453  12.388 -0.2458 -0.0696 -0.1634
24108DOPC   C4A29978   9.954   1.487  12.652 -0.3217 -0.5080  0.2003
24108DOPC   C1B29979  10.311   0.998  11.554  0.1016  0.0139  0.1226
24108DOPC   D2B29980  10.089   1.418  11.479 -0.1305 -0.0966  0.0954
24108DOPC   C3B29981   9.810   1.570  11.757  0.0811  0.0021  0.0351
24108DOPC   C4B29982   9.706   1.674  12.227 -0.2334  0.6258 -0.2698
24109DOPC   NC329983  14.463   5.638  14.225 -0.3656 -0.0044 -0.1075
24109DOPC   PO429984  14.382   5.799  14.595 -0.3367 -0.0836 -0.1053
24109DOPC   GL129985  14.113   5.712  14.922 -0.5235 -0.0467 -0.0910
24109DOPC   GL229986  13.933   5.964  14.772 -0.2323 -0.1964 -0.0707
24109DOPC   C1A29987  13.886   5.362  15.090  0.1461  0.0982  0.1613
24109DOPC   D2A29988  13.451   5.463  15.325  0.0922 -0.1892 -0.0321
24109DOPC   C3A29989  13.035   5.638  15.460 -0.1542  0.0482 -0.2072
24109DOPC   C4A29990  12.599   5.498  15.316 -0.2528  0.0503 -0.3189
24109DOPC   C1B29991  13.579   6.006  14.986  0.0180 -0.0158  0.1124
24109DOPC   D2B29992  13.402   6.000  15.451 -0.1325  0.1449 -0.0658
24109DOPC   C3B29993  13.344   6.347  15.779 -0.0013 -0.1197  0.1641
24109DOPC   C4B29994  12.821   6.481  15.828 -0.3655 -0.1231  0.0796
24110DOPC   NC329995  24.042   5.528  15.351 -0.2042  0.2401  0.7916
24110DOPC   PO429996  23.948   5.908  15.511 -0.0994  0.0809 -0.2465
24110DOPC   GL129997  24.227   5.967  15.684 -0.1539  0.2127 -0.0265
24110DOPC   GL229998  24.262   5.833  15.887  0.1192  0.2757 -0.2923
24110DOPC   C1A29999  24.651   6.003  15.668  0.0141  0.1836 -0.1699
24110DOPC   D2A30000  24.988   6.262  15.622 -0.1782 -0.1660 -0.0669
24110DOPC   C3A30001  25.057   6.740  15.632  0.2807 -0.2015  0.1475
24110DOPC   C4A30002  25.134   7.233  15.452 -0.0718 -0.2390 -0.0186
24110DOPC   C1B30003  24.661   5.569  16.007  0.0402  0.2522  0.0263
24110DOPC   D2B30004  25.174   5.438  16.150  0.0003  0.1525 -0.0038
24110DOPC   C3B30005  25.414   5.783  15.977  0.0670 -0.3425 -0.2612
24110DOPC   C4B30006  25.821   6.064  15.819  0.1527  0.0062 -0.2217
24111DOPC   NC330007  13.895   1.410  14.304 -0.2879  0.0446 -0.0383
24111DOPC   PO430008  13.756   1.665  14.046  0.0232 -0.3154  0.2266
24111DOPC   GL130009  13.534   1.745  14.413 -0.0239  0.2103  0.0016
24111DOPC   GL230010  13.471   1.453  14.434  0.0242 -0.2363  0.1472
24111DOPC   C1A30011  13.469   1.795  14.873 -0.0188 -0.3699  0.2310
24111DOPC   D2A30012  13.168   1.865  15.233  0.0259  0.3413  0.1477
24111DOPC   C3A30013  12.708   1.833  15.374  0.0830  0.0111  0.1233
24111DOPC   C4A30014  12.307   1.603  15.512  0.2983  0.1073 -0.0723
24111DOPC   C1B30015  13.281   1.121  14.677 -0.1648 -0.3221 -0.2007
24111DOPC   D2B30016  12.935   0.965  14.999  0.2939 -0.2463 -0.3242
24111DOPC   C3B30017  12.446   0.959  14.989 -0.0223 -0.1613 -0.1403
24111DOPC   C4B30018  12.119   1.236  15.137 -0.4081  0.2858  0.1404
24112DOPC   NC330019  12.473   4.842  12.563  0.2080 -0.0825  0.0171
24112DOPC   PO430020  12.361   4.514  12.400  0.2176 -0.1692 -0.0924
24112DOPC   GL130021  11.956   4.360  12.384  0.1616 -0.2427  0.1370
24112DOPC   GL230022  11.957   4.307  12.639  0.0097  0.0892 -0.0529
24112DOPC   C1A30023  11.493   4.540  12.426  0.2953 -0.1263 -0.0629
24112DOPC   D2A30024  11.137   4.902  12.539  0.2346 -0.1558 -0.0294
24112DOPC   C3A30025  11.176   4.576  12.882 -0.0753  0.1500 -0.1386
24112DOPC   C4A30026  11.227   4.360  13.235 -0.2304 -0.0321 -0.0328
24112DOPC   C1B30027  11.678   4.472  12.907  0.1818 -0.0991 -0.0604
24112DOPC   D2B30028  11.491   4.785  13.255 -0.0268  0.2140  0.3303
24112DOPC   C3B30029  11.488   4.719  13.709 -0.0931 -0.1319 -0.1264
24112DOPC   C4B30030  11.475   4.645  14.221  0.3712 -0.1203  0.0084
24113DOPC   NC330031  14.581   1.874  14.158  0.1277 -0.0549 -0.0331
24113DOPC   PO430032  14.329   1.779  14.416 -0.1848  0.2794  0.1094
24113DOPC   GL130033  13.918   1.813  14.518  0.2191  0.2414  0.2168
24113DOPC   GL230034  13.898   1.674  14.765 -0.5410 -0.3228 -0.1313
24113DOPC   C1A30035  13.790   2.160  14.746  0.1280  0.0016  0.3158
24113DOPC   D2A30036  13.709   2.573  14.928  0.0106  0.0047 -0.2351
24113DOPC   C3A30037  13.286   2.666  14.891 -0.1391  0.0195  0.0740
24113DOPC   C4A30038  12.857   2.804  14.753 -0.0419 -0.0266 -0.4943
24113DOPC   C1B30039  14.013   1.937  15.113  0.0420  0.0913 -0.0892
24113DOPC   D2B30040  14.150   1.900  15.590  0.3151  0.1333 -0.2300
24113DOPC   C3B30041  13.802   1.926  15.912  0.3504 -0.0251  0.1578
24113DOPC   C4B30042  13.496   1.871  16.338  0.0225 -0.1109 -0.2781
24114DOPC   NC330043  11.416   7.332  11.668  0.0411 -0.0715  0.1232
24114DOPC   PO430044  11.430   7.727  11.636 -0.0576  0.1145 -0.3114
24114DOPC   GL130045  11.239   7.940  11.881  0.1919 -0.0572 -0.0149
24114DOPC   GL230046  11.381   8.121  12.035  0.4167  0.2115 -0.2203
24114DOPC   C1A30047  10.840   8.143  12.071  0.2704 -0.0638 -0.0675
24114DOPC   D2A30048  10.653   8.430  12.479  0.2827  0.0203  0.2435
24114DOPC   C3A30049  10.464   8.442  12.930 -0.1180 -0.2458  0.4846
24114DOPC   C4A30050  10.260   8.156  13.230  0.2038  0.1384  0.1167
24114DOPC   C1B30051  11.242   8.408  12.344  0.0829  0.0501  0.2709
24114DOPC   D2B30052  11.122   8.351  12.901 -0.1163 -0.2661  0.4094
24114DOPC   C3B30053  10.841   8.682  13.111  0.0817 -0.3969  0.1783
24114DOPC   C4B30054  10.703   9.017  13.373 -0.0563  0.0605 -0.0206
24115DOPC   NC330055   8.488   6.946  10.163  0.2641  0.2884  0.1024
24115DOPC   PO430056   8.130   7.039  10.113  0.2105 -0.1270 -0.1593
24115DOPC   GL130057   7.981   7.391  10.315  0.0247 -0.0025 -0.0769
24115DOPC   GL230058   8.309   7.372  10.459  0.2450  0.1364 -0.0254
24115DOPC   C1A30059   7.797   7.785  10.432 -0.2400 -0.0676 -0.0741
24115DOPC   D2A30060   7.528   8.200  10.552 -0.2011  0.0772 -0.0336
24115DOPC   C3A30061   7.430   8.257  10.982 -0.0040  0.1682 -0.0368
24115DOPC   C4A30062   7.298   8.153  11.417  0.2769 -0.1898 -0.1246
24115DOPC   C1B30063   8.229   7.311  10.899  0.3247  0.1049  0.2728
24115DOPC   D2B30064   8.247   7.533  11.315  0.1352 -0.0196 -0.1533
24115DOPC   C3B30065   8.304   7.993  11.448 -0.2362  0.0918 -0.0536
24115DOPC   C4B30066   8.293   8.329  11.814  0.4608 -0.2087 -0.1553
24116DOPC   NC330067  20.342   0.774  18.165 -0.0409 -0.2473  0.3984
24116DOPC   PO430068  20.365   1.146  18.195 -0.0647 -0.0042  0.2307
24116DOPC   GL130069  20.333   1.222  18.585 -0.3564  0.1300  0.4467
24116DOPC   GL230070  20.347   1.501  18.621 -0.0259  0.3971 -0.3447
24116DOPC   C1A30071  20.630   0.977  18.865  0.2659  0.0801  0.1866
24116DOPC   D2A30072  20.910   0.766  19.205 -0.1340  0.1746 -0.0921
24116DOPC   C3A30073  21.380   0.855  19.324  0.1722  0.1098 -0.1350
24116DOPC   C4A30074  21.784   1.046  19.513  0.6023  0.2463 -0.0597
24116DOPC   C1B30075  20.674   1.565  18.966 -0.1363  0.0099 -0.2091
24116DOPC   D2B30076  20.924   1.670  19.425 -0.0869 -0.2205  0.1834
24116DOPC   C3B30077  21.186   2.033  19.503  0.2011  0.0822 -0.0288
24116DOPC   C4B30078  21.287   2.260  19.965 -0.0667  0.2336  0.1064
24117DOPC   NC330079  13.357   4.623  14.190  0.1757  0.0513 -0.0789
24117DOPC   PO430080  13.297   4.480  13.801 -0.0397  0.1974 -0.4586
24117DOPC   GL130081  12.889   4.454  13.904  0.1655  0.1250 -0.1144
24117DOPC   GL230082  12.711   4.548  13.736  0.0611  0.0530 -0.2817
24117DOPC   C1A30083  12.702   4.083  14.164  0.2158  0.0575  0.0302
24117DOPC   D2A30084  12.292   3.831  14.307  0.0055  0.2006 -0.4196
24117DOPC   C3A30085  11.996   3.748  14.672  0.1798  0.3222  0.0390
24117DOPC   C4A30086  11.851   3.666  15.168 -0.0071 -0.0626  0.1227
24117DOPC   C1B30087  12.465   4.572  14.089  0.1084 -0.1384 -0.1325
24117DOPC   D2B30088  12.345   4.498  14.560  0.3520 -0.0728  0.0256
24117DOPC   C3B30089  12.559   4.111  14.664  0.2759 -0.1834  0.2781
24117DOPC   C4B30090  12.818   3.699  14.476 -0.0366  0.0148 -0.2997
24118DOPC   NC330091  20.716   5.771  17.662 -0.1518  0.2328  0.0085
24118DOPC   PO430092  20.568   5.738  18.066 -0.1246  0.0791 -0.1908
24118DOPC   GL130093  20.778   5.931  18.377  0.2796  0.1262 -0.0463
24118DOPC   GL230094  20.651   6.206  18.407  0.2348  0.0568 -0.3057
24118DOPC   C1A30095  20.889   5.918  18.848  0.0315 -0.2236  0.0044
24118DOPC   D2A30096  20.948   5.831  19.420  0.2279 -0.0222 -0.0956
24118DOPC   C3A30097  21.122   6.267  19.618  0.0104  0.0518  0.1816
24118DOPC   C4A30098  21.336   6.704  19.803 -0.0036 -0.1963  0.1164
24118DOPC   C1B30099  20.516   6.237  18.844 -0.2445 -0.2160 -0.1258
24118DOPC   D2B30100  20.724   6.311  19.301  0.0802  0.0314  0.1041
24118DOPC   C3B30101  20.576   6.185  19.732  0.1181  0.0841  0.2707
24118DOPC   C4B30102  20.627   6.241  20.225 -0.2124 -0.1294 -0.0437
24119DOPC   NC330103  22.768   7.553  16.327 -0.0348  0.2804 -0.1661
24119DOPC   PO430104  22.458   7.407  16.530 -0.2964 -0.0225  0.3169
24119DOPC   GL130105  22.627   7.465  16.893  0.0146  0.1903  0.0948
24119DOPC   GL230106  22.898   7.536  16.838  0.2195 -0.4414  0.0176
24119DOPC   C1A30107  22.612   7.688  17.297  0.0811  0.0743 -0.1425
24119DOPC   D2A30108  22.753   7.764  17.724 -0.2120  0.0907 -0.1583
24119DOPC   C3A30109  23.096   7.622  17.987  0.0871 -0.2484 -0.0896
24119DOPC   C4A30110  23.358   7.492  18.447 -0.0530  0.4790  0.2449
24119DOPC   C1B30111  23.158   7.625  17.140  0.0158  0.0733  0.2357
24119DOPC   D2B30112  23.293   7.833  17.592 -0.1728  0.2655  0.1324
24119DOPC   C3B30113  23.250   8.211  17.879 -0.2374 -0.3248 -0.2416
24119DOPC   C4B30114  23.023   8.521  18.201  0.2923 -0.1506 -0.1088
24120DOPC   NC330115  24.597   5.359  14.440  0.0117 -0.1090 -0.3200
24120DOPC   PO430116  24.259   5.179  14.593  0.1194 -0.0215 -0.0907
24120DOPC   GL130117  24.349   5.236  14.986 -0.3651 -0.0878  0.1660
24120DOPC   GL230118  24.440   5.503  14.994  0.0801 -0.1061 -0.1177
24120DOPC   C1A30119  24.196   5.052  15.438  0.0632 -0.0370  0.1022
24120DOPC   D2A30120  24.262   4.858  15.924 -0.1083 -0.2277  0.0019
24120DOPC   C3A30121  24.300   4.589  16.252  0.0595  0.0334 -0.0617
24120DOPC   C4A30122  24.048   4.205  16.484  0.1994 -0.1043 -0.0274
24120DOPC   C1B30123  24.809   5.627  15.155  0.2201  0.1379  0.0754
24120DOPC   D2B30124  25.072   5.751  15.579 -0.0035 -0.0670 -0.3798
24120DOPC   C3B30125  25.460   5.907  15.450  0.0127  0.1098 -0.1624
24120DOPC   C4B30126  25.920   5.934  15.318 -0.0892  0.0400  0.0616
24121DOPC   NC330127   5.198   6.728  10.080  0.2598  0.2165 -0.1378
24121DOPC   PO430128   5.351   7.043  10.169  0.3482  0.0740 -0.0225
24121DOPC   GL130129   5.512   7.329  10.515 -0.1119 -0.1198 -0.0256
24121DOPC   GL230130   5.247   7.193  10.679  0.1123  0.2226 -0.0283
24121DOPC   C1A30131   5.870   7.187  10.827  0.1738 -0.2716  0.1289
24121DOPC   D2A30132   6.179   7.234  11.218 -0.1996  0.0235  0.0205
24121DOPC   C3A30133   6.316   7.243  11.656 -0.0281 -0.2372 -0.2228
24121DOPC   C4A30134   6.434   7.143  12.182 -0.0920  0.1645  0.1849
24121DOPC   C1B30135   5.459   7.135  11.053 -0.0051  0.1715  0.1631
24121DOPC   D2B30136   5.672   7.030  11.476 -0.0978  0.1855  0.2869
24121DOPC   C3B30137   5.588   7.067  11.978  0.0790  0.1491  0.0858
24121DOPC   C4B30138   5.589   7.169  12.414  0.0069  0.1741 -0.0032
24122DOPC   NC330139   3.750   0.313  10.619 -0.1261  0.0914 -0.2048
24122DOPC   PO430140   3.758   0.596  10.918  0.0209 -0.0577 -0.1354
24122DOPC   GL130141   4.008   0.750  11.204  0.1544  0.1982  0.2068
24122DOPC   GL230142   3.861   0.551  11.417  0.0631  0.0310  0.2064
24122DOPC   C1A30143   3.994   1.193  11.331  0.0103  0.0454 -0.0288
24122DOPC   D2A30144   3.732   1.581  11.539  0.2193  0.0480 -0.0848
24122DOPC   C3A30145   3.707   1.818  11.981  0.0900 -0.0846  0.2000
24122DOPC   C4A30146   3.646   2.204  12.166 -0.2601  0.0207 -0.0694
24122DOPC   C1B30147   3.876   0.138  11.569  0.0312  0.1575  0.0788
24122DOPC   D2B30148   4.002  -0.337  11.822  0.0637  0.3722 -0.0025
24122DOPC   C3B30149   4.096  -0.564  12.245 -0.0293 -0.0638  0.0578
24122DOPC   C4B30150   4.244  -0.792  12.671 -0.0312  0.4665  0.1134
24123DOPC   NC330151  15.419   7.744  16.139  0.1021 -0.4418  0.1737
24123DOPC   PO430152  15.666   7.859  16.416 -0.2663  0.2563 -0.1454
24123DOPC   GL130153  15.311   7.816  16.722  0.0936  0.1632  0.1039
24123DOPC   GL230154  15.153   7.894  16.493 -0.2944 -0.1819 -0.0685
24123DOPC   C1A30155  15.001   7.852  17.070 -0.1216  0.0873  0.0005
24123DOPC   D2A30156  14.689   7.763  17.479 -0.2658 -0.0946 -0.1708
24123DOPC   C3A30157  14.239   7.807  17.711 -0.1005 -0.1210  0.0864
24123DOPC   C4A30158  13.807   7.621  17.793 -0.0989 -0.3160  0.0123
24123DOPC   C1B30159  14.830   8.044  16.246  0.0453  0.2233 -0.0445
24123DOPC   D2B30160  14.341   8.054  16.045 -0.1907 -0.0900  0.0501
24123DOPC   C3B30161  13.910   7.856  16.107  0.1859  0.1807  0.3966
24123DOPC   C4B30162  13.448   7.682  16.224  0.3182  0.2440 -0.0425
24124DOPC   NC330163  11.866   3.843  11.855  0.1525  0.1183 -0.1204
24124DOPC   PO430164  12.047   3.537  12.118 -0.0268  0.1361 -0.1097
24124DOPC   GL130165  11.867   3.358  12.380  0.1529  0.0356 -0.2364
24124DOPC   GL230166  12.118   3.292  12.558 -0.3011 -0.2338  0.1685
24124DOPC   C1A30167  11.479   3.585  12.488 -0.2251 -0.1128 -0.1149
24124DOPC   D2A30168  11.027   3.512  12.613 -0.3444 -0.0067 -0.0853
24124DOPC   C3A30169  10.810   3.258  12.908  0.0415 -0.3095  0.0685
24124DOPC   C4A30170  10.630   3.047  13.283  0.0368  0.1726  0.0547
24124DOPC   C1B30171  12.070   3.722  12.750  0.1909 -0.0594 -0.0457
24124DOPC   D2B30172  12.384   3.745  13.113  0.1862 -0.0838  0.1630
24124DOPC   C3B30173  12.109   3.927  13.435 -0.3786  0.3415  0.2336
24124DOPC   C4B30174  11.715   4.364  13.455 -0.2538 -0.3309  0.2397
24125DOPC   NC330175   1.523   2.042  12.472 -0.3723  0.0289  0.1451
24125DOPC   PO430176   1.812   2.040  12.197  0.2643 -0.2839  0.3323
24125DOPC   GL130177   2.073   2.000  12.504 -0.2976  0.0324  0.0157
24125DOPC   GL230178   1.896   1.771  12.712  0.1766 -0.1146  0.5047
24125DOPC   C1A30179   2.498   2.093  12.717 -0.1070  0.2790  0.0041
24125DOPC   D2A30180   2.818   2.399  12.950 -0.0608 -0.0401  0.0206
24125DOPC   C3A30181   3.084   2.524  13.310 -0.0046  0.1940  0.0497
24125DOPC   C4A30182   3.161   2.899  13.583 -0.1770 -0.1963  0.0447
24125DOPC   C1B30183   2.180   1.638  13.053 -0.1478 -0.1689 -0.1350
24125DOPC   D2B30184   2.616   1.443  13.249 -0.0096 -0.2946  0.4233
24125DOPC   C3B30185   2.929   1.186  13.386 -0.2662  0.0225 -0.1128
24125DOPC   C4B30186   3.466   1.092  13.469  0.0363  0.0056  0.0794
24126DOPC   NC330187  13.377   4.966  12.843 -0.1742 -0.0473 -0.1368
24126DOPC   PO430188  13.374   5.022  13.185  0.2563 -0.0459  0.2605
24126DOPC   GL130189  12.898   5.076  13.259 -0.0586 -0.1788  0.1872
24126DOPC   GL230190  12.862   4.847  13.379  0.0408 -0.3949 -0.0334
24126DOPC   C1A30191  12.487   5.115  13.085 -0.0255 -0.2914  0.0090
24126DOPC   D2A30192  11.991   5.163  12.937  0.3355  0.5393 -0.1108
24126DOPC   C3A30193  11.761   5.172  13.346 -0.0688  0.0504  0.1812
24126DOPC   C4A30194  11.322   5.187  13.615 -0.0053 -0.0686 -0.4170
24126DOPC   C1B30195  12.473   4.869  13.552 -0.2050  0.1310  0.3972
24126DOPC   D2B30196  12.109   5.109  13.798  0.1294  0.0003 -0.0454
24126DOPC   C3B30197  11.685   5.175  13.923  0.1108  0.2608 -0.2128
24126DOPC   C4B30198  11.273   5.113  14.156 -0.1456  0.2382  0.0838
24127DOPC   NC330199  19.767   2.059  17.871  0.0673  0.2283 -0.2198
24127DOPC   PO430200  20.100   1.874  18.005  0.1726 -0.1138 -0.1550
24127DOPC   GL130201  20.196   1.894  18.407 -0.2721  0.2630  0.1597
24127DOPC   GL230202  19.990   1.813  18.573  0.0369 -0.0472  0.1446
24127DOPC   C1A30203  20.606   1.894  18.611  0.0644 -0.0215 -0.0589
24127DOPC   D2A30204  20.895   2.060  18.983 -0.2898  0.1093  0.2193
24127DOPC   C3A30205  21.246   1.766  19.079  0.1283 -0.2258  0.1721
24127DOPC   C4A30206  21.733   1.736  19.229  0.2625  0.3521 -0.1846
24127DOPC   C1B30207  20.189   1.790  18.943 -0.0511  0.4687 -0.0496
24127DOPC   D2B30208  20.503   1.905  19.261  0.0304 -0.0236 -0.1716
24127DOPC   C3B30209  20.350   1.981  19.692  0.2448  0.1639  0.2068
24127DOPC   C4B30210  20.279   2.250  20.126  0.0624  0.5111  0.1716
24128DOPC   NC330211  14.008   3.316  13.794  0.1533  0.0187 -0.1711
24128DOPC   PO430212  13.623   3.227  13.869  0.2717  0.1180 -0.1558
24128DOPC   GL130213  13.327   3.376  14.186 -0.0962  0.1569  0.0925
24128DOPC   GL230214  13.577   3.302  14.407  0.2689  0.4380 -0.2593
24128DOPC   C1A30215  12.961   3.252  14.369 -0.0463 -0.0182  0.0919
24128DOPC   D2A30216  12.505   3.336  14.571 -0.2298  0.1637 -0.2158
24128DOPC   C3A30217  12.375   3.655  14.960 -0.0844  0.0138  0.0509
24128DOPC   C4A30218  12.150   4.085  14.977 -0.1773 -0.2738 -0.2936
24128DOPC   C1B30219  13.263   3.163  14.728  0.0874 -0.1406  0.0947
24128DOPC   D2B30220  13.044   3.064  15.200 -0.0435  0.0358 -0.2916
24128DOPC   C3B30221  12.720   3.112  15.528  0.2096 -0.2298  0.1035
24128DOPC   C4B30222  12.353   3.066  15.817 -0.1212 -0.1409  0.2567
24129DOPC   NC330223  11.274   5.328  11.173  0.0824 -0.0571 -0.0631
24129DOPC   PO430224  11.487   5.489  11.446 -0.1505  0.1274 -0.0364
24129DOPC   GL130225  11.233   5.653  11.724  0.0965  0.1711 -0.2128
24129DOPC   GL230226  11.056   5.508  11.660  0.1126  0.4608  0.0899
24129DOPC   C1A30227  11.152   5.508  12.107 -0.0588  0.0644  0.1966
24129DOPC   D2A30228  10.766   5.211  12.358 -0.1222 -0.1742  0.0959
24129DOPC   C3A30229  10.629   5.065  12.760 -0.3523  0.0140 -0.0377
24129DOPC   C4A30230  10.620   5.138  13.318  0.0002 -0.1613 -0.1357
24129DOPC   C1B30231  10.638   5.462  11.902 -0.4644  0.0868 -0.2806
24129DOPC   D2B30232  10.250   5.188  12.048  0.1818 -0.2677  0.1169
24129DOPC   C3B30233  10.052   5.043  12.487 -0.0934  0.0977  0.1079
24129DOPC   C4B30234  10.203   4.641  12.746 -0.4528  0.1069  0.4792
24130DOPC   NC330235  22.619   1.493  16.046  0.0395  0.2547 -0.0342
24130DOPC   PO430236  22.404   1.597  16.389 -0.2465 -0.5054 -0.2292
24130DOPC   GL130237  22.564   1.486  16.829 -0.0810  0.1768 -0.0374
24130DOPC   GL230238  22.740   1.769  16.876 -0.0113 -0.0390  0.1213
24130DOPC   C1A30239  22.814   1.243  16.979 -0.2951 -0.2518 -0.0030
24130DOPC   D2A30240  23.116   1.024  17.349 -0.2180 -0.1894  0.2541
24130DOPC   C3A30241  22.933   0.720  17.663 -0.0377 -0.2978 -0.1229
24130DOPC   C4A30242  22.740   0.341  17.943  0.0116  0.0853  0.1346
24130DOPC   C1B30243  22.917   1.700  17.260 -0.0175  0.0643 -0.0407
24130DOPC   D2B30244  23.114   1.656  17.732  0.1673 -0.3677  0.1242
24130DOPC   C3B30245  23.376   1.721  18.062  0.1610 -0.2396 -0.1181
24130DOPC   C4B30246  23.432   1.753  18.558  0.2920 -0.2224 -0.1020
24131DOPC   NC330247   8.997   5.236   9.902 -0.3323 -0.2409 -0.0122
24131DOPC   PO430248   9.053   5.557  10.151  0.1536  0.0142 -0.0023
24131DOPC   GL130249   9.038   5.503  10.516  0.0423 -0.0761  0.0678
24131DOPC   GL230250   9.026   5.232  10.451 -0.0530  0.1595  0.0382
24131DOPC   C1A30251   8.896   5.748  10.869  0.1728 -0.0185 -0.2101
24131DOPC   D2A30252   8.823   5.902  11.404 -0.1145  0.2386 -0.0299
24131DOPC   C3A30253   9.153   5.766  11.686 -0.0388  0.3324  0.1183
24131DOPC   C4A30254   9.169   5.888  12.134  0.0182  0.1039 -0.1422
24131DOPC   C1B30255   8.811   5.207  10.845  0.0921 -0.1798  0.0261
24131DOPC   D2B30256   8.857   5.426  11.325 -0.0715  0.3648  0.2342
24131DOPC   C3B30257   8.870   5.354  11.761 -0.1197 -0.0093  0.1336
24131DOPC   C4B30258   9.029   5.272  12.166 -0.2263 -0.2780  0.1074
24132DOPC   NC330259  18.689   4.933  18.101 -0.0123  0.2812 -0.2138
24132DOPC   PO430260  18.805   5.134  18.417 -0.4157 -0.1983  0.1412
24132DOPC   GL130261  19.015   4.958  18.772  0.0596  0.0532 -0.0396
24132DOPC   GL230262  18.859   5.019  18.937 -0.2814 -0.2430  0.4430
24132DOPC   C1A30263  19.119   4.626  19.063  0.1186 -0.0455 -0.1050
24132DOPC   D2A30264  19.062   4.326  19.424  0.2179  0.1484  0.1008
24132DOPC   C3A30265  19.230   4.428  19.834  0.1121  0.0574 -0.3694
24132DOPC   C4A30266  19.620   4.615  20.152  0.1361  0.0633  0.1474
24132DOPC   C1B30267  18.860   5.063  19.368  0.0605 -0.2138  0.0067
24132DOPC   D2B30268  18.903   5.039  19.878  0.0462  0.3398  0.0819
24132DOPC   C3B30269  19.183   4.890  20.231  0.3362 -0.0382  0.0531
24132DOPC   C4B30270  19.348   4.777  20.704  0.2092  0.1173 -0.2446
24133DOPC   NC330271  17.403   2.138  17.482  0.1456 -0.1364 -0.0772
24133DOPC   PO430272  17.180   2.359  17.776  0.1480  0.0721  0.0952
24133DOPC   GL130273  16.929   2.201  18.064  0.0635 -0.1977  0.0119
24133DOPC   GL230274  16.941   2.426  18.255  0.5264 -0.2033 -0.2094
24133DOPC   C1A30275  16.562   1.986  18.127 -0.0260  0.0836 -0.1621
24133DOPC   D2A30276  16.289   1.836  18.398 -0.0700  0.2610 -0.1681
24133DOPC   C3A30277  16.427   1.464  18.654  0.0652 -0.1781 -0.1022
24133DOPC   C4A30278  16.388   1.128  19.048  0.1872 -0.2178  0.0055
24133DOPC   C1B30279  16.636   2.208  18.546 -0.1165  0.1451  0.2289
24133DOPC   D2B30280  16.451   1.876  18.880 -0.0495 -0.2552 -0.0172
24133DOPC   C3B30281  15.969   1.871  18.837 -0.1639  0.1664  0.3043
24133DOPC   C4B30282  15.479   1.912  18.800  0.2877 -0.0081  0.0569
24134DOPC   NC330283  21.040   3.995  17.629 -0.0767 -0.0402  0.0513
24134DOPC   PO430284  20.892   3.605  17.774 -0.3679  0.1654 -0.4581
24134DOPC   GL130285  21.174   3.449  17.950 -0.0506 -0.0212  0.0365
24134DOPC   GL230286  21.369   3.670  17.943 -0.1000  0.4378  0.1254
24134DOPC   C1A30287  21.303   3.195  18.223 -0.3308  0.1002  0.2154
24134DOPC   D2A30288  21.685   3.141  18.453 -0.2410 -0.0465 -0.2811
24134DOPC   C3A30289  21.989   3.073  18.716 -0.1034 -0.4051 -0.0806
24134DOPC   C4A30290  22.275   3.077  19.045  0.1133 -0.1243  0.0895
24134DOPC   C1B30291  21.382   3.833  18.372 -0.0877 -0.0789  0.1157
24134DOPC   D2B30292  21.516   3.994  18.751  0.3762  0.1395 -0.0826
24134DOPC   C3B30293  21.595   3.880  19.155 -0.2471  0.0062 -0.1488
24134DOPC   C4B30294  21.348   3.717  19.621 -0.2570 -0.0286  0.1560
24135DOPC   NC330295   6.870   4.482  10.076 -0.1398 -0.1352 -0.2577
24135DOPC   PO430296   6.866   4.098  10.136 -0.0330  0.3230 -0.2013
24135DOPC   GL130297   7.007   3.940  10.491 -0.2078  0.3254  0.0104
24135DOPC   GL230298   6.926   3.728  10.550 -0.3166 -0.2580  0.2358
24135DOPC   C1A30299   7.169   4.154  10.916 -0.0860  0.1508 -0.2785
24135DOPC   D2A30300   7.352   4.147  11.370  0.1239  0.0615  0.1736
24135DOPC   C3A30301   7.356   4.147  11.839 -0.1284  0.2807  0.1204
24135DOPC   C4A30302   7.255   4.060  12.335  0.1288 -0.2553  0.1058
24135DOPC   C1B30303   6.701   3.760  10.965  0.1482 -0.0858 -0.1668
24135DOPC   D2B30304   6.291   3.942  11.145 -0.1114 -0.0284 -0.3065
24135DOPC   C3B30305   6.309   3.911  11.626  0.3988  0.3827  0.2499
24135DOPC   C4B30306   6.578   3.781  12.040  0.0634  0.2299 -0.3477
24136DOPC   NC330307  23.386   6.916  15.508  0.2798 -0.0416 -0.1826
24136DOPC   PO430308  23.683   6.693  15.460 -0.1342 -0.1645  0.0527
24136DOPC   GL130309  23.871   6.421  15.681 -0.1611 -0.1126 -0.2246
24136DOPC   GL230310  23.682   6.209  15.713 -0.1444 -0.1862 -0.1334
24136DOPC   C1A30311  24.192   6.344  15.945  0.0788  0.2648  0.0264
24136DOPC   D2A30312  24.555   6.098  16.177 -0.3139  0.0007 -0.3360
24136DOPC   C3A30313  24.970   5.996  16.028 -0.2046 -0.1947 -0.2872
24136DOPC   C4A30314  25.326   6.302  16.044  0.0052  0.1690 -0.0835
24136DOPC   C1B30315  23.661   6.073  16.077  0.1025 -0.0871  0.1062
24136DOPC   D2B30316  23.594   5.886  16.554  0.1493  0.1811 -0.0613
24136DOPC   C3B30317  24.044   5.697  16.724 -0.1464 -0.2136 -0.0206
24136DOPC   C4B30318  24.421   5.415  16.867 -0.0002  0.2110 -0.0587
24137DOPC   NC330319  20.511   5.293  18.201  0.1624  0.1943  0.1084
24137DOPC   PO430320  20.145   5.129  18.104 -0.0724 -0.0857 -0.0686
24137DOPC   GL130321  19.969   5.279  18.515  0.1877 -0.1096  0.2008
24137DOPC   GL230322  20.140   5.045  18.617 -0.0055  0.1781  0.1290
24137DOPC   C1A30323  20.038   5.575  18.846  0.2201  0.0468  0.0201
24137DOPC   D2A30324  20.026   5.783  19.281 -0.1031  0.0928 -0.2205
24137DOPC   C3A30325  19.970   5.934  19.742 -0.0763 -0.2700 -0.0028
24137DOPC   C4A30326  20.248   5.965  20.126  0.0397 -0.0940  0.0829
24137DOPC   C1B30327  20.420   5.241  18.915 -0.2566  0.2824  0.1463
24137DOPC   D2B30328  20.788   5.389  19.251  0.1992 -0.1626  0.0798
24137DOPC   C3B30329  21.136   5.185  19.417  0.2725 -0.0952  0.2104
24137DOPC   C4B30330  21.420   4.917  19.760  0.0108  0.2741  0.0839
24138DOPC   NC330331   7.649   2.497   9.851 -0.0394 -0.2663 -0.1092
24138DOPC   PO430332   7.592   2.116   9.860 -0.0867  0.1621 -0.2270
24138DOPC   GL130333   7.700   2.050  10.313  0.1710 -0.1465  0.0081
24138DOPC   GL230334   7.736   2.424  10.310  0.0492  0.2372 -0.0657
24138DOPC   C1A30335   7.568   1.934  10.734  0.0295 -0.2137  0.1390
24138DOPC   D2A30336   7.718   1.773  11.211  0.1075 -0.1088  0.0757
24138DOPC   C3A30337   7.674   1.599  11.652  0.2597 -0.2374  0.2177
24138DOPC   C4A30338   7.890   1.339  12.028 -0.0995 -0.0258 -0.1088
24138DOPC   C1B30339   7.868   2.357  10.713  0.2801 -0.0285  0.0158
24138DOPC   D2B30340   7.875   2.210  11.175  0.4349 -0.1104 -0.0706
24138DOPC   C3B30341   7.757   2.168  11.624  0.2149 -0.1144  0.0506
24138DOPC   C4B30342   7.788   2.205  12.142  0.1381 -0.1408 -0.0327
24139DOPC   NC330343  24.098   2.101  14.629  0.1746  0.3860 -0.0727
24139DOPC   PO430344  23.920   2.421  14.810  0.0877 -0.4163  0.0809
24139DOPC   GL130345  24.111   2.725  14.923 -0.1601 -0.3303 -0.0166
24139DOPC   GL230346  24.332   2.692  14.701  0.0187 -0.2151  0.2407
24139DOPC   C1A30347  24.394   2.671  15.238  0.0648  0.1543 -0.0188
24139DOPC   D2A30348  24.813   2.585  15.228  0.0178  0.1290 -0.1448
24139DOPC   C3A30349  25.111   2.291  15.429 -0.3338 -0.0079 -0.1306
24139DOPC   C4A30350  25.459   1.900  15.422 -0.0967 -0.1503 -0.3360
24139DOPC   C1B30351  24.566   2.288  14.703 -0.0176 -0.3125  0.1893
24139DOPC   D2B30352  24.522   1.761  14.713  0.0234 -0.1363 -0.0213
24139DOPC   C3B30353  24.820   1.449  14.917  0.0188  0.1718  0.0303
24139DOPC   C4B30354  25.015   1.032  15.186  0.2317 -0.2480  0.1523
24140DOPC   NC330355  12.897   0.682  12.742 -0.3646  0.1043 -0.0196
24140DOPC   PO430356  12.795   1.029  12.873  0.0125  0.1680  0.0410
24140DOPC   GL130357  12.570   0.933  13.152 -0.2632 -0.5506  0.0514
24140DOPC   GL230358  12.658   1.127  13.366  0.0572 -0.0364 -0.0400
24140DOPC   C1A30359  12.125   0.882  13.196  0.0404 -0.0476 -0.0072
24140DOPC   D2A30360  11.813   1.098  13.469  0.1231  0.1557 -0.0026
24140DOPC   C3A30361  11.503   1.232  13.792 -0.2812  0.1428 -0.1581
24140DOPC   C4A30362  11.020   1.363  13.735  0.1297 -0.1564  0.0813
24140DOPC   C1B30363  12.295   1.357  13.343 -0.0893 -0.0992 -0.1652
24140DOPC   D2B30364  11.853   1.423  13.053 -0.1740  0.2669  0.3005
24140DOPC   C3B30365  11.642   1.126  12.783  0.0242 -0.0733 -0.3000
24140DOPC   C4B30366  11.382   1.003  12.409  0.1965  0.1299  0.1471
24141DOPC   NC330367  17.005   4.022  17.945  0.1578 -0.0940 -0.4934
24141DOPC   PO430368  16.858   4.343  17.799 -0.1090 -0.0507 -0.1720
24141DOPC   GL130369  16.613   4.492  18.135 -0.0057  0.1581 -0.0769
24141DOPC   GL230370  16.640   4.137  18.271  0.3001 -0.0043 -0.0092
24141DOPC   C1A30371  16.391   4.812  18.269 -0.1699 -0.1151  0.0301
24141DOPC   D2A30372  15.959   4.999  18.371 -0.1435  0.1800  0.3643
24141DOPC   C3A30373  15.516   4.852  18.529  0.1050  0.0570 -0.0171
24141DOPC   C4A30374  15.179   4.606  18.791  0.2778 -0.2559  0.0674
24141DOPC   C1B30375  16.468   4.147  18.628 -0.2938 -0.0763 -0.0202
24141DOPC   D2B30376  16.298   4.334  18.981  0.0171  0.0915 -0.2297
24141DOPC   C3B30377  16.270   3.863  19.168 -0.0949 -0.0049 -0.0163
24141DOPC   C4B30378  16.231   3.430  19.385 -0.2889  0.0415  0.1020
24142DOPC   NC330379   5.215   3.485  10.665  0.2562  0.3556  0.3129
24142DOPC   PO430380   4.922   3.257  10.532  0.3962  0.0323 -0.0534
24142DOPC   GL130381   5.048   2.993  10.745  0.1214  0.3619 -0.0840
24142DOPC   GL230382   5.350   3.017  10.771  0.3260 -0.0948 -0.2864
24142DOPC   C1A30383   4.947   2.768  11.056  0.0084 -0.1425  0.3499
24142DOPC   D2A30384   4.854   2.533  11.432  0.0127 -0.0646  0.2403
24142DOPC   C3A30385   5.280   2.416  11.544 -0.4904 -0.0119  0.0183
24142DOPC   C4A30386   5.631   2.156  11.786  0.2709 -0.1397 -0.0031
24142DOPC   C1B30387   5.457   2.702  11.031  0.1045 -0.0216 -0.0086
24142DOPC   D2B30388   5.258   2.951  11.376  0.4116 -0.1465  0.0208
24142DOPC   C3B30389   5.320   3.368  11.162 -0.1336  0.0537  0.1325
24142DOPC   C4B30390   5.653   3.741  11.036 -0.1158 -0.2421  0.3640
24143DOPC   NC330391  16.180   0.670  16.342 -0.3082  0.0632  0.0975
24143DOPC   PO430392  16.443   0.626  16.653  0.1052  0.1196  0.1319
24143DOPC   GL130393  16.151   0.820  16.995 -0.0888  0.2254  0.1108
24143DOPC   GL230394  16.110   0.558  17.017 -0.1011  0.0385 -0.0857
24143DOPC   C1A30395  16.009   1.214  17.185 -0.0133  0.1442  0.0901
24143DOPC   D2A30396  15.686   1.457  17.555  0.0050  0.0029 -0.3018
24143DOPC   C3A30397  15.368   1.802  17.388 -0.0496  0.2095 -0.0230
24143DOPC   C4A30398  15.202   2.084  17.088 -0.0000  0.1773  0.3242
24143DOPC   C1B30399  15.802   0.418  17.380  0.2134  0.2215 -0.1269
24143DOPC   D2B30400  15.433   0.364  17.658 -0.1893 -0.2359 -0.0253
24143DOPC   C3B30401  15.065   0.061  17.741  0.1949 -0.3405  0.0581
24143DOPC   C4B30402  14.753  -0.272  17.972 -0.0813  0.0297 -0.1226
24144DOPC   NC330403  17.333   1.683  18.095  0.0167  0.1138 -0.0389
24144DOPC   PO430404  17.659   1.538  18.290  0.0429  0.0535  0.0296
24144DOPC   GL130405  17.468   1.722  18.564 -0.0942 -0.1114  0.2998
24144DOPC   GL230406  17.257   1.596  18.724  0.0549  0.0264 -0.3050
24144DOPC   C1A30407  17.605   1.990  18.844  0.0105 -0.1641 -0.1571
24144DOPC   D2A30408  17.358   2.148  19.194  0.6147 -0.1873 -0.0152
24144DOPC   C3A30409  17.432   2.158  19.630  0.1079 -0.2005 -0.4380
24144DOPC   C4A30410  17.755   2.214  20.005  0.0494  0.3722  0.0231
24144DOPC   C1B30411  17.300   1.615  19.115 -0.2408  0.0132  0.0850
24144DOPC   D2B30412  17.007   1.796  19.454 -0.2089  0.0884  0.5507
24144DOPC   C3B30413  16.660   1.569  19.726  0.0468 -0.4941 -0.0976
24144DOPC   C4B30414  16.236   1.681  19.981 -0.2773 -0.2153 -0.1477
24145DOPC   NC330415  12.206   3.083  12.092 -0.1057 -0.1490 -0.0078
24145DOPC   PO430416  12.440   3.016  12.404  0.1642 -0.1502  0.3668
24145DOPC   GL130417  12.187   2.879  12.730  0.1911 -0.2530  0.1151
24145DOPC   GL230418  12.296   2.642  12.806 -0.0881 -0.0623  0.0637
24145DOPC   C1A30419  11.804   3.164  12.822 -0.0491 -0.0681  0.0754
24145DOPC   D2A30420  11.369   3.191  12.889 -0.1666 -0.1073  0.1517
24145DOPC   C3A30421  11.128   3.046  13.247  0.1826 -0.2779 -0.2083
24145DOPC   C4A30422  10.883   2.867  13.669 -0.1220  0.1978  0.1104
24145DOPC   C1B30423  12.072   2.306  13.031  0.2200  0.1414  0.0515
24145DOPC   D2B30424  11.820   2.464  13.452 -0.0809  0.1267 -0.3605
24145DOPC   C3B30425  11.571   2.087  13.622  0.2334 -0.1477 -0.1144
24145DOPC   C4B30426  11.410   1.740  13.939  0.0057 -0.0126  0.1480
24146DOPC   NC330427  14.323   1.165  14.625 -0.1441 -0.1624 -0.0580
24146DOPC   PO430428  14.514   1.050  14.949  0.1366  0.1761 -0.0615
24146DOPC   GL130429  14.330   1.177  15.305  0.3592  0.1616 -0.0940
24146DOPC   GL230430  14.365   0.823  15.369  0.4017 -0.1041 -0.0923
24146DOPC   C1A30431  14.027   1.429  15.270  0.0009 -0.0475  0.0598
24146DOPC   D2A30432  13.575   1.681  15.414  0.1279 -0.1087  0.1442
24146DOPC   C3A30433  13.162   1.438  15.512  0.1080  0.0820 -0.2167
24146DOPC   C4A30434  12.803   1.534  15.807 -0.0161  0.0346  0.0790
24146DOPC   C1B30435  14.033   0.446  15.316  0.1076  0.2506  0.3700
24146DOPC   D2B30436  13.817   0.016  15.469  0.0238  0.2210  0.1710
24146DOPC   C3B30437  13.460   0.003  15.783  0.2273 -0.0891 -0.2213
24146DOPC   C4B30438  12.995  -0.168  15.620  0.0662  0.0105 -0.1901
24147DOPC   NC330439   0.529   6.239  13.306 -0.0558  0.3531  0.1110
24147DOPC   PO430440   0.731   5.893  13.268  0.2126 -0.1746 -0.0890
24147DOPC   GL130441   1.127   5.844  13.061  0.1144  0.3761 -0.2644
24147DOPC   GL230442   1.130   6.043  12.874 -0.1659  0.2429  0.1019
24147DOPC   C1A30443   1.436   5.771  13.361 -0.0301  0.1080  0.1152
24147DOPC   D2A30444   1.843   5.710  13.508  0.1056  0.1182 -0.0894
24147DOPC   C3A30445   2.005   5.771  13.992 -0.0922  0.1939 -0.1206
24147DOPC   C4A30446   1.981   5.962  14.498 -0.1975  0.1323 -0.1482
24147DOPC   C1B30447   1.562   6.085  12.759 -0.0464 -0.0794  0.1136
24147DOPC   D2B30448   1.979   5.933  12.516 -0.2019  0.0379  0.2865
24147DOPC   C3B30449   2.315   5.842  12.809 -0.1707  0.0072  0.0663
24147DOPC   C4B30450   2.720   5.785  12.984  0.2197 -0.0894 -0.2830
24148DOPC   NC330451   6.680   3.610  10.067 -0.1524 -0.0262  0.0218
24148DOPC   PO430452   7.015   3.472  10.205  0.0229 -0.2139  0.1958
24148DOPC   GL130453   7.177   3.384  10.669  0.0045 -0.0367 -0.1224
24148DOPC   GL230454   7.304   3.533  10.494 -0.0657 -0.2220  0.1112
24148DOPC   C1A30455   7.204   3.708  11.028  0.1221  0.2580  0.0554
24148DOPC   D2A30456   7.438   3.619  11.455 -0.0211 -0.1203  0.4341
24148DOPC   C3A30457   7.705   3.193  11.446  0.1197 -0.2702  0.1647
24148DOPC   C4A30458   7.792   2.640  11.427 -0.1032  0.0374 -0.3884
24148DOPC   C1B30459   7.502   3.898  10.666  0.2565 -0.1118 -0.0233
24148DOPC   D2B30460   7.986   4.024  10.750 -0.2065  0.0837 -0.1468
24148DOPC   C3B30461   8.222   3.864  11.017 -0.1700  0.0649 -0.0872
24148DOPC   C4B30462   8.389   3.798  11.506 -0.0137  0.0656  0.0261
24149DOPC   NC330463  16.072   3.851  17.564  0.1782 -0.0421  0.1842
24149DOPC   PO430464  16.290   4.085  17.428 -0.0948  0.0299  0.0174
24149DOPC   GL130465  16.288   4.196  17.840 -0.1562 -0.2092  0.2177
24149DOPC   GL230466  16.476   3.996  17.880  0.0555 -0.0183  0.0223
24149DOPC   C1A30467  16.188   4.371  18.212  0.0165 -0.1060  0.0937
24149DOPC   D2A30468  15.918   4.527  18.595 -0.1501 -0.0829  0.0559
24149DOPC   C3A30469  15.663   4.616  18.984  0.1434 -0.1160  0.1688
24149DOPC   C4A30470  15.390   4.685  19.362  0.0185 -0.1874 -0.0540
24149DOPC   C1B30471  16.229   3.894  18.211 -0.0939  0.1071  0.0574
24149DOPC   D2B30472  16.196   3.696  18.660  0.0624 -0.0845  0.0864
24149DOPC   C3B30473  15.992   3.483  18.981  0.0223 -0.0452 -0.2306
24149DOPC   C4B30474  15.797   3.207  19.421 -0.1451  0.3999 -0.2393
24150DOPC   NC330475  16.680   7.287  17.462 -0.0081  0.0537  0.2323
24150DOPC   PO430476  16.421   6.986  17.378  0.0475 -0.2452  0.0017
24150DOPC   GL130477  16.130   7.285  17.545 -0.2102  0.1825  0.1321
24150DOPC   GL230478  15.938   7.307  17.360 -0.3142 -0.0715 -0.0890
24150DOPC   C1A30479  15.886   7.292  17.882  0.0537 -0.1330 -0.1007
24150DOPC   D2A30480  15.577   7.095  18.250  0.0839  0.1104  0.1114
24150DOPC   C3A30481  15.199   7.228  18.424  0.0267  0.1368 -0.1032
24150DOPC   C4A30482  14.779   7.470  18.569  0.0369 -0.0224 -0.2075
24150DOPC   C1B30483  15.546   7.189  17.511 -0.0212  0.0831 -0.1594
24150DOPC   D2B30484  15.289   6.816  17.607  0.0146  0.0541 -0.1967
24150DOPC   C3B30485  15.042   7.108  17.920  0.1353 -0.1787  0.0251
24150DOPC   C4B30486  15.330   7.454  17.914 -0.0761  0.1994 -0.1074
24151DOPC   NC330487  17.784   5.879  18.372  0.2247  0.0758  0.2353
24151DOPC   PO430488  18.148   5.857  18.453  0.1897 -0.1404 -0.2832
24151DOPC   GL130489  18.341   6.059  18.798  0.1054  0.2313  0.1362
24151DOPC   GL230490  18.454   5.838  18.861  0.3165 -0.1534  0.1653
24151DOPC   C1A30491  18.080   6.152  19.107  0.0977  0.0602  0.0160
24151DOPC   D2A30492  18.076   6.130  19.616 -0.2020 -0.0484 -0.1588
24151DOPC   C3A30493  17.704   5.977  19.834 -0.1377  0.0007 -0.1650
24151DOPC   C4A30494  17.312   5.826  20.083  0.0169 -0.0248 -0.2195
24151DOPC   C1B30495  18.291   5.759  19.290 -0.3286  0.1097  0.1166
24151DOPC   D2B30496  18.184   5.640  19.785  0.3713 -0.1530 -0.0822
24151DOPC   C3B30497  18.222   5.703  20.251 -0.3226  0.2060  0.0203
24151DOPC   C4B30498  18.592   5.506  20.528 -0.1531 -0.3197 -0.0681
24152DOPC   NC330499   0.081   1.340  13.444  0.0923  0.1149 -0.3588
24152DOPC   PO430500   0.352   1.080  13.218 -0.0314  0.0317  0.2880
24152DOPC   GL130501   0.595   1.178  13.555  0.2300  0.0670 -0.2171
24152DOPC   GL230502   0.798   1.264  13.458 -0.1110 -0.0289  0.2008
24152DOPC   C1A30503   0.615   1.326  14.024 -0.0329  0.0193  0.0606
24152DOPC   D2A30504   0.801   1.458  14.436  0.1197  0.1049  0.0131
24152DOPC   C3A30505   1.132   1.172  14.552  0.2318 -0.1130 -0.1235
24152DOPC   C4A30506   1.146   0.792  14.899 -0.2621  0.0060  0.1489
24152DOPC   C1B30507   1.155   1.065  13.545  0.0031  0.1246  0.1623
24152DOPC   D2B30508   1.554   0.943  13.327 -0.2203  0.0786  0.1728
24152DOPC   C3B30509   1.855   0.902  13.637  0.3208  0.1554 -0.0720
24152DOPC   C4B30510   2.202   0.913  13.971 -0.0161 -0.1254  0.0889
24153DOPC   NC330511  22.466   0.431  16.711 -0.0749 -0.2925 -0.0486
24153DOPC   PO430512  22.668   0.171  16.518 -0.0414  0.3589  0.0517
24153DOPC   GL130513  23.000   0.143  16.789 -0.1043 -0.2625  0.1029
24153DOPC   GL230514  23.105   0.396  16.821 -0.0874 -0.0238  0.0193
24153DOPC   C1A30515  23.437   0.116  16.797 -0.2323 -0.0422  0.3036
24153DOPC   D2A30516  23.888   0.211  17.096  0.0713  0.2109 -0.2441
24153DOPC   C3A30517  24.274   0.402  17.224 -0.1295 -0.2186 -0.1826
24153DOPC   C4A30518  24.690   0.595  17.433  0.2177  0.1391  0.1139
24153DOPC   C1B30519  22.883   0.643  17.143  0.1699  0.2898 -0.0418
24153DOPC   D2B30520  22.461   0.793  17.416  0.2735 -0.0810  0.1033
24153DOPC   C3B30521  22.494   0.865  17.885 -0.0866  0.2437  0.1052
24153DOPC   C4B30522  22.647   0.900  18.361  0.1427  0.0350  0.2869
24154DOPC   NC330523   7.231   3.201   9.877 -0.1119  0.0277  0.0502
24154DOPC   PO430524   7.627   3.067   9.779  0.2304  0.0251  0.0714
24154DOPC   GL130525   7.691   2.922  10.117  0.1999  0.2684  0.2310
24154DOPC   GL230526   7.527   3.168  10.244  0.0402  0.4668 -0.0607
24154DOPC   C1A30527   7.857   2.843  10.518 -0.2024  0.2530 -0.0860
24154DOPC   D2A30528   8.131   2.710  10.934  0.5113  0.2543 -0.1359
24154DOPC   C3A30529   8.155   2.962  11.318  0.2197  0.2442  0.1170
24154DOPC   C4A30530   8.087   2.982  11.817  0.0604  0.0777  0.0618
24154DOPC   C1B30531   7.427   3.014  10.578  0.0035  0.0622  0.0587
24154DOPC   D2B30532   7.552   2.659  11.009 -0.2696  0.2147  0.2209
24154DOPC   C3B30533   7.297   2.297  11.191 -0.4130 -0.2972  0.0060
24154DOPC   C4B30534   7.265   1.965  11.468  0.0014 -0.1424  0.2447
24155DOPC   NC330535   3.397   7.014  10.799  0.3638  0.1574 -0.0071
24155DOPC   PO430536   3.223   6.788  11.066  0.0786 -0.3149 -0.0595
24155DOPC   GL130537   3.352   6.619  11.481  0.3269  0.2453  0.0345
24155DOPC   GL230538   3.597   6.445  11.411  0.3624 -0.5732 -0.1990
24155DOPC   C1A30539   3.046   6.640  11.844  0.0093  0.0776 -0.1453
24155DOPC   D2A30540   2.870   6.536  12.280  0.1815  0.0867 -0.0820
24155DOPC   C3A30541   2.587   6.727  12.674  0.0694  0.1662 -0.1559
24155DOPC   C4A30542   2.298   6.779  13.019 -0.0654 -0.0141  0.2247
24155DOPC   C1B30543   3.878   6.224  11.646  0.0276 -0.2878  0.0242
24155DOPC   D2B30544   4.212   6.015  11.943 -0.0491 -0.0922  0.2215
24155DOPC   C3B30545   4.519   6.265  12.258 -0.2425 -0.0458 -0.3523
24155DOPC   C4B30546   4.774   6.395  12.606 -0.1393  0.1396  0.0482
24156DOPC   NC330547  16.707   1.290  17.474  0.2094  0.2350  0.1031
24156DOPC   PO430548  16.690   1.721  17.465 -0.0405  0.2173  0.0219
24156DOPC   GL130549  16.425   1.703  17.813 -0.0128 -0.0986 -0.2414
24156DOPC   GL230550  16.330   1.448  17.744  0.1544  0.1393 -0.1759
24156DOPC   C1A30551  16.074   1.769  17.940 -0.2853  0.1882  0.0146
24156DOPC   D2A30552  15.760   1.782  18.258  0.4846  0.1868 -0.0212
24156DOPC   C3A30553  15.472   1.482  18.482  0.1816 -0.2342  0.0808
24156DOPC   C4A30554  15.061   1.464  18.733 -0.0625 -0.0013 -0.1116
24156DOPC   C1B30555  15.980   1.232  17.917 -0.0248 -0.0176  0.1694
24156DOPC   D2B30556  15.556   1.224  18.039 -0.0392 -0.0487  0.0319
24156DOPC   C3B30557  15.204   1.094  18.353  0.0549  0.1538 -0.3557
24156DOPC   C4B30558  15.071   0.834  18.785  0.0021 -0.1684 -0.4186
24157DOPC   NC330559   9.185   6.366   9.812  0.1006 -0.0859 -0.3309
24157DOPC   PO430560   9.153   6.382  10.240  0.1154 -0.0106 -0.0289
24157DOPC   GL130561   8.921   6.210  10.547  0.1887 -0.0624  0.1654
24157DOPC   GL230562   9.082   5.915  10.439  0.2309 -0.0567 -0.1280
24157DOPC   C1A30563   9.001   6.243  10.967  0.2119 -0.1602 -0.3484
24157DOPC   D2A30564   9.130   6.271  11.471  0.0060 -0.0970 -0.0730
24157DOPC   C3A30565   8.805   6.186  11.798 -0.2336 -0.3027 -0.4057
24157DOPC   C4A30566   8.455   6.154  12.101  0.1810 -0.2369 -0.1666
24157DOPC   C1B30567   9.333   5.897  10.818 -0.0123  0.0502  0.1594
24157DOPC   D2B30568   9.528   6.101  11.187  0.3640 -0.0642  0.0766
24157DOPC   C3B30569   9.607   5.966  11.652  0.0577 -0.0787  0.0057
24157DOPC   C4B30570   9.652   5.688  12.013  0.0388 -0.1278  0.1755
24158DOPC   NC330571  15.070   5.035  15.361 -0.0833 -0.0722 -0.0867
24158DOPC   PO430572  15.266   5.254  15.655 -0.0613 -0.2852 -0.0563
24158DOPC   GL130573  14.916   5.320  15.846  0.1257  0.2922  0.2617
24158DOPC   GL230574  14.965   5.057  16.027 -0.3755  0.0263 -0.1698
24158DOPC   C1A30575  14.802   5.461  16.279  0.0062 -0.1723  0.3128
24158DOPC   D2A30576  14.701   5.517  16.754 -0.0114  0.1117 -0.0637
24158DOPC   C3A30577  14.245   5.483  16.854 -0.1874 -0.2007 -0.0676
24158DOPC   C4A30578  13.809   5.396  17.062  0.0766 -0.0347  0.2437
24158DOPC   C1B30579  14.648   4.995  16.214 -0.0628 -0.4370 -0.0228
24158DOPC   D2B30580  14.248   5.054  16.538  0.0247 -0.1956  0.2333
24158DOPC   C3B30581  14.081   5.023  16.965 -0.3261  0.3057  0.1656
24158DOPC   C4B30582  13.852   4.714  17.276  0.0668 -0.3553 -0.0415
24159DOPC   NC330583   5.657   2.741  10.512 -0.1634  0.1452  0.3214
24159DOPC   PO430584   6.036   2.710  10.374  0.0966 -0.5028  0.1790
24159DOPC   GL130585   6.367   2.477  10.575 -0.0670 -0.6186 -0.0711
24159DOPC   GL230586   6.049   2.360  10.789  0.0946 -0.0014  0.1013
24159DOPC   C1A30587   6.559   2.547  10.992 -0.2208 -0.1005  0.3271
24159DOPC   D2A30588   6.455   2.734  11.420 -0.2289 -0.1496 -0.1637
24159DOPC   C3A30589   6.808   2.926  11.687  0.2578  0.1754 -0.3162
24159DOPC   C4A30590   7.123   2.895  12.087 -0.0540 -0.1548  0.4058
24159DOPC   C1B30591   6.056   2.593  11.131 -0.0832  0.2814  0.0332
24159DOPC   D2B30592   5.987   2.532  11.574 -0.0131  0.3091 -0.4624
24159DOPC   C3B30593   5.667   2.765  11.845  0.1324 -0.0792 -0.1282
24159DOPC   C4B30594   5.304   2.950  11.992  0.3798 -0.0728 -0.4019
24160DOPC   NC330595  24.600   6.723  13.713  0.1066 -0.3374  0.3291
24160DOPC   PO430596  24.977   6.631  13.608 -0.1418 -0.3055 -0.3300
24160DOPC   GL130597  25.276   6.511  13.956 -0.0393 -0.1607  0.3695
24160DOPC   GL230598  25.426   6.392  13.708 -0.0128  0.0283 -0.2718
24160DOPC   C1A30599  25.451   6.385  14.297 -0.0009 -0.1609  0.1926
24160DOPC   D2A30600  25.451   6.645  14.748 -0.1711 -0.0104 -0.0341
24160DOPC   C3A30601  25.747   6.524  15.097 -0.0206  0.0248  0.2299
24160DOPC   C4A30602  26.172   6.371  15.367  0.1142  0.1713  0.2247
24160DOPC   C1B30603  25.812   6.302  13.957 -0.2508 -0.0037  0.1105
24160DOPC   D2B30604  26.262   6.440  14.191 -0.2060 -0.2014  0.0212
24160DOPC   C3B30605  26.633   6.775  14.334  0.1771 -0.0558 -0.0489
24160DOPC   C4B30606  27.127   6.847  14.297 -0.1598  0.1630  0.2412
24161DOPC   NC330607   1.238   5.337  12.950  0.1950 -0.1745 -0.2901
24161DOPC   PO430608   0.870   5.285  13.124 -0.0517 -0.0975 -0.1536
24161DOPC   GL130609   1.115   5.483  13.440 -0.1651  0.0595 -0.0443
24161DOPC   GL230610   1.149   5.204  13.525  0.2165 -0.0710 -0.1938
24161DOPC   C1A30611   1.331   5.650  13.817  0.1164 -0.0559 -0.0580
24161DOPC   D2A30612   1.515   5.805  14.281  0.1137 -0.0072 -0.0712
24161DOPC   C3A30613   1.382   5.666  14.738 -0.1078 -0.1179  0.2353
24161DOPC   C4A30614   1.177   6.021  15.027 -0.0547  0.1845  0.2580
24161DOPC   C1B30615   1.322   5.049  13.885 -0.3477  0.0907 -0.1874
24161DOPC   D2B30616   1.606   4.778  14.156 -0.1529  0.1071  0.0718
24161DOPC   C3B30617   1.966   4.857  14.432  0.1808  0.3297 -0.1399
24161DOPC   C4B30618   2.328   5.032  14.728  0.4735  0.2117  0.1643
24162DOPC   NC330619  20.268   6.038  18.253  0.1822  0.0055 -0.0684
24162DOPC   PO430620  20.128   5.693  18.266  0.0020  0.1624 -0.0143
24162DOPC   GL130621  20.439   5.603  18.531 -0.0822 -0.1337  0.1587
24162DOPC   GL230622  20.431   5.848  18.657  0.1777  0.2096 -0.0535
24162DOPC   C1A30623  20.779   5.378  18.622  0.1390 -0.0683  0.1334
24162DOPC   D2A30624  21.092   5.270  18.870 -0.0768  0.2704  0.0538
24162DOPC   C3A30625  21.509   5.093  18.962  0.0740 -0.0048 -0.0296
24162DOPC   C4A30626  21.939   4.965  18.882  0.0313 -0.0463 -0.1173
24162DOPC   C1B30627  20.503   5.735  19.054  0.1369 -0.2160 -0.1051
24162DOPC   D2B30628  20.453   5.693  19.558  0.3044  0.2380 -0.2549
24162DOPC   C3B30629  20.672   5.481  19.825 -0.0423  0.2618 -0.0364
24162DOPC   C4B30630  20.941   5.193  20.109 -0.1144 -0.2292 -0.2176
24163DOPC   NC330631   9.429   2.026  10.241  0.0046  0.0405  0.1415
24163DOPC   PO430632   9.525   1.991  10.611 -0.2886  0.0072 -0.2046
24163DOPC   GL130633   9.718   2.310  10.867  0.0890 -0.1054 -0.0080
24163DOPC   GL230634   9.809   2.093  11.043 -0.0169  0.1616 -0.1213
24163DOPC   C1A30635   9.383   2.400  11.114  0.0625 -0.1162  0.0669
24163DOPC   D2A30636   8.914   2.545  11.216 -0.0712  0.0737  0.0676
24163DOPC   C3A30637   8.510   2.578  11.397 -0.2402 -0.0219  0.0550
24163DOPC   C4A30638   8.192   2.488  11.741  0.0167 -0.1126  0.0375
24163DOPC   C1B30639   9.701   2.009  11.453  0.1230 -0.0250 -0.0414
24163DOPC   D2B30640   9.465   1.969  11.857 -0.0924  0.1789 -0.1198
24163DOPC   C3B30641   9.428   2.100  12.323 -0.3346 -0.1308 -0.3507
24163DOPC   C4B30642   9.384   2.368  12.790  0.0141 -0.0211 -0.1043
24164DOPC   NC330643  22.080   7.198  16.831  0.1640 -0.2274  0.0255
24164DOPC   PO430644  22.026   6.774  16.941  0.1223 -0.4436 -0.1698
24164DOPC   GL130645  22.268   6.561  17.217 -0.0492 -0.0218  0.0510
24164DOPC   GL230646  22.053   6.442  17.436  0.3573  0.0882 -0.0196
24164DOPC   C1A30647  22.541   6.216  17.299  0.0629 -0.0133  0.2423
24164DOPC   D2A30648  22.651   5.759  17.484  0.0450  0.1293 -0.0929
24164DOPC   C3A30649  22.848   5.446  17.800  0.0550 -0.0857  0.0802
24164DOPC   C4A30650  22.843   5.497  18.346  0.3383 -0.3443  0.0164
24164DOPC   C1B30651  21.968   6.650  17.771 -0.1561 -0.2911 -0.0952
24164DOPC   D2B30652  22.023   6.721  18.287  0.0358 -0.0937  0.0115
24164DOPC   C3B30653  22.216   6.600  18.691 -0.0717  0.0667 -0.0024
24164DOPC   C4B30654  22.592   6.371  18.958 -0.1073  0.1206  0.0926
24165DOPC   NC330655   7.216   5.903  10.544  0.1800 -0.0163 -0.0409
24165DOPC   PO430656   7.423   5.629  10.387  0.0427  0.2373 -0.1057
24165DOPC   GL130657   7.698   5.528  10.641 -0.1663 -0.1598 -0.0014
24165DOPC   GL230658   7.622   5.252  10.669  0.1545  0.1648  0.0169
24165DOPC   C1A30659   7.563   5.651  11.029 -0.0343  0.2263  0.0982
24165DOPC   D2A30660   7.448   5.841  11.457 -0.0652 -0.0419 -0.1840
24165DOPC   C3A30661   7.325   6.039  11.811 -0.1490 -0.3169 -0.0520
24165DOPC   C4A30662   7.225   6.042  12.286  0.1960  0.0395 -0.0635
24165DOPC   C1B30663   7.501   5.159  11.076 -0.0190 -0.2982  0.2870
24165DOPC   D2B30664   7.369   5.014  11.560 -0.0723  0.0943 -0.1286
24165DOPC   C3B30665   7.574   4.978  12.041 -0.1975 -0.2543  0.0408
24165DOPC   C4B30666   7.687   4.913  12.473 -0.2817  0.0308  0.0933
24166DOPC   NC330667  16.493   2.902  17.755  0.1259 -0.2379  0.0955
24166DOPC   PO430668  16.388   2.610  17.471  0.1719  0.2714 -0.1461
24166DOPC   GL130669  16.072   2.532  17.688  0.0185 -0.0855  0.0588
24166DOPC   GL230670  16.156   2.666  17.898 -0.3823  0.0305 -0.0612
24166DOPC   C1A30671  15.685   2.640  17.690  0.1734  0.1564  0.0640
24166DOPC   D2A30672  15.241   2.821  17.585 -0.1765 -0.0805  0.1321
24166DOPC   C3A30673  15.077   3.114  17.917 -0.2990 -0.2066 -0.2768
24166DOPC   C4A30674  14.707   3.280  18.260 -0.1363 -0.3231  0.2975
24166DOPC   C1B30675  15.908   2.649  18.239 -0.0158  0.1560  0.0890
24166DOPC   D2B30676  15.669   3.009  18.551 -0.0185 -0.2060  0.0687
24166DOPC   C3B30677  15.542   3.032  19.032 -0.0897 -0.0335 -0.1949
24166DOPC   C4B30678  15.303   2.675  19.347  0.2758 -0.1021 -0.1359
24167DOPC   NC330679   8.126   4.810   9.995 -0.0901 -0.0495 -0.0570
24167DOPC   PO430680   7.829   4.705  10.219 -0.1021 -0.1350 -0.1757
24167DOPC   GL130681   8.065   4.566  10.531  0.1466 -0.2190  0.2875
24167DOPC   GL230682   7.847   4.404  10.582 -0.2799  0.0959  0.0700
24167DOPC   C1A30683   8.231   4.448  10.920  0.2636 -0.1739  0.1543
24167DOPC   D2A30684   8.057   4.283  11.381  0.1515 -0.4792 -0.0947
24167DOPC   C3A30685   7.852   4.048  11.702  0.2695 -0.3276  0.3080
24167DOPC   C4A30686   7.905   3.560  11.837 -0.2440 -0.0752 -0.0136
24167DOPC   C1B30687   7.668   4.379  10.937 -0.0793 -0.2695  0.0482
24167DOPC   D2B30688   7.574   4.593  11.375  0.1204 -0.1202 -0.2826
24167DOPC   C3B30689   7.790   4.544  11.812 -0.0406  0.2443  0.0079
24167DOPC   C4B30690   7.727   4.453  12.295  0.3278 -0.2871  0.1451
24168DOPC   NC330691  13.668   7.476  13.711  0.0345  0.0569 -0.1040
24168DOPC   PO430692  13.250   7.429  13.672 -0.0314 -0.4025 -0.1410
24168DOPC   GL130693  12.952   7.371  13.978 -0.1944  0.0077  0.0102
24168DOPC   GL230694  12.765   7.243  13.803 -0.0862 -0.2001  0.0188
24168DOPC   C1A30695  12.763   7.529  14.328 -0.0090 -0.0622 -0.2573
24168DOPC   D2A30696  12.387   7.668  14.644  0.0822 -0.0710 -0.0093
24168DOPC   C3A30697  12.474   8.039  14.948  0.0230  0.1195  0.3416
24168DOPC   C4A30698  12.516   8.451  14.694 -0.0270 -0.1925 -0.1604
24168DOPC   C1B30699  12.406   7.272  14.096 -0.1331 -0.1478 -0.0088
24168DOPC   D2B30700  12.014   7.516  14.344  0.1285 -0.0848  0.1189
24168DOPC   C3B30701  11.706   7.249  14.593 -0.0956 -0.3201  0.1468
24168DOPC   C4B30702  11.210   7.205  14.702  0.0452  0.1675  0.3935
24169DOPC   NC330703  21.896   6.070  16.636 -0.3351  0.0554  0.2974
24169DOPC   PO430704  21.871   6.215  17.015 -0.1919  0.2429  0.0465
24169DOPC   GL130705  22.161   5.965  17.152 -0.3473 -0.1470 -0.5836
24169DOPC   GL230706  22.265   5.905  16.925  0.0874 -0.1679 -0.0011
24169DOPC   C1A30707  22.161   5.752  17.584 -0.0302  0.0672  0.0628
24169DOPC   D2A30708  22.233   5.445  18.009  0.0308  0.3394 -0.0268
24169DOPC   C3A30709  22.508   5.182  18.335  0.2890  0.1018 -0.2046
24169DOPC   C4A30710  22.810   5.075  18.723  0.0296 -0.0678 -0.1285
24169DOPC   C1B30711  22.663   5.941  16.968  0.1215  0.2723 -0.1430
24169DOPC   D2B30712  23.075   5.814  17.191 -0.0983  0.0141 -0.2461
24169DOPC   C3B30713  23.164   5.819  17.617  0.3791 -0.2572 -0.1412
24169DOPC   C4B30714  23.286   5.646  18.096 -0.0391  0.0429 -0.2937
24170DOPC   NC330715  20.684   7.228  17.210 -0.0551 -0.0803  0.2337
24170DOPC   PO430716  20.627   7.029  17.578 -0.1187  0.0450  0.1192
24170DOPC   GL130717  20.522   7.068  18.039 -0.0066 -0.1329  0.5682
24170DOPC   GL230718  20.685   6.848  18.008  0.0390 -0.1369  0.2085
24170DOPC   C1A30719  20.764   7.248  18.433  0.0380 -0.1445  0.2110
24170DOPC   D2A30720  20.972   7.598  18.734  0.3451  0.0862  0.1076
24170DOPC   C3A30721  21.295   7.789  19.031  0.0218 -0.1329 -0.1576
24170DOPC   C4A30722  21.580   7.756  19.450  0.1882 -0.0510  0.0049
24170DOPC   C1B30723  21.054   6.790  18.225  0.0040  0.0010  0.0102
24170DOPC   D2B30724  21.472   7.056  18.438 -0.0494  0.1679 -0.1065
24170DOPC   C3B30725  21.826   6.943  18.691 -0.0450  0.3721  0.1803
24170DOPC   C4B30726  22.078   6.882  19.130 -0.3233  0.0320 -0.0737
24171DOPC   NC330727  22.482   3.686  16.738 -0.1501 -0.0606  0.0399
24171DOPC   PO430728  22.211   3.577  17.034 -0.0179  0.0027 -0.0374
24171DOPC   GL130729  22.441   3.425  17.389 -0.1011 -0.0649 -0.1967
24171DOPC   GL230730  22.193   3.284  17.482  0.0851 -0.0070 -0.2038
24171DOPC   C1A30731  22.634   3.380  17.770  0.1711  0.1182 -0.3076
24171DOPC   D2A30732  22.910   3.267  18.168  0.1156  0.3523  0.0720
24171DOPC   C3A30733  23.140   3.344  18.537  0.0374  0.2558 -0.1273
24171DOPC   C4A30734  23.558   3.412  18.676 -0.0532 -0.1716  0.3250
24171DOPC   C1B30735  22.117   3.284  17.941 -0.0301  0.1183 -0.2117
24171DOPC   D2B30736  22.179   3.434  18.396  0.1159 -0.0942  0.0214
24171DOPC   C3B30737  22.576   3.403  18.693 -0.2295 -0.1369  0.1208
24171DOPC   C4B30738  22.932   3.284  18.994 -0.1828  0.0859 -0.1089
24172DOPC   NC330739   1.242   2.892  12.325 -0.1279  0.0680 -0.0734
24172DOPC   PO430740   1.423   2.526  12.378  0.2694 -0.0665  0.1019
24172DOPC   GL130741   1.801   2.432  12.472 -0.0280  0.0227  0.2004
24172DOPC   GL230742   1.677   2.373  12.779  0.0974 -0.3503  0.1119
24172DOPC   C1A30743   2.329   2.459  12.491  0.2880 -0.0085 -0.1333
24172DOPC   D2A30744   2.838   2.397  12.448  0.0247  0.0913  0.1694
24172DOPC   C3A30745   3.168   2.673  12.657 -0.1277 -0.0223 -0.0517
24172DOPC   C4A30746   3.303   2.959  13.092 -0.2332  0.1874 -0.3946
24172DOPC   C1B30747   2.039   2.176  12.936  0.1650  0.4228  0.3182
24172DOPC   D2B30748   2.475   2.043  13.188  0.1746  0.1221 -0.1943
24172DOPC   C3B30749   2.386   1.813  13.608 -0.2876 -0.0881 -0.0732
24172DOPC   C4B30750   2.565   1.741  14.058  0.0316 -0.1857 -0.1650
24173DOPC   NC330751  22.975   2.198  15.523 -0.0503  0.0142 -0.2069
24173DOPC   PO430752  23.351   2.376  15.524 -0.1783 -0.0191  0.0738
24173DOPC   GL130753  23.528   2.447  15.957 -0.2816 -0.0823  0.1712
24173DOPC   GL230754  23.760   2.553  15.839 -0.2016 -0.4724  0.3501
24173DOPC   C1A30755  23.572   2.180  16.313 -0.1678  0.0684  0.2543
24173DOPC   D2A30756  23.645   1.885  16.640  0.2631  0.4423  0.0994
24173DOPC   C3A30757  23.879   2.021  16.968 -0.0229 -0.0550  0.0694
24173DOPC   C4A30758  24.249   2.366  17.132  0.2380 -0.0404 -0.2107
24173DOPC   C1B30759  24.070   2.349  15.981 -0.1547 -0.0900 -0.1430
24173DOPC   D2B30760  24.547   2.308  16.133 -0.1222 -0.0212 -0.0945
24173DOPC   C3B30761  24.902   2.262  16.504  0.1371 -0.0875  0.0485
24173DOPC   C4B30762  25.352   2.133  16.635 -0.1085 -0.2128  0.2450
24174DOPC   NC330763   3.164   2.418  10.918 -0.4018  0.0814  0.1585
24174DOPC   PO430764   3.023   2.330  11.310 -0.1096  0.0394  0.1543
24174DOPC   GL130765   3.106   1.953  11.621 -0.2248 -0.1503  0.0856
24174DOPC   GL230766   3.318   1.988  11.378  0.1180 -0.0812 -0.1891
24174DOPC   C1A30767   3.132   2.081  12.059  0.3095  0.0786  0.3667
24174DOPC   D2A30768   3.273   2.179  12.547 -0.0726  0.1123  0.0034
24174DOPC   C3A30769   3.708   2.041  12.664 -0.1306 -0.2394 -0.1910
24174DOPC   C4A30770   4.164   1.845  12.764  0.0043  0.1455  0.3331
24174DOPC   C1B30771   3.581   2.167  11.646  0.0583  0.0269  0.0323
24174DOPC   D2B30772   3.688   2.617  11.895  0.2879 -0.1433 -0.1228
24174DOPC   C3B30773   4.073   2.677  12.162  0.1090  0.1141 -0.0454
24174DOPC   C4B30774   4.500   2.607  12.364  0.1882 -0.2007  0.1766
24175W        W30775  18.535   6.245  14.238 -0.1130  0.2143  0.0766
24176W        W30776   3.772   0.974   9.538  0.1304 -0.0586 -0.3069
24177W        W30777   7.398   0.656  27.752  0.0507  0.0536 -0.2430
24178W        W30778   2.923   7.826  18.933  0.4184  0.1570  0.3926
24179W        W30779   5.742   7.093  24.486  0.0209  0.0482  0.0662
24180W        W30780   2.611   2.251  26.603  0.2001  0.2425 -0.2347
24181W        W30781  19.298   7.362   9.075 -0.2195 -0.0880  0.4125
24182W        W30782   9.296   7.631  31.504 -0.0024  0.0393 -0.2658
24183W        W30783  21.662   1.547   4.343 -0.1751  0.1077 -0.0008
24184W        W30784   0.864   6.759  26.804  0.0286 -0.2790 -0.2279
24185W        W30785  11.529   4.974  30.455  0.1311 -0.0883  0.0300
24186W        W30786   2.547   3.057  24.104  0.0781  0.0514  0.2886
24187W        W30787  18.108   3.977  31.182 -0.3436 -0.2452  0.3387
24188W        W30788   2.834   5.818  11.122  0.1938  0.1994 -0.0040
24189W        W30789  16.581   6.294  32.175  0.1486  0.2846 -0.0719
24190W        W30790  10.219   1.305  29.314  0.0886 -0.0378  0.2054
24191W        W30791   3.148   2.776  11.523  0.1013 -0.3333  0.2097
24192W        W30792  18.087   5.691  31.871  0.0871 -0.1325 -0.1809
24193W        W30793   3.353   4.272  24.867 -0.2387 -0.2127  0.1129
24194W        W30794   4.192   0.554  23.428 -0.0646 -0.0074 -0.0391
24195W        W30795  20.839   6.209  23.664  0.3024  0.0267 -0.1659
24196W        W30796   3.276   6.747  31.640  0.1127  0.0467  0.1902
24197W        W30797  17.953   0.869   2.386 -0.0224 -0.0306  0.1453
24198W        W30798  24.513   7.691   9.738  0.0143 -0.3556  0.2549
24199W        W30799  14.525   5.645  26.894  0.0508 -0.1472 -0.1410
24200W        W30800  19.018   2.198   5.620  0.0792 -0.0997  0.3577
24201W        W30801  11.805   3.059  10.993  0.3128 -0.1382  0.0120
24202W        W30802  10.076   1.439   7.184 -0.1813  0.0407 -0.1474
24203W        W30803  23.527   1.508  25.550  0.0410  0.3376 -0.1557
24204W        W30804   8.414   3.027   6.841 -0.2504 -0.2860 -0.3768
24205W        W30805  24.570   7.201  10.335  0.2147  0.0677  0.2267
24206W        W30806   7.203   7.052   2.033 -0.1011 -0.0392  0.1905
24207W        W30807  11.154   3.229   3.926  0.0436 -0.0770  0.0045
24208W        W30808  19.015   3.516  28.053 -0.3791  0.1285 -0.1666
24209W        W30809  16.356   1.480  23.542 -0.2807  0.0167  0.0508
24210W        W30810   1.676   1.663  27.204 -0.0773  0.0472  0.2656
24211W        W30811  22.378   2.914   1.454  0.1708  0.0289  0.0116
24212W        W30812   8.799   6.304  16.514 -0.0195  0.0889 -0.2845
24213W        W30813   9.176   0.083  26.279 -0.2182 -0.1580 -0.1434
24214W        W30814   9.592   3.982   9.664  0.0144  0.0947 -0.2094
24215W        W30815  23.369   0.124  15.116 -0.3668  0.0101 -0.2402
24216W        W30816   2.096   4.874  29.780  0.0911  0.2336 -0.0698
24217W        W30817  21.121   5.046  11.328  0.0376  0.1332  0.1459
24218W        W30818  18.219   7.203  27.749 -0.0328  0.0624 -0.2749
24219W        W30819   6.470   0.250  22.225  0.2167 -0.1218  0.3050
24220W        W30820  24.055   1.377  15.074  0.2675 -0.0621  0.1330
24221W        W30821  16.991   1.693  28.421 -0.0082  0.1413  0.0920
24222W        W30822   4.232   3.022   4.819 -0.1239  0.1435 -0.0173
24223W        W30823   8.847   1.955  18.145 -0.1464  0.1428 -0.1844
24224W        W30824   3.043   1.061   2.483  0.2197 -0.1998  0.0418
24225W        W30825  10.169   1.695  17.139 -0.0459 -0.3612  0.0162
24226W        W30826  20.746   3.370  24.463 -0.1624 -0.0752 -0.0410
24227W        W30827  22.121   4.597  25.811  0.1727  0.1031  0.0849
24228W        W30828   2.519   7.442   8.279 -0.1802  0.0157 -0.3898
24229W        W30829   2.443   1.356   8.453  0.2580 -0.2006 -0.1408
24230W        W30830   5.613   4.945  15.198  0.4736  0.1570 -0.1967
24231W        W30831  19.672   0.032  29.247  0.0589 -0.1289 -0.1388
24232W        W30832   8.767   3.602  20.814 -0.3714 -0.2799 -0.0287
24233W        W30833   8.267   0.241  27.716  0.1372 -0.0989 -0.1906
24234W        W30834  24.317   4.427  30.339 -0.0910 -0.3490  0.0829
24235W        W30835   9.083   2.889  29.654  0.4320 -0.0130 -0.2506
24236W        W30836  15.373   3.982   8.323  0.0903 -0.2133 -0.0139
24237W        W30837  19.021   0.333  26.983 -0.1173 -0.1443 -0.1276
24238W        W30838   0.508   1.585  13.265 -0.1327 -0.0314  0.2286
24239W        W30839   4.528   0.871  27.745 -0.1460 -0.0679 -0.0038
24240W        W30840   7.289   7.229  16.765 -0.0644  0.2734 -0.1309
24241W        W30841  13.390   6.773  20.258 -0.0713 -0.0202  0.1961
24242W        W30842  11.427   3.558   4.183  0.4020 -0.0782 -0.0285
24243W        W30843  15.545   5.206  22.462  0.0565 -0.1384  0.3779
24244W        W30844  20.314   0.938  17.624 -0.0099 -0.1495 -0.1758
24245W        W30845   3.178   3.306  32.383 -0.2965  0.0452  0.0551
24246W        W30846   5.432   0.191  27.821 -0.2238 -0.0179  0.0443
24247W        W30847  22.592   0.262  12.166  0.0032  0.0373 -0.0973
24248W        W30848  24.692   2.876  23.391  0.0005  0.1538  0.1420
24249W        W30849   1.990   6.939  18.186 -0.0383  0.0076 -0.1167
24250W        W30850   6.528   1.174   6.988 -0.2525  0.0286 -0.1893
24251W        W30851  17.768   5.946   1.800 -0.0593  0.0309  0.1503
24252W        W30852   2.521   6.983  23.413  0.2423 -0.1803 -0.2875
24253W        W30853  18.192   3.121  26.845 -0.1011 -0.3213 -0.0821
24254W        W30854  21.520   0.330  23.103  0.0431 -0.0221  0.1254
24255W        W30855  19.964   4.567  26.544 -0.2240 -0.0548 -0.0658
24256W        W30856  21.928   0.288  26.881 -0.1545  0.0497  0.0135
24257W        W30857   1.752   1.020  19.379 -0.1917 -0.0912  0.2268
24258W        W30858   5.866   2.579  21.199  0.1318 -0.1041 -0.2821
24259W        W30859  18.355   0.969  15.878  0.0762  0.0603  0.1333
24260W        W30860  15.928   5.039   5.219 -0.0512 -0.2604  0.2591
24261W        W30861  13.674   0.259  12.845  0.1378 -0.1842  0.1242
24262W        W30862  17.719   1.139  10.257  0.1572 -0.3610  0.0701
24263W        W30863  15.633   5.596   6.253  0.1890  0.0413  0.0995
24264W        W30864  17.627   3.019  32.524 -0.0766  0.2997  0.1101
24265W        W30865  20.481   4.272   1.846 -0.0188 -0.3855  0.0943
24266W        W30866  23.813   3.908  23.563  0.1828 -0.2014  0.0177
24267W        W30867  10.581   5.481  21.820 -0.0408 -0.0179  0.1563
24268W        W30868  13.003   5.009   1.615  0.0928  0.2615 -0.0456
24269W        W30869  23.092   3.593  28.171  0.2993  0.0496 -0.1125
24270W        W30870   0.124   3.567  22.378  0.0133 -0.0943  0.1653
24271W        W30871  15.809   3.762  30.575 -0.1663  0.2432 -0.1803
24272W        W30872  11.246   3.090   0.134 -0.0740 -0.2560 -0.1128
24273W        W30873  10.313   1.739   5.247  0.0310 -0.0265  0.2733
24274W        W30874   1.812   7.025   6.121  0.3030 -0.0726  0.2631
24275W        W30875  16.168   4.354   5.492 -0.2320  0.0181 -0.0939
24276W        W30876  20.787   5.557   7.558 -0.5264  0.5025 -0.0564
24277W        W30877   8.134   6.534  14.387  0.2408 -0.1475 -0.2378
24278W        W30878  20.355   6.584   4.462 -0.0355  0.0248 -0.1943
24279W        W30879   7.420   1.879  23.004  0.2368 -0.2580 -0.2356
24280W        W30880  16.071   3.652   2.478  0.1142  0.2891  0.0158
24281W        W30881   1.683   5.985  29.310 -0.2636 -0.0357  0.1256
24282W        W30882   2.237   6.214  11.436  0.1709 -0.2237  0.1304
24283W        W30883   2.590   4.656  22.490  0.1657  0.0567 -0.1664
24284W        W30884   2.313   4.517  20.054 -0.3875 -0.0999 -0.0769
24285W        W30885   2.692   0.106  28.228 -0.0686 -0.1085  0.0619
24286W        W30886   6.635   2.759  23.841  0.0333  0.1594  0.0036
24287W        W30887   8.031   1.946  10.016 -0.0716  0.1165  0.0498
24288W        W30888   8.789   1.496  29.260 -0.0994  0.0569  0.1140
24289W        W30889   0.082   7.083  11.849  0.0386  0.3880 -0.1776
24290W        W30890  22.692   2.428   1.870 -0.0802 -0.0018 -0.2705
24291W        W30891  17.750   2.963  26.233  0.1906 -0.2103 -0.1584
24292W        W30892  22.023   1.688  32.142  0.3883  0.0614 -0.3835
24293W        W30893   7.782   5.679  22.244 -0.1722  0.1958  0.0771
24294W        W30894   6.706   1.400  16.987  0.1360  0.0509 -0.1626
24295W        W30895  10.032   2.233   5.149 -0.2341 -0.0566  0.0237
24296W        W30896  24.895   2.405  27.619 -0.2420  0.0315 -0.3260
24297W        W30897  23.008   4.099  10.308 -0.1515  0.0110  0.1644
24298W        W30898  23.309   7.716   1.081 -0.1476 -0.0707  0.0252
24299W        W30899  19.384   6.003  25.568 -0.1908  0.0305 -0.3084
24300W        W30900  21.414   7.018  30.122 -0.0693 -0.0329  0.0269
24301W        W30901  24.531   2.355   8.071  0.2216  0.3805 -0.0262
24302W        W30902  22.670   4.600  26.096  0.4553  0.0715  0.0955
24303W        W30903  13.802   3.585  11.747  0.1631 -0.1078 -0.2469
24304W        W30904  20.740   2.916  23.726  0.0703 -0.0201 -0.0944
24305W        W30905   5.982   2.327  25.807  0.1783 -0.3756  0.0851
24306W        W30906  19.996   0.862  25.927 -0.0980 -0.1105 -0.0944
24307W        W30907  13.571   3.393   3.751 -0.0369  0.0273  0.1245
24308W        W30908  12.860   4.177  19.938 -0.1707  0.2722  0.1352
24309W        W30909   0.043   0.308  25.088  0.2369  0.0912 -0.0623
24310W        W30910  23.073   6.815  24.250  0.0147 -0.3848 -0.1141
24311W        W30911  22.215   2.473  11.001 -0.0509  0.0233  0.0658
24312W        W30912  13.463   0.064  13.489 -0.0748 -0.0032 -0.1953
24313W        W30913   5.804   2.969   1.317 -0.2731  0.2014 -0.1744
24314W        W30914   7.185   5.205  10.643  0.1005 -0.5003  0.1466
24315W        W30915   4.615   2.706   7.688 -0.2582  0.3062 -0.0956
24316W        W30916  23.592   6.207   8.901  0.0608  0.0453  0.1078
24317W        W30917  12.785   3.466  10.535 -0.2219  0.2823  0.2111
24318W        W30918   1.846   6.749  24.667 -0.1768  0.1167  0.2939
24319W        W30919  10.940   5.311  22.737 -0.1662  0.0595  0.1871
24320W        W30920   7.579   3.711  16.889  0.0115 -0.2116 -0.0851
24321W        W30921  16.033   0.714  22.284 -0.0804 -0.3191  0.1638
24322W        W30922  22.861   7.180  11.974 -0.1356 -0.2164 -0.0246
24323W        W30923  21.405   1.292  11.288  0.0532 -0.1424  0.3651
24324W        W30924  10.498   5.531  29.614 -0.0735  0.1109 -0.2498
24325W        W30925   7.626   3.510   3.072  0.3714  0.0638 -0.0929
24326W        W30926   8.991   1.944  31.400  0.2182  0.1815  0.0245
24327W        W30927   8.285   3.795  20.885  0.0913 -0.0055  0.1134
24328W        W30928  10.484   6.821  28.746 -0.5544 -0.1578 -0.2689
24329W        W30929   7.549   5.924  18.103 -0.1060  0.3983  0.0050
24330W        W30930  24.726   6.238   2.944  0.1690 -0.1731 -0.0211
24331W        W30931  10.151   7.427  10.449 -0.0670  0.2729 -0.3106
24332W        W30932  15.862   0.491  15.334 -0.0339  0.1312  0.1483
24333W        W30933  12.921   4.634   6.741  0.3380 -0.3543  0.1822
24334W        W30934   5.006   1.999  28.766 -0.1641 -0.0408  0.1463
24335W        W30935   2.615   3.023  25.567  0.1228  0.0062  0.0757
24336W        W30936  13.694   0.894  24.852 -0.1390 -0.2531  0.1005
24337W        W30937  10.099   2.248   9.380 -0.1913  0.0063 -0.2565
24338W        W30938  20.156   0.674   0.252  0.0731 -0.2118  0.3021
24339W        W30939  17.400   6.624  29.117  0.4046 -0.1134 -0.2432
24340W        W30940   5.260   7.434  28.478  0.0157  0.0323  0.1195
24341W        W30941  19.513   2.786  10.757  0.0378  0.0084  0.0493
24342W        W30942  21.133   1.054   2.597 -0.0062  0.1408 -0.0928
24343W        W30943   8.649   7.761   8.867  0.2714  0.1700 -0.1236
24344W        W30944  13.358   4.897  19.259 -0.2679  0.3440 -0.0637
24345W        W30945  21.757   3.236   4.625 -0.0461  0.3486  0.1120
24346W        W30946  15.548   4.318  11.454  0.0792  0.0443  0.1784
24347W        W30947  18.816   4.655  30.649 -0.3222 -0.2897 -0.2158
24348W        W30948  13.525   5.892  30.645  0.4345 -0.0698  0.1530
24349W        W30949  15.096   1.787  13.799  0.0726 -0.3306  0.0646
24350W        W30950  14.110   5.074  24.654 -0.1096 -0.4273  0.3431
24351W        W30951   4.573   0.761  31.388 -0.0102  0.0020  0.0948
24352W        W30952  20.993   4.122  12.700 -0.0954  0.1157 -0.0275
24353W        W30953   3.632   6.163   3.646  0.1291 -0.1768  0.0161
24354W        W30954   2.147   7.644   5.436 -0.0342 -0.0068 -0.2552
24355W        W30955  22.458   0.811  28.700 -0.1456  0.0202 -0.0150
24356W        W30956  11.225   4.024   6.472  0.2849 -0.0195  0.1052
24357W        W30957  12.257   3.676  17.837  0.0688  0.1085 -0.3028
24358W        W30958   6.640   7.473   6.239 -0.0439 -0.1096  0.2500
24359W        W30959   0.838   5.251   2.864 -0.1245 -0.0699 -0.2236
24360W        W30960  10.073   0.527   4.856  0.0178  0.2470 -0.0211
24361W        W30961   7.889   1.890   6.587  0.0092  0.0235  0.1761
24362W        W30962  18.699   5.809  25.189  0.3016  0.1551 -0.1203
24363W        W30963   0.569   5.811   0.913  0.0428  0.0893 -0.1107
24364W        W30964  13.395   3.220   5.539 -0.0266 -0.0375 -0.0232
24365W        W30965  18.581   2.704   3.019  0.1167  0.0041  0.1383
24366W        W30966   5.630   3.687  28.230  0.0802  0.1246 -0.3812
24367W        W30967   8.166   6.481   8.396  0.0444 -0.0310  0.1494
24368W        W30968  18.400   0.999   0.720 -0.1951 -0.0015 -0.2439
24369W        W30969  14.590   0.911  28.562  0.0393 -0.1859  0.0972
24370W        W30970  19.302   5.102  10.039 -0.1032  0.3077 -0.0167
24371W        W30971   3.464   2.327  22.776 -0.1540 -0.1697  0.0321
24372W        W30972   4.897   0.645   4.397  0.1143  0.0404  0.0229
24373W        W30973   3.735   5.893   7.090 -0.2074  0.1088 -0.1736
24374W        W30974   0.843   0.237  30.383  0.1844 -0.1892  0.2118
24375W        W30975  20.205   7.352   9.266 -0.0657  0.2856 -0.4698
24376W        W30976  20.515   3.834  15.912  0.2417  0.2432  0.0244
24377W        W30977  18.593   5.171  11.159  0.1254 -0.1532 -0.0339
24378W        W30978  15.573   6.321  14.425  0.1449 -0.0146  0.2016
24379W        W30979   7.321   4.675   9.435  0.1199 -0.0475 -0.0373
24380W        W30980   3.606   2.959   3.607 -0.0262  0.2616  0.2142
24381W        W30981  11.179   3.329   0.616  0.0886  0.1462 -0.0408
24382W        W30982  15.420   2.584   0.148  0.0416  0.0440  0.3896
24383W        W30983  13.985   2.332   5.281  0.0370  0.0507 -0.1601
24384W        W30984  12.277   2.232  30.242  0.0673  0.2236 -0.0172
24385W        W30985   1.112   3.325   4.093 -0.2567 -0.0441  0.0352
24386W        W30986   2.944   2.607  28.734  0.0699 -0.2047  0.4615
24387W        W30987  10.241   1.154   2.170  0.2647 -0.2222 -0.0048
24388W        W30988  19.486   6.687   1.150 -0.0391 -0.0303 -0.1445
24389W        W30989   5.112   5.886  26.778 -0.3316  0.2830  0.0967
24390W        W30990  21.675   1.380  13.805 -0.0469 -0.0580  0.1927
24391W        W30991  17.941   4.138  26.880 -0.1154 -0.0656 -0.0805
24392W        W30992  24.704   6.293  26.860  0.2035  0.2662 -0.0016
24393W        W30993  11.509   1.883  25.801  0.0318  0.2771 -0.2205
24394W        W30994  24.982   4.062  13.732  0.2831  0.3968 -0.0476
24395W        W30995   0.259   0.477  22.173  0.2039 -0.1147  0.0291
24396W        W30996   2.872   7.573  17.379 -0.1453 -0.0228  0.0931
24397W        W30997   6.872   5.573  27.531  0.0644  0.0862  0.2064
24398W        W30998  20.900   6.173   3.665 -0.0892  0.3327 -0.0347
24399W        W30999   4.655   5.950  10.386 -0.1307 -0.2978 -0.0412
24400W        W31000   3.977   5.569  31.772 -0.0227  0.1470 -0.3593
24401W        W31001  13.244   3.229  11.290 -0.0516 -0.2412  0.1027
24402W        W31002   9.794   3.094  31.237 -0.2552  0.0777 -0.1550
24403W        W31003  20.918   5.426  24.828  0.1254 -0.2600  0.0410
24404W        W31004  24.201   4.615  28.301  0.0166  0.1565  0.3565
24405W        W31005   4.926   5.473   3.875 -0.2456 -0.0718 -0.1588
24406W        W31006   2.975   0.987  23.888 -0.0656 -0.1371 -0.2005
24407W        W31007   8.375   6.385  21.137 -0.0835  0.2177  0.2350
24408W        W31008  16.113   6.049  13.596 -0.1513  0.2248  0.1010
24409W        W31009   3.304   6.767   5.466  0.2084  0.0772 -0.0381
24410W        W31010  13.169   4.228   2.231 -0.3402  0.2957 -0.3532
24411W        W31011   8.256   6.835  23.535 -0.1896  0.2894  0.1175
24412W        W31012  14.114   1.671   4.525 -0.0449  0.0046 -0.2768
24413W        W31013   6.373   3.765   7.602 -0.3010  0.2513  0.0208
24414W        W31014   7.612   0.183  25.877  0.1664  0.0524 -0.1497
24415W        W31015  23.186   6.567  23.303 -0.1711  0.0513 -0.0942
24416W        W31016  21.119   5.037  26.923  0.1193 -0.0934  0.1061
24417W        W31017  17.482   0.371  27.221 -0.1533 -0.2164  0.1011
24418W        W31018  19.113   4.409  26.922  0.1863 -0.1070 -0.1297
24419W        W31019  12.273   4.577  19.127 -0.2524 -0.2284  0.0438
24420W        W31020   6.834   3.119   6.487  0.0269  0.1977  0.0902
24421W        W31021  23.092   1.338  26.199 -0.0259 -0.1893  0.3278
24422W        W31022  15.858   3.919  10.621 -0.2352 -0.1674  0.1539
24423W        W31023   9.582   7.632  32.010  0.0331  0.1918  0.1859
24424W        W31024  20.869   6.490   5.183 -0.0400  0.2694 -0.2116
24425W        W31025  23.317   4.467   0.136  0.0347  0.1696 -0.1794
24426W        W31026  15.594   3.338  24.223  0.0798  0.0220  0.0070
24427W        W31027  10.939   6.385  25.518  0.3747 -0.0651  0.0414
24428W        W31028   7.723   5.477   6.477 -0.3144 -0.0662 -0.0071
24429W        W31029  21.039   3.502  29.053 -0.2601  0.0535 -0.0307
24430W        W31030  18.892   1.563   4.301  0.2022 -0.1376  0.0289
24431W        W31031   6.807   6.586   1.697 -0.1502 -0.0767 -0.1597
24432W        W31032  18.165   4.884   0.320 -0.0641 -0.1903  0.1250
24433W        W31033  20.373   0.932  32.429 -0.3354 -0.0652 -0.2778
24434W        W31034  19.373   2.304  18.055  0.1429 -0.3190  0.0218
24435W        W31035  11.972   0.745  21.007  0.0583 -0.2772  0.1185
24436W        W31036   8.106   5.264  18.590  0.2003  0.1348 -0.1433
24437W        W31037  18.160   4.193  16.874 -0.1300 -0.4132 -0.0629
24438W        W31038  24.681   1.876  31.690  0.2514  0.1366  0.2721
24439W        W31039  19.945   0.473  14.905  0.0254 -0.1264 -0.2694
24440W        W31040  22.570   3.998  10.056 -0.1344  0.0492  0.3271
24441W        W31041  13.575   6.710   2.405 -0.3368 -0.0082 -0.0381
24442W        W31042   1.740   4.959  17.414 -0.4366 -0.0786  0.1555
24443W        W31043   9.406   1.044  30.897 -0.2236  0.1175 -0.2653
24444W        W31044  18.333   5.590  29.592  0.0077 -0.0514 -0.3334
24445W        W31045  14.225   2.328   1.184 -0.1241  0.1399 -0.1079
24446W        W31046   6.564   2.195  26.573  0.1288  0.3331  0.0382
24447W        W31047   9.016   0.024   0.126  0.0975  0.2095 -0.0739
24448W        W31048   2.434   4.754   0.859  0.0530  0.1073  0.1036
24449W        W31049  23.966   5.490  26.709  0.0587 -0.4131  0.0136
24450W        W31050  22.983   3.402  28.966 -0.0189 -0.3811 -0.0634
24451W        W31051  11.939   5.500   1.266  0.0956  0.2645 -0.1631
24452W        W31052   7.021   4.217   0.961  0.1568  0.1990  0.1376
24453W        W31053  23.621   7.186   3.670 -0.3122 -0.2100  0.0206
24454W        W31054  19.907   2.062   2.591 -0.2658  0.0592  0.1867
24455W        W31055  25.027   2.284  13.298 -0.0410 -0.2054 -0.1050
24456W        W31056  10.047   7.812  23.211 -0.0927  0.0039  0.0282
24457W        W31057  15.920   7.459   9.049 -0.2882  0.1498  0.2328
24458W        W31058  17.035   0.006  31.459 -0.0520  0.3798 -0.1372
24459W        W31059  22.245   0.835  23.860 -0.2563 -0.3139  0.1793
24460W        W31060  14.961   4.892   3.068  0.2406  0.1335  0.1196
24461W        W31061  15.084   3.683  25.194  0.1157  0.0636 -0.1572
24462W        W31062  18.031   7.475  15.677 -0.0248  0.0995 -0.2929
24463W        W31063  22.227   0.592   7.779  0.0347 -0.2340 -0.5890
24464W        W31064  24.476   3.258  13.676 -0.2194  0.1193  0.0381
24465W        W31065  17.994   1.651  15.459  0.0036  0.1605  0.0472
24466W        W31066  11.447   2.468  30.453 -0.1681 -0.0871 -0.3259
24467W        W31067  12.547   3.961  23.991 -0.2965  0.0175  0.3040
24468W        W31068   3.929   6.233  29.642 -0.0479 -0.0429 -0.0418
24469W        W31069  22.664   4.859  14.265 -0.0476  0.3286  0.1972
24470W        W31070  12.721   3.220  12.010 -0.2277  0.2726 -0.1041
24471W        W31071   6.714   7.860   2.135 -0.1859 -0.2398  0.0667
24472W        W31072   4.979   2.685  31.008 -0.0298 -0.2292  0.0174
24473W        W31073  24.524   1.066   9.755  0.2373 -0.0338 -0.1065
24474W        W31074   0.349   5.977   0.145 -0.0659 -0.0219  0.2629
24475W        W31075  24.592   2.701   3.856  0.2566  0.2111 -0.4331
24476W        W31076  17.656   4.563  16.299  0.1627 -0.0269  0.1450
24477W        W31077  11.701   6.228   8.396  0.0218  0.1806  0.2484
24478W        W31078  17.954   5.161   1.446  0.1461 -0.1642 -0.0827
24479W        W31079  13.136   3.018   0.753  0.0233 -0.3525  0.2694
24480W        W31080   7.241   4.221  29.439  0.1496  0.0790 -0.2420
24481W        W31081  16.188   6.680  26.565 -0.2057  0.1011  0.3719
24482W        W31082  11.663   1.869   8.561  0.2862  0.2523  0.0405
24483W        W31083   9.495   2.904   0.671 -0.0524  0.0703  0.3036
24484W        W31084   7.081   3.044   5.375 -0.2415 -0.2139  0.0968
24485W        W31085   0.595   3.174   8.688  0.0878  0.2161  0.0920
24486W        W31086  23.195   4.615  21.993  0.0118 -0.0922  0.1460
24487W        W31087  15.507   0.707   4.637  0.2329 -0.0004  0.0369
24488W        W31088   8.079   0.194  21.284  0.1840 -0.0159  0.0389
24489W        W31089  23.053   0.011   8.230 -0.0238 -0.0946  0.0195
24490W        W31090   0.063   3.477   4.127  0.2636  0.0196  0.0057
24491W        W31091   5.777   6.247  16.221  0.1434  0.1081 -0.0466
24492W        W31092   8.843   4.227   4.012  0.0217 -0.0431  0.1518
24493W        W31093  20.472   4.031  16.974  0.0935  0.1254 -0.0127
24494W        W31094  25.035   6.019   6.339  0.2023  0.2637 -0.0125
24495W        W31095  15.187   3.235  23.943  0.4094  0.2138 -0.1207
24496W        W31096   4.353   2.827  15.326 -0.2388  0.2857  0.2995
24497W        W31097   2.820   6.894   6.925 -0.2155 -0.1223  0.0649
24498W        W31098  10.455   0.178   1.832  0.0158  0.1479  0.0455
24499W        W31099  13.549   5.353  26.841  0.2582 -0.0703  0.2581
24500W        W31100  22.043   6.823  27.063  0.1482 -0.4791 -0.0927
24501W        W31101  12.219   4.416  21.632  0.0683  0.3580  0.0744
24502W        W31102   5.337   0.758  25.054  0.0853 -0.0711 -0.1864
24503W        W31103   7.936   5.637  16.588 -0.1867  0.0967 -0.4018
24504W        W31104  22.286   0.888   5.849 -0.1528 -0.0533  0.2070
24505W        W31105  13.286   3.313  26.841  0.3746  0.3818 -0.1877
24506W        W31106   0.697   1.381  31.162 -0.2303 -0.0469 -0.1688
24507W        W31107   3.387   3.437  31.885 -0.4166 -0.0917  0.0895
24508W        W31108  20.859   6.222  17.590  0.0021 -0.0622  0.0568
24509W        W31109  16.724   3.551  10.926  0.1441  0.0970 -0.0490
24510W        W31110  20.369   5.470  29.496 -0.0032 -0.1039  0.3960
24511W        W31111   6.450   2.726  24.781  0.1048 -0.1866  0.2872
24512W        W31112  17.215   6.299  27.674 -0.1835  0.1194 -0.2101
24513W        W31113  19.995   6.357   7.863  0.0531 -0.2615 -0.2292
24514W        W31114  19.341   1.045  10.151 -0.2016  0.0364  0.0959
24515W        W31115  22.514   4.629  24.963  0.1400 -0.1821  0.0439
24516W        W31116  14.045   5.253  29.579 -0.2137  0.2905 -0.1943
24517W        W31117  12.749   4.115  20.431  0.0459  0.0962 -0.0721
24518W        W31118  24.760   3.299  12.901 -0.3461  0.1493  0.0994
24519W        W31119   3.644   0.291   5.331  0.0908  0.2142 -0.1916
24520W        W31120  10.046   1.363   0.980 -0.1330  0.1503  0.0811
24521W        W31121  15.974   4.640  13.142  0.1624  0.0204 -0.1403
24522W        W31122  11.782   3.819  32.475 -0.1231  0.3687  0.0343
24523W        W31123  21.745   6.835   7.081 -0.0730 -0.1182 -0.0122
24524W        W31124  21.224   0.478  25.393  0.0919 -0.1394  0.2360
24525W        W31125   5.056   7.681  27.715  0.0566 -0.0181 -0.3083
24526W        W31126   0.512   5.852  23.176 -0.1458  0.1487 -0.1049
24527W        W31127  13.742   4.511   0.507  0.1178  0.2499  0.0582
24528W        W31128  21.109   7.745   6.914 -0.3265  0.0881 -0.1041
24529W        W31129  20.373   2.298   2.737  0.1479  0.0994  0.0395
24530W        W31130  14.865   7.844  22.131  0.1063  0.2639  0.0188
24531W        W31131  16.129   3.389  30.705 -0.2883 -0.0189 -0.0578
24532W        W31132  13.800   2.938  25.398 -0.0610  0.2322 -0.2947
24533W        W31133  18.253   5.183  11.732  0.0504  0.3264  0.3268
24534W        W31134  24.565   2.574  13.540 -0.1826 -0.0713 -0.0353
24535W        W31135  21.353   7.287  11.144  0.1304 -0.0191  0.2495
24536W        W31136   3.919   5.016  29.079  0.1844  0.1860 -0.2394
24537W        W31137  23.040   7.839   5.937  0.1694 -0.2794 -0.0379
24538W        W31138   9.742   6.927   9.374  0.1846  0.0768 -0.2326
24539W        W31139  25.140   1.641  24.840  0.2783 -0.2355  0.1794
24540W        W31140  24.112   4.038  13.872  0.1589  0.0333 -0.0461
24541W        W31141  19.920   5.397  29.766 -0.1264 -0.1090  0.1073
24542W        W31142  12.247   5.319   9.041 -0.1006 -0.0283 -0.0057
24543W        W31143  16.515   6.947  24.331 -0.2991 -0.0058 -0.0599
24544W        W31144   3.311   3.335   3.749  0.3014  0.0756  0.0573
24545W        W31145   7.971   1.567  26.657  0.1030  0.0750 -0.2009
24546W        W31146  10.126   7.031  29.055 -0.2261  0.0405 -0.1092
24547W        W31147   8.463   2.756   8.152  0.3641 -0.3120 -0.3481
24548W        W31148  21.490   4.879   8.057  0.0283  0.0835 -0.2113
24549W        W31149  21.698   4.908   8.572  0.2841 -0.2217 -0.0792
24550W        W31150   0.889   0.449   0.896  0.0452  0.0333 -0.0137
24551W        W31151   2.620   1.653  25.103 -0.0108  0.1876 -0.0698
24552W        W31152  11.799   5.165   0.434  0.3598  0.2875  0.0276
24553W        W31153  17.714   5.094  12.329 -0.2251 -0.0920 -0.0098
24554W        W31154  17.081   5.152  29.584  0.1322  0.1812 -0.0857
24555W        W31155   4.772   1.879  10.820 -0.0863 -0.1893 -0.1959
24556W        W31156   2.579   5.374  23.502  0.0361 -0.1701 -0.0865
24557W        W31157  20.601   1.816  13.462  0.1380 -0.2521 -0.1929
24558W        W31158   3.013   2.377  26.308  0.2069 -0.1547 -0.2359
24559W        W31159   8.170   6.524  20.205 -0.3802  0.1585  0.0950
24560W        W31160  11.552   0.210   9.266  0.0183  0.2631 -0.0611
24561W        W31161   8.208   5.492   8.497  0.4645 -0.0560 -0.4224
24562W        W31162   4.365   2.487  21.942  0.2434  0.1011  0.1016
24563W        W31163  19.634   5.679   7.350  0.2192 -0.3434  0.0377
24564W        W31164  13.260   4.835   8.796 -0.1660 -0.0158  0.0492
24565W        W31165   1.491   7.573  10.234  0.1704 -0.1777  0.0226
24566W        W31166  18.837   2.164  15.988  0.2113 -0.2569  0.2401
24567W        W31167  10.953   7.508   8.108  0.0355 -0.0100  0.0168
24568W        W31168  22.589   0.201  11.005  0.0189  0.2002 -0.0293
24569W        W31169   9.153   1.812  22.260  0.0572  0.2601  0.2266
24570W        W31170   4.885   3.118   4.629 -0.0376 -0.1044  0.2382
24571W        W31171  10.482   3.344  24.031  0.1883 -0.0549  0.0924
24572W        W31172  17.155   0.046   9.430 -0.0001  0.0045  0.0323
24573W        W31173   3.918   3.357  25.096 -0.0889 -0.1200  0.2671
24574W        W31174  14.798   3.470   5.346  0.5490 -0.1028  0.2211
24575W        W31175  22.031   5.388  10.149 -0.2274 -0.1116  0.2534
24576W        W31176  16.115   1.152  10.857  0.1590  0.0205  0.1920
24577W        W31177   6.512   3.787   9.433 -0.0932  0.0861  0.2273
24578W        W31178   7.934   5.571   6.072 -0.0913  0.2775  0.2675
24579W        W31179  12.980   3.656  13.345 -0.0327 -0.1189 -0.0081
24580W        W31180  16.384   1.903  22.940  0.0029  0.0661 -0.0062
24581W        W31181   4.309   2.548  28.907 -0.0123  0.1034 -0.1870
24582W        W31182  24.222   4.031  12.559  0.0600  0.0490 -0.1392
24583W        W31183   6.474   1.841  14.866 -0.0875 -0.0695  0.1778
24584W        W31184  18.265   5.675  30.206  0.0412 -0.3289 -0.1941
24585W        W31185  23.504   6.255   1.299 -0.2814 -0.2549 -0.5220
24586W        W31186  16.644   1.467   5.111 -0.0413 -0.1072 -0.0876
24587W        W31187   6.710   0.109  14.964  0.1540  0.1555  0.0417
24588W        W31188   7.582   1.321  20.455 -0.0433  0.2385  0.1784
24589W        W31189  16.046   6.469  24.544 -0.1366  0.0043 -0.1741
24590W        W31190  13.383   7.725  24.881 -0.2314 -0.0742  0.0528
24591W        W31191  13.950   1.775   1.503  0.1371 -0.0055 -0.1519
24592W        W31192  13.334   2.267   0.241  0.3364 -0.0015  0.0779
24593W        W31193  11.446   1.604  21.982 -0.2962 -0.0908 -0.0846
24594W        W31194  19.866   3.810   5.608 -0.1761  0.3454 -0.1123
24595W        W31195   1.486   4.921   8.561  0.0268 -0.0546  0.0196
24596W        W31196  11.338   0.565  29.140  0.0157 -0.1259 -0.0479
24597W        W31197   4.697   0.823  30.305  0.0111  0.1800  0.1464
24598W        W31198   9.914   1.035   9.410 -0.0055 -0.1558 -0.0852
24599W        W31199  23.669   7.309   7.316 -0.1068 -0.1616 -0.1140
24600W        W31200  18.180   1.850  13.764  0.0944  0.1582  0.1448
24601W        W31201  19.948   6.267   8.366 -0.0332 -0.0691 -0.1803
24602W        W31202  21.503   3.744   2.301  0.0323 -0.0830 -0.1781
24603W        W31203  20.425   2.773   7.136 -0.0259  0.1788  0.1929
24604W        W31204   0.542   5.804  30.025 -0.1214 -0.0129 -0.0106
24605W        W31205  20.581   2.087  24.005 -0.1299 -0.1457 -0.0761
24606W        W31206  16.237   7.593   0.173  0.0541  0.0962  0.0349
24607W        W31207  21.652   4.606   8.993 -0.1138  0.0661  0.2945
24608W        W31208   6.520   4.682  21.177  0.2518 -0.0191  0.0790
24609W        W31209  12.129   4.721  23.175 -0.1342  0.0653 -0.1741
24610W        W31210   4.661   6.138   2.854  0.0313  0.1106  0.0214
24611W        W31211  19.301   5.179   3.064  0.0799 -0.1082 -0.0189
24612W        W31212  21.066   3.981  29.951  0.2416  0.1671  0.2389
24613W        W31213   1.475   2.767  27.374 -0.0378 -0.0024  0.0654
24614W        W31214  16.377   3.003   8.155 -0.1022  0.2055 -0.2999
24615W        W31215  22.370   3.727   1.162  0.0828  0.1778 -0.1518
24616W        W31216  14.314   4.349  31.859 -0.2299  0.3459  0.0464
24617W        W31217   1.644   5.747  19.564 -0.1583 -0.1385  0.4360
24618W        W31218  18.657   2.965  16.950 -0.1933 -0.1775 -0.1315
24619W        W31219   3.396   4.862  25.676  0.1020  0.1030  0.0089
24620W        W31220   3.865   7.261  29.502  0.1422 -0.2390  0.1664
24621W        W31221  11.278   0.049   2.853 -0.0034  0.0341  0.0941
24622W        W31222  22.718   4.913  30.593  0.1300  0.2324  0.0234
24623W        W31223   0.960   4.924  10.629  0.0204  0.1926  0.0035
24624W        W31224   9.765   7.156   7.527  0.3811 -0.0672  0.1241
24625W        W31225  18.992   5.751  11.311 -0.0769 -0.1994  0.2321
24626W        W31226  20.582   6.011   2.779 -0.1368 -0.1283 -0.0589
24627W        W31227  13.905   7.563   4.722 -0.0010 -0.0246  0.2745
24628W        W31228  13.517   0.080   7.589  0.0345 -0.0285  0.2546
24629W        W31229   6.204   1.437   5.935 -0.0056  0.1102  0.1758
24630W        W31230  11.187   3.554  22.684  0.3686 -0.3914 -0.0064
24631W        W31231   0.823   6.537  18.690 -0.1032 -0.1744  0.1874
24632W        W31232  22.999   7.300  10.053  0.3173 -0.1505 -0.1166
24633W        W31233   4.160   3.791  31.567  0.2146  0.2154 -0.4060
24634W        W31234  13.884   4.938  13.134 -0.1728  0.0357 -0.2883
24635W        W31235  22.046   7.582  32.237  0.0376 -0.1844 -0.2090
24636W        W31236   2.212   3.386  21.268 -0.3263 -0.1361 -0.1110
24637W        W31237   7.194   2.008   1.926  0.1057  0.2767 -0.2441
24638W        W31238   3.986   2.931  25.378 -0.0846  0.1656 -0.1402
24639W        W31239  13.794   5.565  29.932  0.3201 -0.2327 -0.1678
24640W        W31240  20.638   3.889   8.234  0.0939  0.1804  0.0967
24641W        W31241  20.962   3.438   9.813 -0.0787  0.0655  0.0589
24642W        W31242  10.363   5.181  32.297  0.0311  0.1311 -0.3145
24643W        W31243  13.637   5.698  27.627  0.2060  0.1895 -0.0330
24644W        W31244  13.335   3.525   8.565  0.2856 -0.1400 -0.2209
24645W        W31245   6.133   4.051  23.943 -0.2434  0.1707  0.0528
24646W        W31246  11.986   5.978  21.552  0.1217 -0.0279  0.1088
24647W        W31247   2.072   3.129  21.728  0.0971  0.1640  0.1853
24648W        W31248   3.447   4.587   0.600  0.1048 -0.0023  0.1033
24649W        W31249  25.055   1.696  21.755  0.0338  0.1379  0.0798
24650W        W31250   8.714   0.029  23.598  0.1746 -0.0242  0.1652
24651W        W31251   6.398   2.306   3.169  0.1217  0.0717  0.2228
24652W        W31252  17.538   2.479  24.468  0.3164 -0.0677 -0.2054
24653W        W31253   9.248   0.140  22.773  0.0770  0.1711  0.2101
24654W        W31254  19.013   3.551  29.218 -0.0345  0.0647 -0.1571
24655W        W31255  15.942   0.585  15.844 -0.1541 -0.1005 -0.2959
24656W        W31256   8.900   3.454  29.002  0.1098 -0.0191 -0.0636
24657W        W31257  18.422   0.862   3.884 -0.0642  0.3065 -0.0074
24658W        W31258   3.275   0.309  24.379  0.0031  0.3888  0.2574
24659W        W31259  20.671   4.397  15.261 -0.0280 -0.1684  0.1890
24660W        W31260   1.806   7.501   2.675 -0.0316  0.3033  0.1763
24661W        W31261  20.127   6.020   6.096 -0.1500  0.0587 -0.1863
24662W        W31262  13.010   4.315  29.646 -0.1826 -0.3173 -0.1976
24663W        W31263  12.352   2.655  31.068 -0.2166 -0.0326 -0.0247
24664W        W31264   8.931   5.874  30.210  0.3642  0.0776 -0.1847
24665W        W31265   9.689   4.503   2.642  0.0607  0.2784 -0.0943
24666W        W31266  22.438   6.442  12.534 -0.0344  0.1192  0.3046
24667W        W31267   1.192   0.150  22.523 -0.1924  0.0369 -0.2061
24668W        W31268   9.922   3.734   3.929  0.2828 -0.0291 -0.3667
24669W        W31269  21.148   7.106  26.529  0.1961  0.0141  0.2879
24670W        W31270   8.630   4.711  23.093  0.3383  0.0923 -0.1116
24671W        W31271   4.390   5.609  24.804  0.2611  0.2203 -0.1725
24672W        W31272  11.768   3.441   4.587 -0.0095  0.0344 -0.3032
24673W        W31273   9.639   3.213  15.445  0.0151  0.1569 -0.0062
24674W        W31274   8.713   0.675  24.453  0.2394  0.0220 -0.3778
24675W        W31275  12.550   4.306  22.025 -0.0208 -0.1773  0.1372
24676W        W31276   1.967   3.224  24.793 -0.1878 -0.1571 -0.3141
24677W        W31277  20.058   7.443  27.651 -0.0245 -0.0812 -0.0537
24678W        W31278  13.288   0.511  27.508 -0.0857  0.0405 -0.1253
24679W        W31279  14.055   0.803  27.025  0.1364 -0.1573  0.0043
24680W        W31280  23.105   5.481  12.428 -0.0347  0.0257  0.2682
24681W        W31281  23.959   0.226  25.868 -0.0494 -0.1397  0.2499
24682W        W31282  17.787   0.037  22.568  0.2050 -0.0813  0.2951
24683W        W31283   6.703   1.268  28.397  0.0874  0.2233  0.2623
24684W        W31284  16.261   2.376   3.473  0.2136 -0.0822  0.2577
24685W        W31285  12.630   0.630   0.114  0.0159 -0.0911  0.1796
24686W        W31286  24.738   2.015  14.330 -0.0557 -0.1345  0.0472
24687W        W31287  15.812   5.465  10.874  0.2206 -0.0984  0.0569
24688W        W31288   1.437   3.196  24.893 -0.3009  0.0012 -0.1936
24689W        W31289   5.265   4.583  29.427 -0.2323  0.2303  0.0472
24690W        W31290  17.174   5.042   1.594 -0.0600  0.0878 -0.2926
24691W        W31291   3.813   1.385   8.678 -0.1427  0.0378  0.1595
24692W        W31292  13.848   5.061  21.032 -0.2451  0.0214 -0.3243
24693W        W31293  13.529   1.470   8.031  0.0290  0.2405 -0.0744
24694W        W31294   3.494   2.882  28.883 -0.3855  0.0555 -0.1417
24695W        W31295   2.722   5.700  25.357 -0.1546 -0.4712  0.2197
24696W        W31296  24.285   3.572  25.121 -0.3626 -0.1199  0.1652
24697W        W31297   5.410   4.420  16.933  0.2233 -0.2931 -0.0663
24698W        W31298  24.492   1.864  32.140 -0.2394  0.1087  0.0385
24699W        W31299   4.187   2.457  21.398  0.1290 -0.2464 -0.2460
24700W        W31300   8.895   4.078  22.219 -0.0075  0.1907  0.2594
24701W        W31301   3.525   6.756  28.659  0.1176  0.0082  0.0977
24702W        W31302   5.521   0.720   5.685  0.0213 -0.0714  0.1774
24703W        W31303  15.973   2.030  10.229 -0.3278 -0.1247 -0.0185
24704W        W31304   7.607   2.287  19.185 -0.1838 -0.1716 -0.1026
24705W        W31305  18.231   3.953  29.975  0.2808 -0.2660 -0.1894
24706W        W31306   0.557   3.961  24.640 -0.0800  0.0896 -0.0346
24707W        W31307  13.444   3.301   1.006  0.0985 -0.2583  0.1556
24708W        W31308   1.374   1.242  31.609 -0.2031 -0.0076 -0.2995
24709W        W31309  15.929   1.000   7.929 -0.2135  0.3195  0.2994
24710W        W31310   3.021   1.455  30.735  0.0994  0.1175 -0.2303
24711W        W31311  16.784   4.614  16.647 -0.0099 -0.0679 -0.1483
24712W        W31312  11.001   0.597  26.629 -0.2208  0.0072  0.0452
24713W        W31313  10.700   6.086   6.376  0.1539 -0.0566  0.2828
24714W        W31314  15.819   3.854  22.237 -0.0734  0.1504 -0.3346
24715W        W31315  23.647   6.504  26.893  0.1506 -0.2010 -0.0614
24716W        W31316   8.619   5.025   8.561  0.1651  0.2691  0.3600
24717W        W31317   2.439   0.542  24.099 -0.0312 -0.0595  0.1933
24718W        W31318  23.672   5.356  11.450  0.0013  0.0388 -0.0105
24719W        W31319   0.685   5.305  10.863 -0.0384 -0.0904 -0.1145
24720W        W31320  20.224   4.714  13.375 -0.0226 -0.2010 -0.2950
24721W        W31321  14.915   1.765  24.180 -0.0774 -0.0942  0.0803
24722W        W31322  23.932   6.403   5.480  0.0098  0.4967 -0.0741
24723W        W31323  14.288   2.099  29.492  0.2044 -0.1568  0.1209
24724W        W31324  17.558   6.302  12.477  0.2648  0.0791 -0.0105
24725W        W31325  14.035   6.338  12.312 -0.0835 -0.2139  0.0587
24726W        W31326  18.751   5.372   2.347 -0.1085 -0.0644  0.1485
24727W        W31327  23.396   5.550   5.807 -0.2176  0.1842 -0.0125
24728W        W31328   0.909   5.291  30.399  0.0056 -0.0772 -0.0831
24729W        W31329   3.117   1.367  26.695  0.3719  0.2427 -0.1715
24730W        W31330   2.078   4.809  19.682 -0.1247  0.0608 -0.1467
24731W        W31331  15.596   6.476  22.856  0.0639 -0.3518  0.0121
24732W        W31332  14.662   3.292   0.173 -0.2655 -0.2900 -0.2802
24733W        W31333  12.802   3.397   0.763  0.0251 -0.2140 -0.1752
24734W        W31334  11.930   5.671  31.153 -0.0171 -0.0317  0.1372
24735W        W31335  11.581   2.315   3.666  0.0753  0.0283 -0.1742
24736W        W31336  18.954   0.684   4.074 -0.2166 -0.1341  0.0686
24737W        W31337   3.179   1.779  27.997 -0.0996 -0.1735  0.0033
24738W        W31338  16.483   4.923  12.104 -0.0005  0.0459 -0.0716
24739W        W31339  10.639   6.882   4.121  0.2187  0.1182  0.1710
24740W        W31340  21.502   0.227  12.712  0.2062  0.1675  0.1956
24741W        W31341  22.442   6.727  21.591 -0.0218  0.0959 -0.3056
24742W        W31342   4.271   5.292   7.233  0.2377  0.2163  0.3471
24743W        W31343  11.653   2.312  22.570 -0.4124  0.1132 -0.4588
24744W        W31344   0.765   0.420  30.909  0.0082 -0.0767  0.2999
24745W        W31345  17.397   3.196  12.573 -0.2997 -0.1576  0.1173
24746W        W31346  18.860   5.074  26.778 -0.0838  0.2746 -0.0453
24747W        W31347   6.953   2.468  15.531 -0.2293 -0.1224 -0.0803
24748W        W31348   7.947   0.680   1.616  0.2353  0.0284 -0.0984
24749W        W31349  19.286   3.048  13.067 -0.0443  0.0846  0.0530
24750W        W31350  15.488   1.589  14.009  0.0808 -0.1239 -0.0990
24751W        W31351   9.910   5.516   8.198 -0.1669  0.0152  0.2119
24752W        W31352   2.926   7.780  29.129 -0.0055 -0.0714 -0.2217
24753W        W31353  22.021   6.505   1.922 -0.0562 -0.2557  0.2955
24754W        W31354  18.965   5.953  12.961 -0.0723 -0.2210  0.0183
24755W        W31355   1.035   5.627  25.995 -0.1453  0.0007  0.2758
24756W        W31356  10.713   2.502   5.595  0.0950  0.2091  0.2462
24757W        W31357  13.339   0.526  27.987 -0.1184  0.0231  0.2188
24758W        W31358   6.889   2.246   7.989  0.1615  0.0115  0.2640
24759W        W31359  16.483   0.155  31.465 -0.0022  0.2851  0.0563
24760W        W31360   2.045   6.826   9.657  0.1757  0.0866 -0.0698
24761W        W31361  17.685   6.388   7.114 -0.1251  0.0002 -0.2162
24762W        W31362  18.282   5.824   7.298 -0.0957  0.0500  0.0343
24763W        W31363  19.214   0.487  26.151 -0.3216  0.3145  0.0460
24764W        W31364  20.868   2.971  10.693 -0.1297 -0.0209  0.1699
24765W        W31365  24.338   7.063   0.834 -0.0610 -0.0609 -0.0889
24766W        W31366   7.107   4.109   1.855  0.0304 -0.4441 -0.0789
24767W        W31367   4.252   0.026  23.270 -0.0048 -0.1246 -0.3602
24768W        W31368   8.799   0.824  18.072  0.3992  0.1086 -0.0573
24769W        W31369  19.022   5.172  31.863  0.1770 -0.0370  0.0566
24770W        W31370  11.044   0.885  19.187 -0.1228  0.0472  0.0624
24771W        W31371   8.138   5.698  18.893 -0.2084 -0.1951 -0.3464
24772W        W31372   2.748   3.459   0.993  0.0602  0.0917  0.0981
24773W        W31373  22.282   7.639  29.358  0.0584  0.1656 -0.0526
24774W        W31374   0.961   3.918  19.531  0.2855  0.0763  0.1762
24775W        W31375   7.517   1.038  23.594  0.0446  0.0176 -0.2568
24776W        W31376   4.915   1.935  18.844 -0.0769 -0.2410  0.0333
24777W        W31377   1.239   0.095  28.166  0.1245 -0.0335 -0.3741
24778W        W31378  15.381   1.359  28.213 -0.1608 -0.3605  0.1363
24779W        W31379   4.802   2.455  18.747  0.0750  0.0816 -0.1379
24780W        W31380  17.708   5.809  12.872 -0.2980  0.0804  0.2927
24781W        W31381  14.544   2.813  21.867  0.0096 -0.1602  0.0884
24782W        W31382   6.833   7.500  18.019  0.1005  0.0779  0.2174
24783W        W31383  20.470   0.425  14.537  0.1532  0.1713  0.1770
24784W        W31384   4.721   5.879  16.533  0.1528 -0.1608 -0.0666
24785W        W31385   1.134   4.898   8.992  0.4157  0.1407 -0.2667
24786W        W31386  22.901   2.383  13.041  0.0182 -0.1482  0.5041
24787W        W31387  22.110   7.079  13.500  0.4015 -0.2490  0.0068
24788W        W31388  13.903   7.101  22.841 -0.0443  0.1323  0.1156
24789W        W31389  12.191   2.757   4.848 -0.1566  0.2704  0.2470
24790W        W31390   2.185   6.971  25.049  0.0764 -0.0839  0.1084
24791W        W31391  10.492   6.251  28.098 -0.1026  0.0089  0.2450
24792W        W31392  20.208   6.796  17.387  0.1136 -0.3865 -0.3386
24793W        W31393   5.415   0.989   9.894  0.2133  0.2307 -0.1935
24794W        W31394  18.651   3.166  12.183 -0.0257 -0.2132 -0.1420
24795W        W31395  10.319   2.484  19.074 -0.0759  0.1270 -0.0471
24796W        W31396  14.552   1.577   7.257 -0.0833 -0.1251  0.0169
24797W        W31397  23.346   7.152   9.728  0.0958 -0.0400 -0.1029
24798W        W31398   5.918   1.133  25.729 -0.0852  0.0415 -0.0716
24799W        W31399  16.109   2.629  31.123 -0.1416 -0.0580 -0.0428
24800W        W31400   4.530   5.725  17.781 -0.1157 -0.0976  0.1187
24801W        W31401  17.246   7.112  13.019 -0.0899  0.3604 -0.0792
24802W        W31402   7.377   6.840   6.223  0.0478 -0.1815 -0.1927
24803W        W31403  16.072   1.131   2.802  0.1815  0.1068 -0.0747
24804W        W31404   5.235   7.379  24.416  0.1802 -0.0357 -0.1580
24805W        W31405   7.827   1.342  28.346 -0.1921 -0.0529  0.1181
24806W        W31406   8.770   1.290   1.836 -0.1892  0.1577 -0.0971
24807W        W31407  13.710   4.395  25.761 -0.2213 -0.0071  0.0498
24808W        W31408   6.364   2.446  18.223  0.2346 -0.0020 -0.0695
24809W        W31409  23.109   5.741  31.208  0.0452 -0.0430 -0.1415
24810W        W31410  17.015   6.553  15.305 -0.0254  0.2919  0.0835
24811W        W31411   1.653   0.926  29.792  0.2153 -0.1637  0.2052
24812W        W31412  22.850   6.708  11.603 -0.0496  0.4081  0.1912
24813W        W31413   5.139   2.665  23.415 -0.0748  0.1826  0.0535
24814W        W31414  23.371   5.277   0.477 -0.3676 -0.1865 -0.3804
24815W        W31415  16.785   2.119  23.086 -0.0768 -0.0040 -0.2194
24816W        W31416  18.110   6.511   7.858 -0.0469 -0.0174  0.0568
24817W        W31417   8.167   2.428  18.898  0.2578 -0.0206  0.0446
24818W        W31418  20.942   1.243  16.923 -0.2599  0.0115 -0.3612
24819W        W31419   5.307   1.290   0.807  0.1404  0.0047 -0.0620
24820W        W31420   0.583   7.257   8.369 -0.1148  0.0125 -0.0088
24821W        W31421  11.337   0.014  21.174  0.2089  0.0889  0.0985
24822W        W31422  23.249   4.392  24.839 -0.0493 -0.1962 -0.0027
24823W        W31423  16.263   6.013  27.240 -0.0378 -0.5178  0.0237
24824W        W31424   1.814   3.608   8.091 -0.1871 -0.0025  0.1380
24825W        W31425   2.242   5.241  30.050  0.0866  0.2042 -0.1199
24826W        W31426   7.976   1.625  29.776  0.1828  0.2685 -0.1704
24827W        W31427  16.782   4.910  29.318 -0.2326  0.0570 -0.1174
24828W        W31428  17.431   3.345  27.115  0.0381 -0.0808  0.0710
24829W        W31429  13.081   1.289  19.195  0.0836  0.1305 -0.2041
24830W        W31430  16.547   5.990   8.760  0.0262 -0.1963  0.0663
24831W        W31431  22.918   2.144  11.437 -0.0365 -0.0365 -0.3366
24832W        W31432  22.179   7.759   1.779 -0.1662  0.5986  0.1381
24833W        W31433  16.556   4.571   2.713 -0.0749  0.0357  0.2632
24834W        W31434   4.851   2.753  19.978 -0.1272  0.3763  0.0667
24835W        W31435   6.748   5.171   5.657 -0.2401  0.2539 -0.2002
24836W        W31436  16.908   0.907  14.727 -0.1290 -0.2047 -0.1084
24837W        W31437  23.799   1.054  32.298  0.2965  0.2897 -0.1477
24838W        W31438   9.049   6.654   0.726  0.2508 -0.0262  0.0008
24839W        W31439   0.327   4.286  13.699  0.0791  0.2423  0.1207
24840W        W31440  21.383   0.884  14.888 -0.0632 -0.0070 -0.1837
24841W        W31441   9.637   5.601  21.969 -0.1483  0.0966  0.1879
24842W        W31442  15.091   7.174  21.417 -0.2373  0.1006 -0.1560
24843W        W31443  12.921   1.000  10.507 -0.1504  0.0679 -0.0574
24844W        W31444   4.393   4.243   1.912  0.0115 -0.0456  0.2111
24845W        W31445   0.480   3.529  26.378 -0.1901  0.0464 -0.1086
24846W        W31446  23.449   5.279  13.368 -0.0423 -0.2286 -0.0423
24847W        W31447   6.564   0.476  28.862  0.1423 -0.2484 -0.0750
24848W        W31448   2.043   0.335  11.245 -0.1654 -0.1522  0.0984
24849W        W31449   9.487   3.528   3.840 -0.0230 -0.0295 -0.2238
24850W        W31450  16.819   4.305  27.535 -0.0510  0.1384  0.1577
24851W        W31451  23.683   7.310  29.231  0.0650 -0.1613  0.1065
24852W        W31452   8.462   4.201  28.827  0.0150 -0.0024 -0.0827
24853W        W31453   2.255   6.636  21.764  0.1686  0.2153 -0.1296
24854W        W31454  14.538   6.949  31.515  0.0774  0.0730 -0.1423
24855W        W31455  22.180   0.183   0.355  0.0988 -0.0314 -0.1799
24856W        W31456  10.209   2.231   4.297 -0.2878  0.1607  0.0574
24857W        W31457  12.911   5.194  11.351 -0.3083  0.0828 -0.0640
24858W        W31458   5.447   7.209  20.451 -0.3585 -0.1019 -0.1268
24859W        W31459  14.283   3.818  29.644 -0.2106  0.1123  0.1560
24860W        W31460  17.561   7.646  27.347 -0.0050 -0.0248  0.0262
24861W        W31461  19.412   6.470   2.896  0.0569 -0.2895 -0.0021
24862W        W31462   9.292   6.164   2.609  0.0107 -0.3399  0.1240
24863W        W31463  14.810   5.703  12.594 -0.0568  0.2338 -0.1147
24864W        W31464   3.883   3.277   8.209 -0.0442 -0.1034 -0.1707
24865W        W31465  15.734   6.888  11.170  0.2325 -0.2088 -0.0765
24866W        W31466  24.359   6.795  25.109  0.1223  0.1239  0.0104
24867W        W31467  17.268   1.639  13.599  0.2500  0.1782  0.3182
24868W        W31468  20.926   4.688  23.831 -0.1395 -0.1341 -0.0827
24869W        W31469   1.787   2.669   0.035  0.0601 -0.2870  0.0349
24870W        W31470   4.880   6.970  28.028  0.1446 -0.3211 -0.1109
24871W        W31471   1.610   4.667  23.125 -0.1207 -0.2217 -0.1877
24872W        W31472   0.023   7.518   3.117  0.0228  0.1218  0.3015
24873W        W31473  11.465   0.696   9.188  0.1276 -0.2172  0.0954
24874W        W31474   1.377   6.535  29.328  0.0718  0.0723  0.2850
24875W        W31475  24.689   6.410  21.766 -0.0824 -0.2351 -0.1431
24876W        W31476  21.157   4.804   4.585  0.3525 -0.4420  0.1095
24877W        W31477  21.887   3.398  24.667 -0.1482  0.1306  0.2116
24878W        W31478   1.507   5.762  27.484  0.0429 -0.0874 -0.0686
24879W        W31479  13.590   2.540  26.136  0.0177 -0.0083 -0.0604
24880W        W31480  14.494   0.933  25.670 -0.0795 -0.0290 -0.1275
24881W        W31481  22.354   3.265  13.520 -0.0317 -0.3363 -0.2137
24882W        W31482   8.449   3.694  15.252 -0.0972 -0.0330  0.1268
24883W        W31483  16.588   3.564   6.129  0.2691  0.2259  0.1522
24884W        W31484   7.496   1.033  28.121  0.3349  0.0992  0.2324
24885W        W31485  12.858   0.819  23.302 -0.0152  0.1998  0.0084
24886W        W31486   6.677   4.726   4.749 -0.1811 -0.0615  0.1358
24887W        W31487  15.283   4.226   7.877  0.2855 -0.0323 -0.3542
24888W        W31488  22.152   3.366  10.544  0.0754  0.1150 -0.3032
24889W        W31489   9.700   1.568  10.196  0.1876  0.0220 -0.1994
24890W        W31490   3.030   5.998  18.300  0.3863 -0.3186 -0.0560
24891W        W31491   8.913   1.011   3.852 -0.0198 -0.1494 -0.0620
24892W        W31492   6.610   1.575  21.260  0.0015 -0.0642  0.1419
24893W        W31493   7.319   4.822  29.362  0.0303  0.0883  0.0594
24894W        W31494  19.666   3.479  13.170  0.2387 -0.0578 -0.0954
24895W        W31495  20.805   0.300  27.239  0.0100  0.0295 -0.0326
24896W        W31496  11.302   3.845  30.426  0.4411 -0.1033 -0.0984
24897W        W31497  12.554   3.864  21.721 -0.0520  0.1331 -0.0517
24898W        W31498  16.969   5.060  16.051 -0.2317  0.0757 -0.0989
24899W        W31499   2.434   5.405   3.044  0.3621 -0.0104 -0.3044
24900W        W31500  14.728   4.015   5.311 -0.0127  0.1797  0.0004
24901W        W31501   9.907   3.542  25.418 -0.0934 -0.0993 -0.1940
24902W        W31502   6.591   2.953  16.144  0.1030  0.0671  0.0296
24903W        W31503  13.413   0.831  22.126 -0.1060  0.1288 -0.1502
24904W        W31504  22.719   6.930  12.394  0.1393  0.1334  0.0665
24905W        W31505  13.858   3.054   7.721  0.0310 -0.2399 -0.1840
24906W        W31506  15.222   6.229   6.917  0.2003  0.0922 -0.0963
24907W        W31507  18.511   7.120  26.950 -0.3230 -0.1511  0.0054
24908W        W31508  23.832   4.668  27.449 -0.1001 -0.0019 -0.0856
24909W        W31509  23.897   6.335  25.395 -0.2894  0.0785  0.1050
24910W        W31510  13.039   2.263  27.341  0.1162 -0.0507 -0.0443
24911W        W31511  24.922   5.209   2.917 -0.1295 -0.0540 -0.3101
24912W        W31512   1.348   5.185  29.715  0.0380 -0.2823  0.1970
24913W        W31513   6.565   5.922   3.202  0.0610 -0.0042  0.0095
24914W        W31514   0.946   1.364   8.009 -0.1714  0.1555 -0.0632
24915W        W31515  24.251   6.902  11.709  0.0210  0.3491 -0.0190
24916W        W31516  13.897   7.664   9.764 -0.0038 -0.1489 -0.3475
24917W        W31517   8.681   7.210   6.072  0.2201  0.0641  0.1101
24918W        W31518  10.458   7.529   5.939 -0.2363  0.0586  0.0580
24919W        W31519   3.673   2.151   5.364 -0.2285 -0.1607  0.0915
24920W        W31520  19.266   0.858   3.289 -0.1439 -0.1179 -0.2008
24921W        W31521   6.054   0.848   1.259  0.2764 -0.0088  0.2755
24922W        W31522  24.728   2.721  12.066  0.0111 -0.3748 -0.0823
24923W        W31523   9.656   3.276   1.232  0.0902  0.2548  0.0040
24924W        W31524  13.915   1.934  21.378  0.1740  0.0609  0.0486
24925W        W31525   9.127   7.426   6.643  0.0152 -0.0221  0.0601
24926W        W31526   0.845   7.384  27.689 -0.2363 -0.0235 -0.3000
24927W        W31527  14.294   6.670   6.950 -0.0101  0.1238 -0.0192
24928W        W31528  23.403   3.809   1.265  0.1729  0.3493  0.0368
24929W        W31529   9.701   3.580  18.652 -0.0889 -0.0103  0.3673
24930W        W31530   2.699   2.005   8.116  0.2884 -0.3332 -0.0933
24931W        W31531   7.876   1.967   2.784  0.4601 -0.4769  0.2012
24932W        W31532  16.008   0.187   1.210  0.0384 -0.1040 -0.1334
24933W        W31533  11.228   3.713  23.653  0.1430 -0.2193 -0.0463
24934W        W31534   9.592   0.511  30.736 -0.0993  0.2052  0.0563
24935W        W31535   1.595   2.989   5.271  0.1656 -0.1935 -0.3329
24936W        W31536  14.494   3.950   2.218  0.2440  0.2875  0.0860
24937W        W31537  24.679   2.839  19.867  0.0943 -0.1644  0.0762
24938W        W31538  11.253   7.531  22.046  0.1336 -0.0816  0.1537
24939W        W31539   8.139   0.304   8.083  0.0625  0.1235 -0.3655
24940W        W31540   8.919   2.001  25.069 -0.2195  0.0035  0.1310
24941W        W31541  16.003   2.317  31.562 -0.0034  0.3717  0.1997
24942W        W31542   3.698   3.265  16.054  0.2910 -0.2457 -0.0378
24943W        W31543  18.157   2.357  10.653  0.1606  0.0188  0.0344
24944W        W31544   5.169   5.840  25.848  0.0374 -0.0070  0.1459
24945W        W31545  11.262   1.486  26.056 -0.0852 -0.0109 -0.2154
24946W        W31546  20.841   4.648  28.078  0.0871 -0.1815 -0.0074
24947W        W31547  18.122   3.703   2.788  0.0605  0.2739  0.2587
24948W        W31548  21.651   0.408  32.318 -0.0304  0.1371 -0.0594
24949W        W31549  17.466   3.259  27.783 -0.2180 -0.1083 -0.1194
24950W        W31550  13.939   2.520  19.964  0.1345  0.1110 -0.0238
24951W        W31551   7.327   3.093  17.615  0.1854 -0.0614  0.0231
24952W        W31552  13.211   4.341   8.870 -0.0037  0.2446 -0.0614
24953W        W31553  21.719   6.523   9.852  0.1769  0.1038 -0.0985
24954W        W31554  11.275   2.692  27.286 -0.2911  0.2068 -0.3690
24955W        W31555  23.413   1.662   3.094 -0.2469  0.2556  0.0019
24956W        W31556  17.419   3.533  11.663  0.1176  0.1001  0.3974
24957W        W31557   3.690   4.256  26.826 -0.0381 -0.3726 -0.1628
24958W        W31558  20.559   5.199  15.758 -0.1046  0.1683  0.0724
24959W        W31559   4.614   4.618  31.916 -0.2380  0.0322  0.0737
24960W        W31560   6.290   5.950  18.087  0.2996 -0.1370  0.1432
24961W        W31561   5.025   2.809  26.770 -0.0430 -0.1978  0.0008
24962W        W31562  23.961   5.035   9.041 -0.0033 -0.0745 -0.0314
24963W        W31563  24.952   3.711  28.530  0.0335 -0.0895  0.0926
24964W        W31564  18.261   3.784  29.491  0.0229  0.1192 -0.1632
24965W        W31565  17.824   4.657  16.826  0.0522 -0.0781  0.1903
24966W        W31566  12.865   5.145  10.393 -0.0482  0.1756  0.0855
24967W        W31567   5.490   0.001  16.903  0.2751 -0.0340  0.0400
24968W        W31568  13.685   6.262  29.316 -0.2580  0.1452 -0.1942
24969W        W31569   1.093   6.440  27.940  0.4034 -0.0037 -0.1134
24970W        W31570   9.963   1.315  27.434 -0.1003 -0.0285  0.0240
24971W        W31571  24.854   2.257  10.196  0.2510 -0.1397  0.1474
24972W        W31572  11.668   0.145  26.283 -0.0458 -0.0481 -0.1709
24973W        W31573   7.721   3.392   2.606  0.1802  0.1239  0.4489
24974W        W31574   8.314   7.120  18.606 -0.1348 -0.3234  0.2051
24975W        W31575   9.389   1.506  26.201  0.0846  0.1938  0.1103
24976W        W31576  10.732   0.695  19.621 -0.0423 -0.0057  0.1632
24977W        W31577   3.509   4.010   8.604  0.0185 -0.3030 -0.0607
24978W        W31578   6.737   4.818  19.590 -0.1239 -0.4281  0.1056
24979W        W31579  17.710   0.191  13.168 -0.0389  0.2110 -0.0142
24980W        W31580   4.393   3.294   8.303  0.0521  0.1230  0.1442
24981W        W31581  24.530   2.762   2.887  0.2531 -0.4708  0.0053
24982W        W31582  16.704   1.421  11.141  0.1363  0.1542  0.1964
24983W        W31583  22.570   0.618   6.308  0.0291  0.2416  0.1615
24984W        W31584   8.210   6.924   3.665 -0.2077 -0.0460 -0.2612
24985W        W31585  19.330   1.530  30.243 -0.0039 -0.1620  0.3801
24986W        W31586  11.100   4.802  20.787  0.2288 -0.1266 -0.1286
24987W        W31587  15.430   7.286   9.860  0.0636  0.0090  0.0487
24988W        W31588  24.343   7.048   8.538  0.3488 -0.1052 -0.1857
24989W        W31589   7.300   1.632  18.324  0.3697 -0.2173 -0.0071
24990W        W31590  22.585   4.474  16.198 -0.4043 -0.2715 -0.1903
24991W        W31591   0.091   4.099   6.173 -0.0608 -0.1037  0.0200
24992W        W31592   0.606   2.594  19.184 -0.0929 -0.1060  0.0000
24993W        W31593  15.319   6.562  11.198  0.0111  0.1655  0.0208
24994W        W31594   7.117   5.160  27.700  0.1412 -0.1669 -0.1168
24995W        W31595  25.151   3.957  25.914  0.1893 -0.0602  0.1788
24996W        W31596  23.075   4.239   3.432 -0.0124  0.4621 -0.0534
24997W        W31597  22.464   3.681  12.488  0.0202  0.2200  0.1440
24998W        W31598   4.302   4.960  16.520  0.2638  0.0541  0.2480
24999W        W31599  24.374   1.368  12.823  0.1120  0.1103  0.1971
25000W        W31600  24.002   6.159  30.938  0.1850 -0.0283 -0.5680
25001W        W31601  22.074   5.932  26.866 -0.2548  0.0869  0.2069
25002W        W31602   2.671   4.936   8.545  0.1034 -0.1785 -0.1733
25003W        W31603  12.282   5.248   7.229  0.2196 -0.0242 -0.2954
25004W        W31604   9.108   7.789  32.193  0.0256  0.0492 -0.0715
25005W        W31605   0.095   6.575  26.093 -0.2239  0.1074 -0.0468
25006W        W31606  18.060   4.273  29.513 -0.0695  0.0110  0.0484
25007W        W31607   2.764   1.515   1.007  0.0524  0.0914 -0.0522
25008W        W31608  20.880   4.036  29.353  0.1767 -0.1521 -0.0462
25009W        W31609  22.116   2.476   5.147  0.0563  0.2262  0.0071
25010W        W31610   2.564   4.256  19.100 -0.1654 -0.2157 -0.1712
25011W        W31611  10.749   6.623   4.522  0.1380 -0.1173 -0.0037
25012W        W31612  22.089   2.225  23.291 -0.1195  0.3329  0.1912
25013W        W31613   6.906   7.045  27.175 -0.1318  0.0108  0.1173
25014W        W31614  15.028   7.775  12.666  0.0999 -0.2706 -0.0396
25015W        W31615  10.952   4.177  23.505  0.2163 -0.0429 -0.0862
25016W        W31616   5.023   7.530   1.454 -0.2223  0.1894  0.0180
25017W        W31617  19.554   0.716  14.669 -0.3069 -0.0161  0.1490
25018W        W31618   2.657   1.414  26.587 -0.3168  0.0313 -0.0240
25019W        W31619   4.653   5.530   2.075  0.3223 -0.2869  0.2641
25020W        W31620  16.735   7.500   6.708  0.0058  0.0426 -0.0907
25021W        W31621   3.380   4.454  19.350  0.1006  0.3112 -0.2651
25022W        W31622  11.196   2.936  29.571 -0.0558  0.0078  0.1875
25023W        W31623   1.343   1.009  22.222  0.0124 -0.1741  0.0260
25024W        W31624  25.112   7.381  25.221  0.2975  0.1242 -0.0897
25025W        W31625   0.628   7.423   1.801 -0.0093 -0.1992 -0.1013
25026W        W31626   4.296   5.666  30.353  0.1280 -0.0734  0.0451
25027W        W31627   9.008   0.254  18.582 -0.0269 -0.1690  0.1219
25028W        W31628  18.385   2.062  10.974  0.3683 -0.1666  0.0143
25029W        W31629  18.149   7.629  17.958 -0.0777  0.0874  0.0969
25030W        W31630  23.870   3.942  30.415  0.1437 -0.1136  0.0067
25031W        W31631  11.984   5.894  24.868 -0.1055 -0.1129  0.1490
25032W        W31632   6.397   7.197   9.617 -0.1319 -0.2817 -0.1806
25033W        W31633   9.132   2.664  15.895 -0.1471  0.0405 -0.1519
25034W        W31634   0.744   0.553  21.926 -0.0838 -0.1571  0.1015
25035W        W31635   1.271   6.667  26.509 -0.2191 -0.1065  0.1857
25036W        W31636  22.109   0.085   6.939 -0.3311 -0.0821  0.0261
25037W        W31637   2.587   1.250   7.221 -0.1903  0.1988  0.0852
25038W        W31638   0.165   0.686   7.190 -0.4447 -0.1714 -0.1972
25039W        W31639   9.673   2.457   0.496  0.2057 -0.2298 -0.3079
25040W        W31640  18.786   1.092  14.008 -0.0299  0.1630 -0.1061
25041W        W31641   2.012   0.660  31.583 -0.0171  0.2674  0.2452
25042W        W31642  24.754   1.178   6.083 -0.1302  0.1605 -0.0369
25043W        W31643  13.853   6.523   2.976 -0.1138 -0.1445  0.0415
25044W        W31644  12.902   4.758  30.841 -0.1368  0.1503 -0.3212
25045W        W31645  14.135   6.150   0.604 -0.1612  0.0706  0.4438
25046W        W31646   8.964   5.530  22.122 -0.2904  0.1812  0.0902
25047W        W31647   5.612   3.870  20.184 -0.2501 -0.1034 -0.0606
25048W        W31648  23.328   6.838  27.917 -0.2694  0.1338 -0.3425
25049W        W31649   9.188   6.107  17.756 -0.4966 -0.0622 -0.0253
25050W        W31650  14.201   7.808   6.303  0.6315  0.0090 -0.0280
25051W        W31651  20.081   5.878  29.562  0.0936 -0.2556 -0.2304
25052W        W31652  10.231   0.200  21.222 -0.1844 -0.2448 -0.2786
25053W        W31653   3.329   3.634  10.921  0.1952 -0.1532  0.0252
25054W        W31654  14.120   5.987   6.809 -0.1976 -0.0180 -0.1527
25055W        W31655  23.778   4.124  11.710  0.1858  0.2044  0.2869
25056W        W31656  20.723   2.211  24.478 -0.1309 -0.0107 -0.0750
25057W        W31657  12.056   0.002  10.593  0.2187  0.1265 -0.1677
25058W        W31658   5.466   6.879  17.501 -0.1779  0.2558 -0.0455
25059W        W31659  18.278   5.266  23.456 -0.1051  0.0233  0.1826
25060W        W31660  11.784   5.171   6.976 -0.0645  0.0391 -0.0275
25061W        W31661  19.842   7.688   0.382  0.1641 -0.0029  0.1379
25062W        W31662  10.712   3.381  24.482  0.0506  0.0343 -0.0659
25063W        W31663  18.243   5.968  17.119  0.0298  0.0507  0.1100
25064W        W31664  24.961   1.065  28.944  0.0832  0.1179 -0.1126
25065W        W31665   9.795   0.558   0.562  0.1939 -0.1254  0.1706
25066W        W31666  12.687   0.436   9.883  0.2552  0.1269 -0.1246
25067W        W31667   6.149   4.732  17.228 -0.1165 -0.0310  0.0224
25068W        W31668  20.145   7.773  26.197  0.0418 -0.0694  0.2124
25069W        W31669   5.109   5.558  16.482 -0.2804 -0.1737 -0.1291
25070W        W31670  10.079   7.220  31.996 -0.2693  0.0192 -0.0864
25071W        W31671   1.007   0.467  20.527  0.0122 -0.2553  0.2756
25072W        W31672  13.916   1.502   3.018 -0.0622 -0.0143 -0.2613
25073W        W31673   8.824   2.539  29.434  0.2238 -0.3451 -0.0464
25074W        W31674   6.925   5.535   8.367 -0.0305 -0.0473 -0.2623
25075W        W31675  24.832   7.742  27.550 -0.3763  0.0716  0.0284
25076W        W31676  18.370   1.025  31.855  0.0108 -0.0882 -0.0973
25077W        W31677   2.427   7.699   9.739  0.1166 -0.0901  0.3146
25078W        W31678   4.943   7.048  20.352 -0.0999 -0.2728  0.1442
25079W        W31679  12.066   2.833  29.787  0.0969 -0.1897 -0.0654
25080W        W31680  10.557   6.582  25.956 -0.1524  0.1825  0.0251
25081W        W31681  23.224   2.536  27.900  0.3203  0.2808 -0.0682
25082W        W31682   5.192   4.996   4.007  0.1225  0.0447  0.1051
25083W        W31683   7.762   2.851   0.324 -0.1324  0.0013 -0.2568
25084W        W31684  13.231   4.468  23.922  0.0808 -0.0143  0.0151
25085W        W31685  17.146   6.520   5.463 -0.1678  0.0109  0.1564
25086W        W31686  14.396   5.668  26.101  0.1648 -0.0172 -0.0155
25087W        W31687  21.668   2.035   8.658 -0.0473 -0.0870  0.1615
25088W        W31688   7.413   4.523  22.392 -0.1104 -0.3827 -0.2715
25089W        W31689  13.164   5.385  21.276 -0.2297  0.1022 -0.0382
25090W        W31690   4.760   5.622   9.932 -0.0984 -0.0925  0.0657
25091W        W31691  21.831   0.943   3.665  0.3994 -0.0828  0.1561
25092W        W31692  24.204   5.936  21.151  0.1977 -0.0892 -0.1911
25093W        W31693  16.037   4.510  29.406  0.1762  0.0932 -0.1871
25094W        W31694  15.037   7.618  25.054  0.2079  0.0761  0.0543
25095W        W31695   1.284   1.360   7.628  0.0312  0.2221 -0.1261
25096W        W31696   9.586   5.834   3.462  0.1694  0.0831  0.1480
25097W        W31697  16.137   0.056  10.441  0.3978 -0.0051 -0.2181
25098W        W31698  18.607   6.259   7.164 -0.0558  0.0171 -0.0783
25099W        W31699  22.259   4.684  30.716 -0.0316 -0.1066  0.1074
25100W        W31700   6.481   7.678   5.814  0.2183  0.0293 -0.0594
25101W        W31701  19.393   1.359  12.114 -0.1087 -0.2159  0.0701
25102W        W31702  16.067   1.508  24.866  0.0408  0.1831 -0.0916
25103W        W31703  13.782   2.158  21.945  0.2222 -0.1079  0.0971
25104W        W31704  11.335   6.210  18.773  0.0227 -0.0148 -0.1861
25105W        W31705  20.987   3.165   9.371 -0.1155 -0.2562  0.1812
25106W        W31706  11.418   5.118   0.036 -0.0906  0.2108 -0.1117
25107W        W31707  13.105   2.269   4.988  0.2238 -0.0088  0.1443
25108W        W31708   1.768   5.049   5.256  0.1055  0.0144 -0.0194
25109W        W31709   5.933   7.022  19.622  0.2808  0.0378 -0.1861
25110W        W31710  22.269   4.082  27.424  0.1311  0.0686  0.0605
25111W        W31711  22.000   7.625  31.696 -0.0067  0.0826  0.3356
25112W        W31712  13.962   5.721   4.485 -0.2480  0.1169 -0.0086
25113W        W31713  17.155   5.552  27.063  0.1975 -0.1282  0.2290
25114W        W31714   9.558   7.358  25.894  0.0848  0.0884  0.0767
25115W        W31715   6.044   2.422  24.721 -0.0298  0.0455 -0.1039
25116W        W31716  24.551   3.990  12.226  0.0001  0.3230  0.0171
25117W        W31717   0.402   0.359  19.882 -0.0278  0.0459  0.0015
25118W        W31718  24.846   5.472  22.537  0.0992 -0.0668  0.0593
25119W        W31719   7.881   1.877  15.869 -0.1162  0.0888  0.1536
25120W        W31720  11.836   4.799  32.100 -0.2540  0.1804 -0.1932
25121W        W31721   3.829   1.193   1.937  0.0269  0.1117 -0.1615
25122W        W31722  13.005   7.847  13.376 -0.0339  0.0790 -0.0038
25123W        W31723   9.104   1.412   4.524 -0.3461 -0.1844  0.1170
25124W        W31724   8.002   7.268  22.359  0.2670  0.2079  0.1216
25125W        W31725  13.936   1.112  13.891 -0.3344 -0.1754 -0.0119
25126W        W31726  23.078   0.197   7.034 -0.0493  0.1468 -0.3382
25127W        W31727  20.389   2.701  15.687  0.0651 -0.1281  0.2391
25128W        W31728   4.352   4.038  30.483  0.0207  0.1496  0.2252
25129W        W31729   8.573   7.859   5.332 -0.1384  0.0577  0.0876
25130W        W31730   6.481   2.365  26.089 -0.1769  0.0460 -0.0952
25131W        W31731   4.031   7.041  24.068  0.1783 -0.0415 -0.0389
25132W        W31732   5.175   7.274   7.401 -0.0218  0.0840 -0.0093
25133W        W31733  17.665   4.399   7.389 -0.0657 -0.4551 -0.1449
25134W        W31734  13.597   2.971  26.963  0.1007 -0.1217 -0.0602
25135W        W31735  16.716   4.171  16.352 -0.1162 -0.3333 -0.0174
25136W        W31736   1.137   1.614   7.123  0.1754  0.0305 -0.1222
25137W        W31737  24.466   7.149  32.377 -0.2334 -0.1395  0.0190
25138W        W31738  14.818   5.947  11.644  0.0253 -0.1970  0.2176
25139W        W31739  18.913   6.624  17.313  0.0992  0.0819  0.0601
25140W        W31740   1.499   3.617  19.210  0.1121 -0.1430  0.2250
25141W        W31741  16.214   5.256  10.677  0.2328  0.0048 -0.0027
25142W        W31742   5.276   6.555   5.260  0.0013 -0.3225 -0.1995
25143W        W31743   0.171   5.927   0.647  0.0993 -0.1091 -0.3924
25144W        W31744   4.009   7.012   2.250 -0.1216  0.2708 -0.0685
25145W        W31745   6.711   7.457  18.754 -0.1587  0.0894  0.0697
25146W        W31746   7.907   1.581  30.655  0.0460  0.0515 -0.0774
25147W        W31747  12.179   3.162  18.060  0.2389  0.0255  0.0628
25148W        W31748  25.077   6.227  22.663  0.2159 -0.1866  0.0001
25149W        W31749  18.526   2.598  10.972  0.2626  0.5402  0.2317
25150W        W31750  13.018   6.761  20.853  0.0705 -0.2303 -0.1438
25151W        W31751   2.198   4.312   5.880  0.1716 -0.1665  0.0262
25152W        W31752   6.163   2.805   5.390 -0.0249  0.1402  0.0759
25153W        W31753   1.869   1.501  19.188 -0.1658  0.0670  0.2968
25154W        W31754  20.725   2.142  30.433 -0.2320  0.1690  0.0243
25155W        W31755  12.363   4.594  18.538 -0.0044  0.0072 -0.1505
25156W        W31756  21.354   2.219  28.152  0.1626  0.0929  0.1047
25157W        W31757   8.326   0.312  25.227  0.1820  0.0674  0.4633
25158W        W31758  19.707   7.512  26.671 -0.2432 -0.3199 -0.0380
25159W        W31759  14.266   1.989  27.977  0.2155 -0.0455 -0.0152
25160W        W31760  23.619   3.297  12.133 -0.0618 -0.3370 -0.2846
25161W        W31761   6.134   4.506  18.917 -0.0700 -0.1546 -0.2609
25162W        W31762  18.508   5.062   2.743  0.0542 -0.1970 -0.0107
25163W        W31763   0.721   3.364   7.062  0.1432  0.2753  0.2399
25164W        W31764  15.679   3.963   2.704  0.0722 -0.3026  0.2665
25165W        W31765  16.793   5.936  24.691  0.3469  0.1805  0.2059
25166W        W31766  11.537   4.197   8.434  0.0406 -0.0435 -0.0353
25167W        W31767  20.845   6.444   8.617 -0.1513  0.3052  0.0547
25168W        W31768  16.097   4.482   6.441 -0.2714  0.0206 -0.2188
25169W        W31769  14.256   7.054   6.685 -0.0124  0.0476  0.0682
25170W        W31770   7.956   0.468   8.964 -0.0031  0.1624  0.1682
25171W        W31771   0.855   4.803  13.339  0.0410  0.2746  0.2072
25172W        W31772  10.043   0.017  24.089  0.2796  0.2175  0.0852
25173W        W31773  15.114   2.919   2.706 -0.1032  0.1128  0.3290
25174W        W31774  23.090   3.400  24.471 -0.0250 -0.1055 -0.1186
25175W        W31775  20.325   6.918  29.579  0.0638  0.0347  0.0560
25176W        W31776  17.719   0.126  32.287  0.0946 -0.2094 -0.1070
25177W        W31777  17.541   5.037  17.016 -0.1725  0.0229  0.0626
25178W        W31778   5.226   5.548   6.782 -0.1409 -0.1665  0.0338
25179W        W31779  11.909   1.552  29.257  0.0721  0.0600  0.1845
25180W        W31780   6.624   0.780  25.123  0.2430 -0.5963  0.0881
25181W        W31781  14.672   3.580   7.570  0.0521 -0.2620  0.0812
25182W        W31782   9.111   4.783  25.476 -0.0836  0.1157  0.1414
25183W        W31783  23.328   1.673   0.902 -0.0176 -0.0899 -0.2074
25184W        W31784   0.302   7.234   6.832  0.0360  0.0286 -0.0139
25185W        W31785  13.452   0.976  21.366  0.0787  0.0529 -0.1648
25186W        W31786  19.966   2.819  31.358 -0.0634 -0.2904 -0.2337
25187W        W31787   4.102   1.486  15.817 -0.0748  0.1373 -0.0303
25188W        W31788  13.447   7.141  20.565 -0.0540  0.2598  0.2407
25189W        W31789  21.198   3.383  31.140  0.1599 -0.0250  0.3455
25190W        W31790  21.867   5.058  29.718 -0.0784 -0.1347 -0.2259
25191W        W31791  24.710   0.200  21.722 -0.0128 -0.1406 -0.0838
25192W        W31792  17.762   1.408  29.995 -0.0735  0.2942  0.1444
25193W        W31793   1.850   4.487   4.494 -0.1072  0.3328  0.0973
25194W        W31794   3.310   1.589  31.399 -0.2073 -0.0644  0.1152
25195W        W31795   3.611   5.366  21.766  0.1027 -0.4361  0.3958
25196W        W31796  23.228   6.215   1.784 -0.0659  0.0073 -0.0879
25197W        W31797   1.083   1.467  22.930  0.1783 -0.0796  0.1809
25198W        W31798  11.324   5.548  30.267  0.2146 -0.0567  0.1945
25199W        W31799   2.711   1.008  11.569  0.0440 -0.0710 -0.2024
25200W        W31800  17.134   2.579  30.109 -0.1936 -0.0137 -0.0842
25201W        W31801  18.343   7.347   4.606 -0.0058 -0.1303 -0.0571
25202W        W31802   9.458   7.407  17.779  0.1085 -0.3278 -0.2881
25203W        W31803   2.138   2.993  32.354 -0.1553 -0.1749  0.1827
25204W        W31804  18.609   3.473  13.793 -0.0824  0.0382 -0.0319
25205W        W31805  11.348   0.548   2.897 -0.1232  0.1522  0.0592
25206W        W31806  20.418   2.419   9.565 -0.1582  0.0643 -0.1633
25207W        W31807   2.743   3.911   0.591  0.0175  0.1742 -0.0175
25208W        W31808  17.360   4.316  26.126 -0.2983  0.1911  0.1985
25209W        W31809   0.105   0.435   0.978 -0.3047  0.1079  0.1192
25210W        W31810   8.459   6.639   4.018  0.2403  0.1169 -0.1227
25211W        W31811   7.693   6.548   8.581 -0.2168  0.1699  0.0216
25212W        W31812  16.346   4.306  16.020  0.1259  0.1493 -0.0130
25213W        W31813   2.716   6.403  21.713 -0.3334 -0.0309  0.2070
25214W        W31814   8.103   5.690  25.382 -0.1510  0.3126 -0.1529
25215W        W31815  20.449   2.953  30.134 -0.5765  0.3068  0.1352
25216W        W31816   9.489   6.645  31.654 -0.3384 -0.0908 -0.0011
25217W        W31817  12.187   1.068  23.730 -0.0387  0.1169  0.1828
25218W        W31818  12.613   3.239  27.969  0.0545  0.2069  0.0566
25219W        W31819  17.924   3.035  29.313 -0.2064  0.2336  0.1054
25220W        W31820   5.839   1.706  31.714 -0.0317  0.1209  0.0980
25221W        W31821  11.265   4.025  20.724 -0.3084 -0.3092 -0.0975
25222W        W31822   0.242   7.519  10.944  0.0485  0.0860 -0.0800
25223W        W31823  16.047   4.098  15.278 -0.2358  0.2766 -0.1963
25224W        W31824  15.540   2.900  26.156 -0.0536 -0.0675  0.1005
25225W        W31825   6.907   2.837   5.809  0.0492 -0.0733  0.0701
25226W        W31826  16.577   7.443   0.634 -0.1090 -0.0285 -0.1999
25227W        W31827   7.683   7.364   1.126  0.0157  0.2166  0.0590
25228W        W31828  22.766   7.332  28.941  0.2588  0.1765 -0.1403
25229W        W31829  18.414   4.324  11.151  0.0996 -0.0641  0.0503
25230W        W31830   4.456   1.248  24.708  0.0090 -0.1081  0.3623
25231W        W31831  20.139   4.052  27.758  0.0025 -0.1351  0.1801
25232W        W31832  18.036   7.020  11.454 -0.3639  0.0062  0.1367
25233W        W31833  17.532   4.049  23.000 -0.1408  0.0663  0.1582
25234W        W31834   7.195   3.683   8.215 -0.3366 -0.1865 -0.0389
25235W        W31835  10.562   1.747  27.970 -0.0935 -0.1186 -0.0971
25236W        W31836   9.923   7.631  28.436  0.1330 -0.1645 -0.1521
25237W        W31837   3.528   3.694   0.078  0.0109 -0.2405 -0.0191
25238W        W31838  14.242   1.324   4.206  0.0147  0.5489  0.1633
25239W        W31839   9.000   0.426  15.323  0.1274 -0.1366 -0.0147
25240W        W31840  11.039   2.277  19.783 -0.0425 -0.2633 -0.2721
25241W        W31841   6.475   6.878   4.005  0.0240  0.0558 -0.1026
25242W        W31842   5.836   3.522  15.913  0.0811  0.0664  0.2619
25243W        W31843   6.528   2.933  31.345  0.1857  0.0175 -0.2291
25244W        W31844  22.484   6.032   7.215  0.1140  0.3928 -0.1521
25245W        W31845  12.493   7.736  12.551 -0.2922 -0.0543 -0.1664
25246W        W31846  15.091   3.117  31.766  0.0179 -0.0981  0.0072
25247W        W31847   2.681   3.962   1.458 -0.1052  0.2303  0.1713
25248W        W31848   3.276   3.313   7.047  0.1842  0.0055  0.0578
25249W        W31849   8.923   7.242   9.002  0.1052  0.3249  0.3030
25250W        W31850  16.937   7.699  14.422 -0.0125 -0.1459  0.2823
25251W        W31851   6.403   7.663  30.133 -0.2148 -0.0073  0.2506
25252W        W31852   8.348   7.528  19.527  0.0224 -0.1843  0.0596
25253W        W31853   6.945   2.089  26.181  0.0977  0.2325  0.1438
25254W        W31854   3.317   5.763  18.686  0.0724  0.1857  0.2497
25255W        W31855   8.245   2.554   1.025 -0.2218 -0.0108 -0.2806
25256W        W31856   6.406   2.525  26.857  0.1148 -0.0724  0.3116
25257W        W31857  19.639   6.747   7.569  0.1293 -0.2203 -0.4920
25258W        W31858   0.834   6.142   3.346 -0.0167  0.0855  0.1410
25259W        W31859  18.340   3.008  17.357 -0.1457  0.0295  0.2191
25260W        W31860  12.992   4.710  20.661  0.0522  0.0733 -0.3665
25261W        W31861  24.564   7.316  25.134  0.1592  0.2057 -0.0309
25262W        W31862   0.769   4.987   0.034 -0.0030 -0.0916  0.0675
25263W        W31863   2.808   7.442  19.366 -0.0047 -0.0313 -0.2463
25264W        W31864   3.845   3.143  29.152  0.1595 -0.1645 -0.4160
25265W        W31865  15.197   0.914   3.230 -0.1102 -0.3835  0.0355
25266W        W31866  20.828   5.451  14.524  0.1179  0.0376  0.0713
25267W        W31867  14.443   1.706   1.173 -0.4227  0.1163 -0.0600
25268W        W31868  10.625   3.356  27.054 -0.1635  0.0544  0.3927
25269W        W31869  22.773   7.217  24.042  0.0379  0.0195  0.0711
25270W        W31870   8.899   6.425   7.707  0.4082 -0.1656  0.0472
25271W        W31871  23.283   4.276   5.400 -0.0459 -0.1075 -0.0133
25272W        W31872  22.085   4.258  26.248  0.0887 -0.0753  0.2105
25273W        W31873  18.455   0.633  12.843 -0.0944  0.0197 -0.4411
25274W        W31874  17.609   1.420  24.637  0.0029  0.0968  0.0293
25275W        W31875  10.798   5.311   7.899 -0.1316 -0.1021  0.0658
25276W        W31876  11.989   6.061   0.757 -0.1201 -0.1141 -0.1433
25277W        W31877  14.462   1.605  30.221 -0.1536  0.0537  0.1934
25278W        W31878  18.307   5.661  14.665 -0.3080 -0.1434 -0.0291
25279W        W31879  15.056   6.703   2.209 -0.4723 -0.4700 -0.1573
25280W        W31880  18.375   5.240  29.994 -0.0297  0.1203 -0.1088
25281W        W31881   5.150   6.634  30.004  0.0811 -0.1088 -0.1600
25282W        W31882  21.289   6.198   9.200  0.1718 -0.0563  0.0143
25283W        W31883   2.621   2.023  23.813  0.1376  0.0323 -0.0994
25284W        W31884  17.853   4.850  11.922  0.0551  0.0867 -0.3840
25285W        W31885  24.339   7.680   2.568  0.2195 -0.0348  0.0212
25286W        W31886  24.621   5.573  11.362 -0.0958 -0.0391 -0.0386
25287W        W31887  10.593   0.228  10.807 -0.0060 -0.1061 -0.1624
25288W        W31888  23.341   4.458  26.627 -0.0056 -0.0094  0.0276
25289W        W31889  17.983   5.929  11.781  0.0905  0.0015 -0.0323
25290W        W31890   7.500   5.647  15.181 -0.0945 -0.2533 -0.0417
25291W        W31891   0.051   5.622   2.080 -0.2218  0.0900  0.0398
25292W        W31892  19.317   2.282  14.181  0.0268 -0.0452 -0.1394
25293W        W31893  23.311   7.231  21.881  0.0056 -0.2397  0.3283
25294W        W31894  15.449   6.700  28.401  0.1336  0.0605  0.0530
25295W        W31895   9.440   5.858  28.704  0.2615 -0.2886  0.1232
25296W        W31896  14.526   6.688  26.008 -0.0715  0.0842  0.0443
25297W        W31897  10.814   5.483   9.930  0.1741 -0.1929  0.0451
25298W        W31898  23.692   2.353   8.591  0.1267 -0.1039  0.0728
25299W        W31899  20.550   1.314  11.473  0.1883  0.2970 -0.2510
25300W        W31900   8.986   1.866   5.353  0.0407 -0.3055  0.1039
25301W        W31901  13.357   0.040  27.776 -0.1042 -0.2237  0.1683
25302W        W31902  11.115   6.656   1.722 -0.1234 -0.1122  0.0483
25303W        W31903  22.057   6.516  16.531 -0.0261 -0.0364 -0.0534
25304W        W31904   7.882   1.688  23.182 -0.0107 -0.2900  0.0935
25305W        W31905  19.362   6.480   6.003 -0.1811 -0.0904  0.1576
25306W        W31906  24.128   0.208   5.258 -0.0452  0.2583  0.0654
25307W        W31907   4.567   0.648  28.210 -0.1618  0.5455 -0.1626
25308W        W31908  19.216   4.832   1.695  0.0804  0.0485  0.0937
25309W        W31909   3.544   3.857   6.524 -0.0134  0.0459  0.0716
25310W        W31910  17.274   1.649   2.681 -0.1281  0.1598  0.0699
25311W        W31911   9.155   1.144   6.356 -0.0852 -0.0568  0.0747
25312W        W31912  22.085   5.831  22.820 -0.1522  0.4743 -0.1358
25313W        W31913  10.709   4.092   6.392 -0.0585  0.2933 -0.0120
25314W        W31914  19.980   4.104  21.678  0.3384 -0.0479  0.0698
25315W        W31915  20.632   5.355  25.226 -0.2948 -0.1087  0.0452
25316W        W31916  11.212   1.657   4.826  0.0737 -0.1818  0.0058
25317W        W31917   3.934   4.715  29.512  0.1872  0.1589 -0.0207
25318W        W31918   1.436   1.725  28.632 -0.0918  0.0337  0.0361
25319W        W31919  12.635   4.765   6.334  0.0319 -0.0016  0.1744
25320W        W31920  23.015   0.833  25.697 -0.0030  0.2334  0.0235
25321W        W31921  21.285   0.606   8.076 -0.0289  0.4067 -0.3738
25322W        W31922  19.220   4.563  10.326  0.0013 -0.2103 -0.1379
25323W        W31923  19.573   2.392  30.579 -0.1097 -0.0061 -0.2443
25324W        W31924  18.388   1.548  29.658 -0.0758 -0.0960  0.2139
25325W        W31925  21.806   0.192  30.799  0.0903  0.0826  0.0013
25326W        W31926  14.539   7.774   4.428  0.0438  0.1903  0.1749
25327W        W31927  18.522   4.318   8.544 -0.1204 -0.0540  0.2242
25328W        W31928  23.308   4.475  31.014  0.0884  0.2967 -0.1997
25329W        W31929  16.000   0.977  31.297  0.5343  0.0529  0.0917
25330W        W31930  19.615   4.740  14.377  0.1500  0.0197  0.2166
25331W        W31931   0.097   1.666  25.996  0.1748 -0.1039 -0.0900
25332W        W31932  10.322   4.352  31.055  0.1725  0.0576  0.2261
25333W        W31933  16.231   0.479   3.391  0.2723 -0.0721 -0.1326
25334W        W31934   3.936   1.041  16.786 -0.0514 -0.0264  0.1591
25335W        W31935  23.587   1.229  26.699 -0.1695  0.0771 -0.0039
25336W        W31936   0.201   7.454   0.122 -0.0743 -0.1134  0.2865
25337W        W31937  23.267   0.782  31.000 -0.2090  0.1570  0.0259
25338W        W31938  18.494   7.470   3.605 -0.1638 -0.1280 -0.2070
25339W        W31939  21.240   3.018  27.645  0.2382  0.1466  0.0543
25340W        W31940  10.101   5.952  20.748  0.1213 -0.0455 -0.2033
25341W        W31941  21.068   7.065  27.742  0.0157 -0.1338  0.0900
25342W        W31942   2.640   1.474   5.445 -0.2710 -0.1748  0.1228
25343W        W31943   8.702   4.887  17.765  0.0651  0.0709 -0.0147
25344W        W31944  24.548   5.492   7.447  0.2351 -0.1174 -0.1232
25345W        W31945  18.322   6.335  10.406 -0.1090  0.2120  0.3192
25346W        W31946  15.608   7.665  10.428  0.3921  0.0503 -0.3941
25347W        W31947   2.208   6.147  27.054 -0.1178 -0.0589  0.1626
25348W        W31948  12.358   1.179  12.762  0.2900 -0.0415  0.0568
25349W        W31949  22.671   3.120  30.535 -0.0494 -0.0962 -0.0485
25350W        W31950   3.540   2.857   5.935  0.0189 -0.0741 -0.1369
25351W        W31951  23.616   0.354  13.910  0.0051  0.1779  0.0664
25352W        W31952  21.865   7.059  23.615  0.2396  0.2172 -0.2907
25353W        W31953  20.367   3.061  16.708  0.0472  0.0835  0.1516
25354W        W31954   0.944   3.183   7.457  0.0277  0.1133 -0.1521
25355W        W31955  14.671   4.436  10.422  0.3711  0.3423  0.0168
25356W        W31956   5.371   4.172  24.289 -0.2800 -0.1142 -0.0949
25357W        W31957  13.019   6.067  19.994  0.2149  0.2147  0.0440
25358W        W31958  19.238   2.294  26.818 -0.2199  0.0305 -0.0486
25359W        W31959  23.476   2.335  29.458 -0.1561 -0.0239  0.1814
25360W        W31960  16.205   6.526  17.428 -0.2966  0.1959 -0.0903
25361W        W31961  17.624   6.374  14.462 -0.1758  0.0195 -0.2940
25362W        W31962  24.540   4.033  25.108 -0.2200  0.0721  0.3328
25363W        W31963   7.331   2.282  26.467  0.3221  0.0075  0.0901
25364W        W31964  23.179   0.378  32.537  0.0288 -0.1858  0.1194
25365W        W31965  21.094   1.275  10.357 -0.0484  0.0099  0.3081
25366W        W31966  11.965   1.819  19.949 -0.2909 -0.4105 -0.2125
25367W        W31967  16.058   4.450  21.968 -0.1581 -0.2910  0.1241
25368W        W31968  16.113   6.700  27.047 -0.0442  0.0221  0.0586
25369W        W31969   8.138   6.353   5.633 -0.2385 -0.2433  0.0395
25370W        W31970   5.080   7.286  20.781 -0.3480  0.3566 -0.2027
25371W        W31971  24.991   1.393  21.023 -0.0846  0.5557 -0.1533
25372W        W31972   1.855   3.148  20.896 -0.2264  0.0762  0.1790
25373W        W31973   7.080   3.178  25.301 -0.1213  0.0991  0.0934
25374W        W31974  12.551   1.800  10.207 -0.2637 -0.0646 -0.3470
25375W        W31975   8.466   2.108  27.351  0.0176 -0.0430 -0.0491
25376W        W31976  15.169   3.534   3.179 -0.2374 -0.1453  0.0054
25377W        W31977  12.595   4.129  10.890 -0.0118  0.2729  0.1975
25378W        W31978  21.550   1.088   1.107  0.2332  0.0657  0.1271
25379W        W31979   5.309   6.861  28.738 -0.0072 -0.2355 -0.2630
25380W        W31980   8.266   0.311  32.172 -0.0119  0.4392 -0.2606
25381W        W31981   5.714   2.641   2.622 -0.1207  0.0690 -0.1194
25382W        W31982  21.673   4.455  31.458 -0.0643 -0.0469  0.0685
25383W        W31983  14.334   1.414   5.829  0.0493  0.0922 -0.0289
25384W        W31984   7.521   4.926   3.270  0.0275  0.1627  0.0109
25385W        W31985  12.632   3.133   3.795  0.0653 -0.0786 -0.0794
25386W        W31986  16.729   1.739  24.472 -0.5399 -0.0145 -0.2788
25387W        W31987  22.352   6.395  26.821 -0.0667 -0.0473  0.2194
25388W        W31988  10.767   7.832   4.427 -0.0251 -0.0055  0.0888
25389W        W31989  18.470   0.874   7.359 -0.1823 -0.0383  0.0340
25390W        W31990  15.200   7.483   1.617  0.1007  0.1062 -0.2673
25391W        W31991  23.604   5.669  32.099  0.2153 -0.2336  0.1464
25392W        W31992  20.986   2.558   3.411 -0.1705  0.3117  0.1826
25393W        W31993   1.149   4.883   7.813 -0.1424  0.1748  0.2483
25394W        W31994  24.099   1.104   8.221  0.2712  0.2759  0.0454
25395W        W31995  12.846   5.249  29.957  0.0383  0.0542 -0.0980
25396W        W31996   0.684   1.913   5.212  0.1894  0.0947 -0.1805
25397W        W31997   4.018   7.851   4.456  0.0285 -0.2004  0.1075
25398W        W31998  14.865   7.066  13.252 -0.2525  0.2999 -0.2465
25399W        W31999  13.275   0.668   7.580  0.1257  0.1282 -0.1019
25400W        W32000  16.289   6.727   1.470 -0.0577  0.0960  0.0193
25401W        W32001  17.853   5.110  30.784 -0.0281  0.0198 -0.2092
25402W        W32002  14.165   7.265   2.591  0.1744  0.1156 -0.1890
25403W        W32003   0.903   5.716  28.566  0.0474  0.1055  0.1546
25404W        W32004  21.412   5.482   5.531 -0.1017 -0.1693 -0.0155
25405W        W32005  10.464   3.551   0.789 -0.1665 -0.1668  0.3661
25406W        W32006   6.430   0.835  29.180  0.1909  0.0214 -0.1686
25407W        W32007  18.137   1.280   4.941  0.1536 -0.0841  0.1859
25408W        W32008  13.883   3.979  12.282  0.2030 -0.0592 -0.2356
25409W        W32009  20.745   7.477  32.172  0.0301  0.0958  0.0267
25410W        W32010  16.895   0.373  11.541  0.3761 -0.2310 -0.4524
25411W        W32011  13.869   1.103  22.346 -0.0808 -0.0830 -0.0392
25412W        W32012  23.487   7.105  32.037 -0.0526 -0.2507 -0.1369
25413W        W32013  11.914   0.162   1.084 -0.1589 -0.2911  0.2572
25414W        W32014  19.229   0.388  25.632 -0.0789 -0.0218 -0.2236
25415W        W32015  19.506   5.128  22.443 -0.0897 -0.3162 -0.0363
25416W        W32016  23.005   4.751  25.702 -0.1046  0.2253 -0.0414
25417W        W32017   4.965   5.791   1.111 -0.2883  0.0687 -0.2073
25418W        W32018  15.215   2.969  22.308  0.2834 -0.0634 -0.0955
25419W        W32019  18.692   7.240  22.758  0.0110 -0.0195 -0.0366
25420W        W32020   0.931   3.529   4.525 -0.2196 -0.2324 -0.1982
25421W        W32021  20.153   5.772  28.561  0.0451 -0.1452  0.0228
25422W        W32022  14.215   7.751   2.340  0.1233 -0.1381 -0.1602
25423W        W32023  21.997   6.499   6.738 -0.2378  0.0257 -0.0170
25424W        W32024   9.086   3.783   2.751  0.2282  0.0592 -0.0538
25425W        W32025  18.386   1.783  23.929  0.3610 -0.2022 -0.1156
25426W        W32026  24.302   2.277   0.653 -0.0016 -0.2027 -0.1008
25427W        W32027   7.732   6.663  21.835  0.0510 -0.2348  0.0417
25428W        W32028  10.307   1.066  29.963  0.1765  0.1515 -0.0547
25429W        W32029  13.046   5.180  31.658 -0.0615  0.2842 -0.0069
25430W        W32030  16.035   5.779  28.034  0.3226  0.2292  0.0988
25431W        W32031  19.056   3.828   9.910 -0.1046  0.0020 -0.2911
25432W        W32032  23.973   6.334   3.475  0.0693 -0.0676  0.3696
25433W        W32033  20.706   0.434  13.204 -0.0912  0.2495  0.1788
25434W        W32034  22.494   6.008  15.953 -0.3230  0.0722 -0.2647
25435W        W32035  21.719   1.906   3.566  0.1542 -0.1163 -0.3373
25436W        W32036  18.315   6.646  11.704 -0.0318  0.0207 -0.0245
25437W        W32037   9.878   4.180  24.014  0.1485 -0.0574 -0.0347
25438W        W32038   9.662   0.746  20.223  0.0213  0.0402  0.0520
25439W        W32039   9.851   7.272  10.922 -0.1201  0.0984 -0.2738
25440W        W32040   2.008   0.895   4.359 -0.3483  0.3739 -0.1942
25441W        W32041  14.229   2.887  22.610  0.0707  0.1636  0.0328
25442W        W32042   7.276   6.110  27.205 -0.0480  0.1483  0.2420
25443W        W32043   5.472   3.937  18.663 -0.1884 -0.0964 -0.0662
25444W        W32044   5.501   5.424  24.862 -0.1598  0.3171  0.1116
25445W        W32045  17.036   0.838  31.705 -0.0839 -0.0485  0.0474
25446W        W32046  19.977   4.666  18.333  0.0771  0.1594 -0.0108
25447W        W32047   0.316   7.335  24.837 -0.1503 -0.0857  0.1828
25448W        W32048  22.327   4.293  11.551 -0.2126  0.1071 -0.0917
25449W        W32049  14.463   3.166  14.405 -0.1180 -0.0303  0.0003
25450W        W32050  14.394   0.631  12.277  0.1712  0.5421  0.1148
25451W        W32051  14.599   7.441   6.967  0.0253 -0.0706 -0.2731
25452W        W32052   1.440   2.696  27.887 -0.0063 -0.0570  0.3301
25453W        W32053  18.293   1.297  29.194  0.2590 -0.0787  0.0725
25454W        W32054   8.487   7.386  17.125 -0.0830 -0.1333  0.0873
25455W        W32055  14.153   1.605   3.728 -0.0075 -0.0282  0.2296
25456W        W32056   0.875   2.256  25.536  0.3687 -0.4377 -0.0218
25457W        W32057   9.383   0.302  22.321  0.1137  0.3060  0.3301
25458W        W32058  17.717   4.095  16.666  0.2408  0.1406  0.1682
25459W        W32059   5.256   3.168  26.515  0.0410  0.1089 -0.2545
25460W        W32060   5.537   2.825   3.159 -0.1586 -0.3184  0.1353
25461W        W32061   1.556   3.593   7.195 -0.0772 -0.1595 -0.0859
25462W        W32062   2.642   7.326  21.523 -0.1773 -0.0768  0.0886
25463W        W32063  17.950   1.836  11.273  0.2325  0.1138  0.1162
25464W        W32064   8.368   7.479  29.309 -0.0942 -0.3299  0.1870
25465W        W32065  18.484   5.518   1.570  0.1414 -0.0387  0.0962
25466W        W32066   6.076   6.191   1.259 -0.1018 -0.2686 -0.4402
25467W        W32067   8.655   1.123   6.353  0.1368  0.0435 -0.2118
25468W        W32068  21.414   1.980   9.447  0.1353  0.0876  0.1781
25469W        W32069  16.975   2.420   6.977 -0.0323 -0.0402 -0.2950
25470W        W32070   5.177   3.625  26.750 -0.0316 -0.0229 -0.0635
25471W        W32071  17.062   7.654  25.972 -0.1260 -0.0241 -0.2836
25472W        W32072  12.568   3.640   3.622  0.0243 -0.1868 -0.2174
25473W        W32073   4.120   1.478   6.380  0.1205 -0.0976 -0.1026
25474W        W32074  12.529   4.924   4.762 -0.1345 -0.1612 -0.3162
25475W        W32075   2.268   6.059  27.560 -0.1666  0.1436 -0.2971
25476W        W32076   7.549   7.047   3.320 -0.3065  0.0587  0.1644
25477W        W32077   3.610   7.458   0.921  0.2465  0.0758 -0.2418
25478W        W32078  11.929   7.649  27.074  0.0637 -0.4454  0.1330
25479W        W32079   4.539   7.008  24.788  0.1263  0.3039 -0.0034
25480W        W32080  19.344   0.523  13.563  0.0541 -0.1684  0.1533
25481W        W32081  20.427   6.857  28.519 -0.0550 -0.0937  0.0558
25482W        W32082  23.501   3.621  12.839 -0.0032 -0.2379 -0.1556
25483W        W32083  20.989   4.121   4.116  0.0759 -0.0465 -0.1979
25484W        W32084  16.797   4.217   0.067  0.3382  0.1446 -0.0038
25485W        W32085   3.490   5.241   6.786  0.1347 -0.2377  0.2244
25486W        W32086   1.979   6.238  21.997 -0.0609 -0.0074  0.4345
25487W        W32087  17.581   4.077  10.022 -0.1008 -0.2212  0.0297
25488W        W32088  16.261   7.784  14.493 -0.1395 -0.0683 -0.0038
25489W        W32089   0.286   2.285  20.731  0.0255  0.0852  0.0373
25490W        W32090  20.751   7.138   0.008  0.2695  0.1993 -0.4065
25491W        W32091   8.407   2.312  20.146  0.1746  0.0966 -0.0376
25492W        W32092  22.877   5.174  28.838 -0.0808  0.1702 -0.1786
25493W        W32093  10.791   7.151  23.824  0.1508 -0.2148  0.0095
25494W        W32094  20.002   5.265  16.935 -0.0412 -0.2457 -0.0764
25495W        W32095  15.113   3.556   7.297  0.1357  0.2443 -0.2258
25496W        W32096   2.774   5.497   6.142 -0.1195  0.1962 -0.3748
25497W        W32097  19.144   0.336  15.762 -0.3421  0.0938  0.0696
25498W        W32098   3.893   3.145  25.821 -0.0003 -0.1131  0.0175
25499W        W32099   4.804   3.288   2.881  0.0535  0.2195 -0.0801
25500W        W32100   6.620   1.046  17.941 -0.1898  0.0090  0.0145
25501W        W32101  11.488   1.235  30.051  0.0806 -0.0334 -0.3679
25502W        W32102  17.788   7.324   5.971  0.0622 -0.1120 -0.0265
25503W        W32103  22.574   2.548   3.837 -0.2431 -0.2158  0.3322
25504W        W32104  12.505   7.814  23.590  0.0339  0.2299 -0.0213
25505W        W32105  10.406   6.821  28.265  0.0776  0.1392  0.0922
25506W        W32106  10.448   6.173   4.156  0.1074 -0.1417  0.0473
25507W        W32107   1.527   6.247  28.846 -0.0241  0.1105  0.1560
25508W        W32108   2.240   1.462   2.233  0.2008 -0.0583 -0.0030
25509W        W32109  14.841   3.213  13.527 -0.3729 -0.0305  0.1101
25510W        W32110  19.639   5.606   2.916 -0.1312  0.1631  0.2809
25511W        W32111  13.275   3.007   4.097 -0.1486 -0.2847  0.0381
25512W        W32112  12.067   4.331   8.498  0.0395  0.3108 -0.0647
25513W        W32113  22.251   6.135  23.331  0.1045  0.1919  0.3068
25514W        W32114   3.839   6.182   4.643  0.1241  0.1351  0.0722
25515W        W32115  24.550   6.952   2.369 -0.2341 -0.1075  0.2602
25516W        W32116   7.166   7.743  21.034 -0.0190 -0.2299  0.1976
25517W        W32117   0.464   0.239   1.319 -0.2790  0.3341 -0.0991
25518W        W32118   8.360   4.460  25.969  0.0113 -0.0743  0.1150
25519W        W32119  21.922   5.180  25.958  0.0782 -0.2438 -0.1474
25520W        W32120   1.098   0.981   1.002 -0.0467 -0.0999 -0.1698
25521W        W32121   3.767   3.448  26.762  0.2125  0.1754  0.0410
25522W        W32122   9.810   2.579  22.080 -0.0106 -0.3431  0.2219
25523W        W32123  17.596   2.592  17.557 -0.1812  0.1569  0.2759
25524W        W32124  17.702   7.614  29.364 -0.1199  0.2743 -0.0465
25525W        W32125   8.113   4.600  30.804  0.0680 -0.2369 -0.1792
25526W        W32126  17.907   5.582   4.191 -0.0960  0.0421 -0.0113
25527W        W32127   4.766   0.378   0.138 -0.1004  0.1638  0.0081
25528W        W32128   7.450   3.897  23.893  0.1646 -0.1325  0.2296
25529W        W32129  14.372   7.842   0.364  0.2443  0.0447  0.3192
25530W        W32130  19.484   5.481  11.906  0.0581  0.0846  0.0154
25531W        W32131  11.194   6.168  22.089 -0.1876  0.0978  0.0174
25532W        W32132   7.885   1.951  31.009  0.1038  0.2335  0.0722
25533W        W32133   0.735   4.288  27.764  0.1179  0.0704  0.1206
25534W        W32134  23.512   4.773   6.250 -0.1330  0.0684 -0.1991
25535W        W32135  12.865   0.622  10.883 -0.1130 -0.0718  0.1088
25536W        W32136   8.265   7.499  24.175  0.0316  0.4009 -0.1011
25537W        W32137   4.888   3.186   5.886 -0.2091 -0.1866  0.0107
25538W        W32138   7.367   7.196  23.202 -0.1865  0.1386 -0.2150
25539W        W32139  14.668   1.852   5.835 -0.3752 -0.1957 -0.3382
25540W        W32140   3.189   2.637  18.035 -0.0899 -0.0450  0.1058
25541W        W32141   9.638   0.331   4.594  0.0172  0.0243 -0.1467
25542W        W32142  19.771   6.682  17.625  0.1350  0.1890  0.3529
25543W        W32143   6.744   3.228   2.136 -0.4073  0.0753 -0.0342
25544W        W32144   9.920   6.388   5.953 -0.3502  0.0028 -0.0336
25545W        W32145   0.980   5.893   0.627 -0.1499 -0.1411 -0.1941
25546W        W32146  17.418   1.990  26.296 -0.0286 -0.0293  0.0138
25547W        W32147  18.510   2.127  17.958 -0.1905  0.1847 -0.1047
25548W        W32148  18.280   3.666  27.608  0.1978 -0.1229  0.3986
25549W        W32149  23.356   2.422  14.779 -0.0650  0.0140 -0.0225
25550W        W32150   7.944   5.074   8.556 -0.0498 -0.1470  0.0628
25551W        W32151  14.419   2.375  21.551 -0.2208 -0.0572 -0.0721
25552W        W32152   8.742   5.451  29.003  0.1422 -0.0575  0.0368
25553W        W32153   9.389   7.374  16.481  0.0787 -0.2723 -0.1631
25554W        W32154   7.778   3.155  32.153 -0.1607 -0.0805 -0.0577
25555W        W32155  10.881   7.213   2.291  0.0401 -0.1191  0.2939
25556W        W32156   8.379   0.997   1.747 -0.1650  0.0989  0.2911
25557W        W32157  10.619   2.167   5.176 -0.1356  0.0807  0.1137
25558W        W32158  22.560   0.396   5.749  0.3347 -0.0362 -0.2232
25559W        W32159  23.126   2.644   8.398  0.0814 -0.0164  0.0299
25560W        W32160  24.472   1.639  24.046 -0.3485  0.0080  0.3267
25561W        W32161  24.712   6.126  25.757 -0.0766  0.1818  0.0036
25562W        W32162  12.109   1.133  31.369  0.2697 -0.0070  0.0686
25563W        W32163   1.236   0.176   1.580 -0.0067  0.2480  0.0585
25564W        W32164   8.373   3.748   6.406 -0.0014  0.0821 -0.1184
25565W        W32165  22.308   1.335   0.599  0.0131 -0.1337 -0.1796
25566W        W32166  24.052   6.508   0.411 -0.1924 -0.0135  0.0349
25567W        W32167  11.793   3.116  20.276 -0.1094  0.1095 -0.2737
25568W        W32168   1.041   0.616  28.621  0.1177  0.1398 -0.1350
25569W        W32169   4.888   4.621   9.476  0.0798 -0.1362 -0.1857
25570W        W32170   4.455   5.621   1.194  0.0628 -0.1475 -0.1691
25571W        W32171   4.215   0.943  19.094 -0.3072 -0.1208 -0.1571
25572W        W32172   3.397   2.802  31.497 -0.0090 -0.1804 -0.0974
25573W        W32173  25.095   5.465  11.496  0.2913 -0.1014  0.0786
25574W        W32174   6.985   1.228  20.572 -0.1054 -0.2739 -0.0411
25575W        W32175  13.345   2.117  23.949 -0.0392  0.0518 -0.1583
25576W        W32176  10.956   5.021  28.795  0.0474  0.3548 -0.0928
25577W        W32177  13.834   0.255  28.615 -0.0323 -0.1433 -0.1181
25578W        W32178  12.150   2.210   7.372 -0.0735 -0.0718 -0.0425
25579W        W32179  19.330   1.759   5.191 -0.3501 -0.0055 -0.1041
25580W        W32180  20.251   4.743  22.732 -0.1808  0.0868  0.2268
25581W        W32181  18.895   3.893  13.882  0.0203  0.2635  0.0378
25582W        W32182   1.826   0.146  17.677 -0.1960 -0.0916 -0.2144
25583W        W32183  13.918   3.972  21.924  0.1693  0.4005 -0.1527
25584W        W32184   8.906   3.960   4.465 -0.1024  0.0789  0.0970
25585W        W32185  13.614   6.703   9.362  0.1422  0.4405 -0.0394
25586W        W32186  19.892   2.470  31.874  0.0120  0.1561  0.0660
25587W        W32187   6.489   0.570  17.587  0.0673 -0.1855 -0.0266
25588W        W32188  10.005   4.221  31.980 -0.0076  0.1678 -0.1691
25589W        W32189  22.121   2.799   2.884  0.0488  0.6394 -0.0401
25590W        W32190  17.690   6.257  32.215 -0.0539 -0.3426 -0.0322
25591W        W32191   6.746   5.754  24.187  0.1001 -0.0360 -0.2457
25592W        W32192   2.597   6.751  30.433 -0.0999  0.2525 -0.3333
25593W        W32193   4.552   2.763   0.351 -0.0650  0.0977 -0.2212
25594W        W32194  14.193   1.450   5.297  0.0160 -0.2680 -0.2428
25595W        W32195  14.309   2.640   0.843  0.1895  0.1449  0.1177
25596W        W32196   1.793   4.974  24.000  0.0075  0.1552  0.1646
25597W        W32197   6.882   4.531   1.358 -0.0142  0.1868  0.1697
25598W        W32198  13.708   5.316   7.212 -0.0628  0.0349  0.1068
25599W        W32199  13.764   1.580   6.667 -0.0053 -0.0440 -0.4340
25600W        W32200  24.601   2.953   4.683  0.0482 -0.2870 -0.0993
25601W        W32201  22.228   5.494  10.999 -0.3246 -0.0993  0.0297
25602W        W32202   2.271   4.541   0.354 -0.0682 -0.1031 -0.0215
25603W        W32203  13.999   2.668   7.131 -0.3138  0.2290 -0.2555
25604W        W32204   3.402   1.134  17.712  0.0323  0.2210  0.2271
25605W        W32205  24.680   3.094   6.782 -0.0784 -0.1345  0.1276
25606W        W32206  19.755   6.359   2.186  0.0462 -0.0381  0.1467
25607W        W32207   1.053   1.583   8.880  0.2326  0.0089 -0.0423
25608W        W32208  24.022   4.737  14.755  0.0373 -0.1784  0.3396
25609W        W32209   7.164   5.419   3.869 -0.2559 -0.1609  0.0035
25610W        W32210  17.548   7.420  14.446  0.1114 -0.0142 -0.3578
25611W        W32211  14.098   4.788   5.574 -0.1867 -0.2170 -0.1006
25612W        W32212  20.639   1.888  27.534 -0.0355 -0.1227 -0.0079
25613W        W32213  23.213   5.619  23.544 -0.1854  0.1226 -0.0400
25614W        W32214  20.469   6.343  24.614  0.4273 -0.2595 -0.0716
25615W        W32215   1.459   7.568   7.826  0.3278 -0.3003 -0.2435
25616W        W32216  12.569   4.892   1.967 -0.1368 -0.2041 -0.1270
25617W        W32217  16.946   7.320   5.138  0.2101 -0.4827  0.0382
25618W        W32218   6.764   4.861   1.736 -0.0781  0.1147  0.0221
25619W        W32219  18.369   4.056  29.057 -0.0294  0.0019 -0.0617
25620W        W32220  14.678   2.492  28.537  0.1541  0.0313 -0.2364
25621W        W32221  15.528   1.288  10.879 -0.2411 -0.2311  0.0864
25622W        W32222  14.869   2.300   3.238 -0.3712 -0.1417 -0.1643
25623W        W32223  11.263   6.497  17.584  0.0361  0.1187  0.0790
25624W        W32224   9.058   1.082   1.012 -0.1117 -0.0842  0.1492
25625W        W32225  19.399   5.194  24.258  0.1172 -0.0543  0.1519
25626W        W32226  18.440   5.980   5.785 -0.1531  0.1361  0.1672
25627W        W32227  15.467   2.282  10.203 -0.0635 -0.0965 -0.0353
25628W        W32228   3.792   7.164   8.579  0.2186 -0.0261 -0.0792
25629W        W32229   5.346   1.399   3.712  0.1872 -0.1584  0.1742
25630W        W32230  20.003   3.759  24.607 -0.1132  0.1725  0.0203
25631W        W32231   0.189   5.771  22.835 -0.2955  0.0858  0.0916
25632W        W32232   7.256   3.077  21.213  0.0097 -0.0709  0.2773
25633W        W32233   2.029   5.633  32.270  0.1549 -0.2621 -0.0972
25634W        W32234  18.826   3.713  12.836 -0.0220  0.1180  0.1634
25635W        W32235  24.468   5.255  32.288  0.1044 -0.0964  0.0971
25636W        W32236  15.328   5.067   7.237  0.5680  0.1263 -0.0032
25637W        W32237  18.549   2.285  32.345  0.1124 -0.0383  0.0252
25638W        W32238  12.675   6.083  18.879 -0.0061  0.0633  0.3103
25639W        W32239  11.107   6.699   2.283 -0.0643 -0.0988  0.1643
25640W        W32240   2.580   4.034  27.777 -0.0592  0.1959  0.0916
25641W        W32241   9.440   6.768  27.241  0.1587  0.0217 -0.1499
25642W        W32242  13.547   0.751   3.355 -0.1815  0.1651  0.0810
25643W        W32243  15.146   0.186   0.789  0.0034  0.0880  0.0708
25644W        W32244   7.626   1.919  20.286 -0.0584 -0.2717  0.1274
25645W        W32245   2.395   6.334   4.031 -0.0836 -0.0685 -0.2881
25646W        W32246  20.219   1.622  29.376  0.1124 -0.0435 -0.0643
25647W        W32247  19.691   7.639   9.070  0.2098  0.3047  0.0883
25648W        W32248  23.105   4.619  21.413 -0.0413  0.1237  0.2713
25649W        W32249  23.866   3.562  28.532  0.0211  0.2278 -0.1264
25650W        W32250  20.138   7.577  11.153  0.1451 -0.0944  0.2739
25651W        W32251  16.597   6.752   4.647 -0.0615 -0.1213 -0.3224
25652W        W32252   4.980   3.660  23.866  0.0057  0.1024 -0.2036
25653W        W32253  15.917   3.440  31.893  0.3751  0.0501  0.0624
25654W        W32254  23.562   0.863   8.340  0.2770  0.1079  0.0437
25655W        W32255  23.781   3.532   9.756  0.2349 -0.1496 -0.0089
25656W        W32256  12.799   3.650  20.688 -0.2531  0.2261  0.0710
25657W        W32257  23.971   6.447  13.564  0.1443  0.1928  0.0782
25658W        W32258  18.361   3.448   8.154 -0.1630 -0.1083 -0.1001
25659W        W32259   0.536   6.860   0.547 -0.1835  0.0802  0.2605
25660W        W32260  12.530   4.378   8.202 -0.1990 -0.2104 -0.1027
25661W        W32261  12.866   6.693  27.043  0.0152  0.1443 -0.1128
25662W        W32262  14.551   7.419  15.349 -0.2906  0.3383  0.3093
25663W        W32263  24.119   0.984   0.637  0.0991  0.3064 -0.0417
25664W        W32264  20.758   0.429  29.853 -0.1442  0.0010  0.1987
25665W        W32265   7.734   5.472  17.063  0.0636  0.0089 -0.1371
25666W        W32266  24.649   2.902  12.607 -0.0797  0.0615 -0.2105
25667W        W32267  12.964   5.486   1.359 -0.0192 -0.1299 -0.1308
25668W        W32268  22.143   2.559   9.488  0.1834 -0.1709  0.2688
25669W        W32269   2.652   1.046  28.096 -0.1603 -0.1109 -0.1462
25670W        W32270   2.932   3.954   1.049  0.1300  0.1398  0.1641
25671W        W32271   5.984   2.111   0.619 -0.1206  0.1184  0.2633
25672W        W32272   6.451   2.833  15.641  0.1687  0.0492  0.0007
25673W        W32273  13.129   3.771   4.855  0.0679 -0.1074  0.0107
25674W        W32274  12.233   3.382  20.152  0.0906 -0.2032 -0.1351
25675W        W32275  24.070   7.152   8.102 -0.3632 -0.1641 -0.1535
25676W        W32276  12.942   2.631   2.951  0.1362  0.4114 -0.0175
25677W        W32277  13.252   4.429   4.534  0.0991 -0.0331 -0.3612
25678W        W32278   7.144   4.766  18.763 -0.2296 -0.0488  0.1291
25679W        W32279   9.519   2.232   9.260  0.1777 -0.3116 -0.0526
25680W        W32280  22.899   6.243  12.551 -0.2875 -0.1160  0.0262
25681W        W32281  23.321   5.196   2.364 -0.1743 -0.0476  0.0996
25682W        W32282  15.936   7.505  28.248 -0.1625 -0.1665  0.2640
25683W        W32283  14.841   5.905  31.917  0.0846 -0.0887  0.0436
25684W        W32284   1.436   1.215   8.144 -0.1421 -0.0998 -0.0383
25685W        W32285  16.805   0.763  25.839  0.3060  0.0976 -0.0917
25686W        W32286  21.086   3.613   4.154 -0.2293  0.1826 -0.0282
25687W        W32287   6.562   5.756   6.935 -0.0681 -0.0038  0.1521
25688W        W32288  17.314   5.295  30.083  0.1221 -0.2237  0.1119
25689W        W32289   6.527   3.510   1.715 -0.1764 -0.2014 -0.0088
25690W        W32290  11.008   7.447   1.122 -0.0841 -0.0079  0.1315
25691W        W32291   3.388   5.131  29.347 -0.1888  0.1138 -0.0623
25692W        W32292   3.257   5.453  19.529  0.0137 -0.0237  0.0235
25693W        W32293  12.043   2.291   3.893 -0.0430  0.5595 -0.2559
25694W        W32294   5.182   1.209  10.296  0.1224  0.0415 -0.0071
25695W        W32295  24.275   4.512   8.330 -0.1631 -0.0848  0.1738
25696W        W32296   4.468   1.170  19.474 -0.0609 -0.4274 -0.2828
25697W        W32297  10.657   0.146   9.266 -0.0094  0.0438  0.1576
25698W        W32298  16.371   1.462   4.202  0.0468  0.2337  0.1047
25699W        W32299  17.351   4.918  28.584 -0.2020  0.1458  0.4051
25700W        W32300   1.442   5.698  25.530  0.2282  0.2552 -0.3012
25701W        W32301  22.004   2.703  14.375  0.0356 -0.0051 -0.0045
25702W        W32302  14.496   2.857  10.343  0.0063  0.1849 -0.4954
25703W        W32303   5.028   4.372  28.477 -0.0945  0.0586  0.2411
25704W        W32304   8.405   4.336  18.966 -0.1381 -0.2646  0.0494
25705W        W32305   1.480   1.263  20.091  0.0532 -0.1845  0.0462
25706W        W32306  13.031   0.375  30.166  0.2043 -0.1696 -0.0774
25707W        W32307  18.486   5.900  10.606 -0.2102 -0.0962 -0.1050
25708W        W32308   4.539   5.218  15.127  0.0444  0.0247  0.2823
25709W        W32309  13.262   5.613   3.697 -0.1290 -0.1879  0.0369
25710W        W32310   8.606   4.603  27.989  0.4675 -0.1649 -0.0569
25711W        W32311  14.705   0.493  23.352 -0.1198 -0.2141  0.0732
25712W        W32312   6.410   0.536  28.067  0.1115 -0.1984 -0.1425
25713W        W32313  24.186   7.190  28.079  0.1415  0.0589  0.1106
25714W        W32314   2.295   1.725   6.909 -0.0066 -0.0183  0.0969
25715W        W32315  16.092   5.671  10.415  0.3199  0.2750  0.0295
25716W        W32316   7.788   6.657  27.251 -0.0439  0.0537  0.1864
25717W        W32317   4.974   2.617   8.441 -0.1776  0.2176 -0.3154
25718W        W32318  12.490   5.812  11.321 -0.3009  0.1425 -0.3503
25719W        W32319   8.813   0.773  23.196  0.0041  0.0195 -0.2669
25720W        W32320   4.683   7.376   9.058 -0.1938  0.2007  0.0673
25721W        W32321   2.061   4.544   2.693  0.1856 -0.2685  0.0319
25722W        W32322  24.512   2.644   6.161  0.0173 -0.0773  0.3923
25723W        W32323  13.809   4.343  27.001  0.0620 -0.2609 -0.1039
25724W        W32324  10.908   0.708  20.585 -0.0320  0.0580 -0.1191
25725W        W32325   5.558   5.060  30.972  0.3796  0.2240 -0.0539
25726W        W32326   3.969   4.979  21.619 -0.1827  0.1387  0.2038
25727W        W32327  19.670   1.676  27.805  0.2028  0.1526 -0.1957
25728W        W32328   6.590   3.857  18.504 -0.2686 -0.0538 -0.0862
25729W        W32329  19.345   1.734  13.883 -0.1235 -0.1950 -0.2661
25730W        W32330   1.512   0.448  21.611  0.0287 -0.0849  0.1014
25731W        W32331   0.572   5.582   9.340  0.1624 -0.0609  0.1116
25732W        W32332   6.870   0.710   8.054  0.1422 -0.0549 -0.0477
25733W        W32333   5.858   1.400  16.660 -0.0923  0.0619 -0.1315
25734W        W32334   9.441   4.091  31.225  0.1899 -0.1797  0.1350
25735W        W32335   5.027   3.848   2.215 -0.1920  0.1274  0.0182
25736W        W32336   3.716   0.343  26.275 -0.1366 -0.0805  0.0413
25737W        W32337   0.229   6.940  25.182 -0.0413 -0.1167 -0.0621
25738W        W32338   4.209   5.303  17.699  0.0908 -0.2178 -0.1000
25739W        W32339  13.425   7.381  12.839  0.1234 -0.0668 -0.0688
25740W        W32340  22.438   2.306  13.270  0.0137 -0.0853  0.2360
25741W        W32341  10.974   7.663  29.738  0.1124 -0.0053 -0.1417
25742W        W32342   5.567   7.731  29.125  0.0961  0.2104  0.1830
25743W        W32343  17.395   1.832  27.578  0.0398  0.0126 -0.2951
25744W        W32344  18.206   7.123  11.918  0.0044 -0.1530  0.0683
25745W        W32345   6.219   1.833   1.513 -0.1550 -0.1501 -0.2096
25746W        W32346  17.866   4.471  11.233  0.1243  0.1523 -0.1523
25747W        W32347  10.273   6.371  19.019 -0.0685 -0.2792  0.2964
25748W        W32348   4.657   0.659  19.458 -0.0163 -0.0055  0.1558
25749W        W32349  24.807   0.025  12.123 -0.1857  0.0260  0.1218
25750W        W32350  17.023   7.180  12.573  0.1401  0.3868 -0.0696
25751W        W32351  25.060   6.998  10.176 -0.0447 -0.1290  0.4006
25752W        W32352  12.079   7.271  20.897  0.1149  0.0058  0.0630
25753W        W32353  13.320   4.906  10.510  0.0915  0.2317 -0.0848
25754W        W32354  16.810   2.526   6.249 -0.1134 -0.0370 -0.1447
25755W        W32355  20.592   4.563  11.595 -0.1414  0.1446 -0.2197
25756W        W32356   9.372   7.203   8.459  0.1348  0.0213 -0.1198
25757W        W32357  10.532   5.147  23.712 -0.3170  0.0581  0.0965
25758W        W32358  16.003   3.469  21.453  0.1846  0.0810  0.2517
25759W        W32359  14.090   5.466  26.950 -0.1515 -0.1150 -0.2041
25760W        W32360  13.549   2.170   3.389  0.0631  0.3409  0.0174
25761W        W32361   2.521   5.642  30.199 -0.1314  0.3124 -0.0528
25762W        W32362  17.453   0.746  30.681  0.1120  0.0398 -0.0497
25763W        W32363  14.315   2.423   0.397  0.2406 -0.0447  0.1086
25764W        W32364  22.122   2.172  24.925 -0.1124  0.0106  0.1291
25765W        W32365  21.462   6.590  22.474  0.3063  0.1028 -0.5524
25766W        W32366  22.130   0.812  16.520  0.1688 -0.2594 -0.1152
25767W        W32367  15.794   6.955   8.688 -0.0069 -0.0889 -0.1135
25768W        W32368  14.765   4.543   0.532  0.0508 -0.1220 -0.2344
25769W        W32369  11.768   3.366  31.246 -0.1799 -0.3273  0.1785
25770W        W32370  15.368   7.612   6.507  0.1508 -0.2320  0.1670
25771W        W32371  22.566   2.323  27.046 -0.1390  0.1271 -0.0508
25772W        W32372   9.503   5.488  16.120 -0.0794 -0.1987 -0.1838
25773W        W32373   2.721   5.046  21.312 -0.0785 -0.0412  0.1945
25774W        W32374   9.496   7.086  23.916  0.2045 -0.1241  0.0552
25775W        W32375   3.129   5.288   9.451  0.0298 -0.3516  0.1880
25776W        W32376   9.691   3.282   5.380  0.3119  0.0195 -0.2400
25777W        W32377   2.024   7.697   8.110  0.1800  0.2272 -0.0058
25778W        W32378  17.195   3.535   9.035  0.1302  0.1231 -0.3611
25779W        W32379   1.329   1.530   2.291 -0.2457  0.0819  0.0406
25780W        W32380  15.843   4.927  32.497  0.2161  0.0142 -0.2360
25781W        W32381  15.595   6.651  28.906 -0.0429  0.1797 -0.0365
25782W        W32382  13.764   6.606  24.010  0.1338  0.4374  0.1158
25783W        W32383  18.091   6.130  25.208  0.0111  0.2022  0.0731
25784W        W32384  20.636   3.381   3.351  0.2952 -0.2174 -0.1817
25785W        W32385  12.282   4.436   3.541 -0.1894 -0.0522 -0.1256
25786W        W32386  13.326   1.084  30.859 -0.1428 -0.1294 -0.1044
25787W        W32387   5.460   5.330   9.072 -0.2056  0.2769  0.0135
25788W        W32388  10.938   7.585  31.342 -0.1861  0.0026 -0.1127
25789W        W32389  14.975   6.662  24.727  0.1414  0.3843 -0.0368
25790W        W32390  13.620   6.382   0.732  0.1500 -0.1156  0.2547
25791W        W32391  10.893   4.222   4.938 -0.0319  0.1633 -0.2014
25792W        W32392  17.916   4.448  24.713  0.0682 -0.1687  0.2071
25793W        W32393  14.350   3.082   7.139 -0.1184  0.0468 -0.0767
25794W        W32394  15.190   2.703  14.253  0.2882 -0.1145  0.2486
25795W        W32395  10.844   6.005   9.665  0.0466 -0.1208  0.1939
25796W        W32396   4.338   7.801  30.968 -0.2416  0.1470 -0.1692
25797W        W32397   8.416   7.488  15.375  0.2742  0.0983  0.0780
25798W        W32398   5.428   6.766  15.073 -0.1374  0.3901 -0.0376
25799W        W32399   3.153   2.269  21.203  0.0075  0.2711  0.0750
25800W        W32400   2.263   0.670   6.061  0.1034  0.0696  0.1334
25801W        W32401  19.240   5.972   2.881  0.1452  0.2549  0.0060
25802W        W32402  21.791   6.123   4.843 -0.0006  0.0154  0.0569
25803W        W32403  16.929   1.252  21.821 -0.1368  0.1407  0.0760
25804W        W32404   8.275   0.775   8.308 -0.3044 -0.0616  0.0691
25805W        W32405  20.038   1.803  26.834  0.2123  0.1241  0.0155
25806W        W32406  14.945   1.796  15.202  0.1657 -0.1084 -0.1528
25807W        W32407   1.074   4.791  28.538  0.0729  0.2438 -0.0294
25808W        W32408  16.057   6.945  30.816  0.1344  0.0030  0.1957
25809W        W32409  14.702   6.583  26.760  0.0589  0.1176 -0.2819
25810W        W32410  24.679   6.057  21.400  0.3510 -0.1937 -0.0529
25811W        W32411  14.065   4.441   3.121 -0.3116  0.2306 -0.2274
25812W        W32412   5.271   1.655  23.802 -0.2364 -0.1719  0.1178
25813W        W32413   7.934   7.707  23.236 -0.0330  0.1983  0.0694
25814W        W32414  13.820   1.919  30.371 -0.3441  0.0167  0.2095
25815W        W32415  12.987   7.115   3.097 -0.0160  0.1402 -0.0275
25816W        W32416  22.778   2.015  21.830 -0.0022 -0.2948  0.0220
25817W        W32417  20.730   2.046  13.044 -0.0204 -0.2176 -0.1439
25818W        W32418  17.641   3.662   8.816  0.0574 -0.1519  0.0380
25819W        W32419  17.920   5.495  31.118 -0.1776 -0.2161 -0.1529
25820W        W32420  20.938   2.998  24.967  0.0569 -0.1471 -0.4092
25821W        W32421   7.513   7.675  25.307  0.1276  0.1095 -0.0084
25822W        W32422  22.739   5.654   3.267 -0.1384  0.0669  0.0619
25823W        W32423   5.494   0.683  30.307  0.3959  0.1543  0.1787
25824W        W32424  15.724   2.216   2.094  0.1408 -0.1558 -0.0263
25825W        W32425   6.101   2.874  24.480 -0.5277  0.0458  0.2643
25826W        W32426   3.544   7.499   6.512 -0.0013  0.1278 -0.1639
25827W        W32427  16.670   7.184  25.866  0.4230 -0.3238 -0.0533
25828W        W32428   1.726   6.801  22.691 -0.0345  0.1005  0.0521
25829W        W32429  21.246   5.023   6.294  0.0646  0.0213  0.0263
25830W        W32430  25.002   3.911  29.886  0.1474 -0.1414  0.1081
25831W        W32431  24.152   4.333   7.031 -0.0833  0.0013  0.3938
25832W        W32432  23.859   7.251  25.789 -0.1638  0.2297  0.1624
25833W        W32433   0.158   5.410   8.028 -0.3849 -0.0857 -0.1329
25834W        W32434   6.286   3.728  24.246 -0.0389  0.3315  0.0108
25835W        W32435   7.947   1.871  14.387  0.3002 -0.0170 -0.0789
25836W        W32436  24.341   4.234  23.325  0.0433  0.1318 -0.2330
25837W        W32437  14.680   7.542  25.960  0.0872 -0.0620  0.2552
25838W        W32438  18.296   1.818   9.973  0.0197  0.2373  0.2396
25839W        W32439   1.511   3.569  20.861 -0.1921 -0.1434  0.2242
25840W        W32440  24.617   6.050  24.803  0.1206 -0.3076 -0.0187
25841W        W32441  17.492   4.074  28.853  0.0673  0.2533 -0.1610
25842W        W32442   6.473   7.392   3.995 -0.2268  0.0540 -0.2512
25843W        W32443  22.977   1.548  13.808  0.3427 -0.5144 -0.1852
25844W        W32444  10.927   1.167   9.134 -0.1243 -0.0348  0.1386
25845W        W32445  23.698   7.085   2.667  0.0970 -0.0491  0.0064
25846W        W32446  18.561   4.083   8.051 -0.0587  0.0442 -0.4135
25847W        W32447   5.910   4.710  18.512 -0.0704 -0.0556 -0.1866
25848W        W32448  11.576   4.627  23.656  0.0774 -0.1166  0.1004
25849W        W32449   8.490   3.247  19.488  0.0952 -0.1691 -0.1488
25850W        W32450   6.295   5.877  24.214  0.3312 -0.5531  0.3117
25851W        W32451   0.276   3.154   1.352  0.3976 -0.3219 -0.3387
25852W        W32452   7.829   7.836   2.645  0.1130 -0.0694 -0.0015
25853W        W32453  11.112   2.123   4.988 -0.3297  0.2500 -0.0358
25854W        W32454  12.435   5.527   6.807  0.2377 -0.0699  0.0585
25855W        W32455  12.455   1.615  25.185 -0.2108  0.1877 -0.0789
25856W        W32456  18.853   3.978  26.017  0.0450 -0.1437  0.0701
25857W        W32457   1.050   4.478   6.323 -0.0097 -0.1272  0.2899
25858W        W32458   0.554   1.122  23.063 -0.4237 -0.1209  0.0144
25859W        W32459  21.668   0.505  27.770  0.2706  0.3692  0.1344
25860W        W32460   4.068   5.670  23.807 -0.0045  0.1238 -0.0726
25861W        W32461   2.842   3.523  19.123  0.1952 -0.0841  0.3310
25862W        W32462  16.050   2.486  30.363 -0.3029 -0.1808 -0.0231
25863W        W32463   5.813   3.884  19.021 -0.0452  0.1765 -0.0391
25864W        W32464   8.933   7.363  29.394  0.0289 -0.1697  0.0119
25865W        W32465   0.659   5.787  11.767 -0.0239  0.2942 -0.1562
25866W        W32466  18.664   1.852  13.719  0.2351  0.1864  0.2179
25867W        W32467  15.449   7.815  11.348  0.1009  0.2406  0.1330
25868W        W32468   7.058   3.696  31.153  0.0868 -0.0547 -0.1977
25869W        W32469  18.253   6.536  23.381  0.0224  0.0139 -0.0618
25870W        W32470   9.156   5.828   7.570  0.2887 -0.0191 -0.0515
25871W        W32471   8.090   0.165   5.877 -0.1055 -0.1717 -0.0015
25872W        W32472  16.883   6.044  30.108 -0.0056  0.0602 -0.2202
25873W        W32473  17.293   0.056  26.851 -0.1422  0.0315 -0.0284
25874W        W32474  17.695   0.686  12.064 -0.3488 -0.3036  0.0417
25875W        W32475  12.773   5.102  29.079  0.0598 -0.2413 -0.0327
25876W        W32476  18.651   2.412  30.808 -0.2312  0.1111 -0.1223
25877W        W32477   4.403   6.954   1.910 -0.2636 -0.4734  0.1536
25878W        W32478  10.940   7.111  31.695  0.2253 -0.1018  0.2407
25879W        W32479  12.761   6.922  24.603  0.0967  0.3424  0.2374
25880W        W32480  13.773   4.349   9.881  0.2959 -0.1617 -0.0828
25881W        W32481   9.649   0.477  17.411 -0.0783  0.2197  0.2055
25882W        W32482   2.407   6.055  20.827  0.3018  0.0925  0.1272
25883W        W32483  11.178   4.965   7.297  0.0171  0.2018 -0.2831
25884W        W32484   1.958   2.839  19.110  0.1789 -0.2855  0.2106
25885W        W32485   4.907   0.927  28.436  0.5852 -0.1632 -0.1858
25886W        W32486  11.724   4.116   6.576  0.0245 -0.0172 -0.3002
25887W        W32487  11.583   0.305   7.920  0.1082  0.0242 -0.2072
25888W        W32488  10.388   0.469   5.252 -0.0592 -0.3079 -0.0010
25889W        W32489  16.866   7.085   5.971 -0.0916 -0.0709  0.1890
25890W        W32490   4.206   7.252   0.168 -0.0200 -0.2614 -0.1267
25891W        W32491   4.161   7.796  24.024  0.2426 -0.0540 -0.1083
25892W        W32492  14.907   5.392   1.240  0.0265  0.1504  0.0875
25893W        W32493  21.523   7.574   6.368 -0.0002 -0.0252  0.0121
25894W        W32494   4.388   5.263  16.935 -0.1864  0.0592 -0.3844
25895W        W32495  10.857   7.152   4.517 -0.2370  0.0226 -0.1360
25896W        W32496   4.456   4.837   4.502 -0.0378 -0.0807  0.1023
25897W        W32497  23.930   7.854   8.816 -0.2165 -0.2372 -0.1426
25898W        W32498  22.541   2.444  15.328  0.1428 -0.1229  0.0349
25899W        W32499   2.152   1.741   1.753 -0.3942 -0.1330 -0.2479
25900W        W32500  25.112   6.561  23.075  0.1950  0.0687  0.0785
25901W        W32501  10.268   7.408  28.146  0.0493 -0.2319 -0.6889
25902W        W32502  25.012   1.055  13.055 -0.1752 -0.0924 -0.1711
25903W        W32503  17.729   6.628  27.418 -0.0173  0.0366 -0.3382
25904W        W32504  24.993   1.864   4.229 -0.2719 -0.0683 -0.0759
25905W        W32505  18.912   0.534  25.261  0.1117 -0.0097  0.1702
25906W        W32506   9.380   4.534  17.469  0.1473  0.0323  0.0595
25907W        W32507  19.301   3.781  29.695  0.0965  0.3084  0.1408
25908W        W32508   5.119   0.841  21.715 -0.1041 -0.3089  0.4604
25909W        W32509   9.027   5.486  27.087 -0.1697 -0.1669 -0.1198
25910W        W32510  19.429   2.551   0.882 -0.4400  0.2272 -0.2969
25911W        W32511   6.801   0.371  32.161  0.1727 -0.0817 -0.1559
25912W        W32512  18.281   0.327  27.482  0.2705  0.0157  0.0739
25913W        W32513   2.746   5.182  25.689 -0.1927 -0.3066 -0.0502
25914W        W32514  19.527   5.304  14.928 -0.2232 -0.1673 -0.0200
25915W        W32515  14.979   0.816  27.161  0.1213  0.0485  0.4939
25916W        W32516   6.893   6.236  22.953  0.1605 -0.1856  0.0131
25917W        W32517   0.726   7.729   5.270 -0.1397 -0.0671  0.0097
25918W        W32518  17.419   4.917  16.003 -0.2122  0.2058 -0.0679
25919W        W32519  24.049   1.978  29.284  0.0611  0.1652  0.2534
25920W        W32520  16.786   7.859   5.795 -0.0356 -0.0389  0.0426
25921W        W32521  16.574   2.158   9.004  0.1427 -0.3277  0.0261
25922W        W32522   7.587   1.506  16.438  0.2754 -0.0026  0.0713
25923W        W32523  21.034   7.772  30.763  0.0894  0.1960 -0.0122
25924W        W32524  19.099   2.128  26.100  0.1776 -0.2630  0.0668
25925W        W32525   6.296   3.391   6.756  0.2905  0.1111 -0.1606
25926W        W32526  24.084   1.509   0.460  0.0409  0.1742 -0.0846
25927W        W32527  22.531   6.701  24.156  0.2416 -0.1314 -0.1949
25928W        W32528  24.776   0.420  25.535  0.0636 -0.0471 -0.0295
25929W        W32529  22.323   1.221  17.192  0.0407  0.1664  0.0296
25930W        W32530  16.299   7.511  10.799 -0.0904 -0.5276 -0.1424
25931W        W32531  13.743   7.541  30.406  0.0710  0.2317  0.0319
25932W        W32532   0.343   6.479  30.950 -0.2127  0.0150 -0.0449
25933W        W32533   2.507   4.969   7.738  0.0177 -0.1559 -0.2265
25934W        W32534  20.928   3.968   9.768  0.0537 -0.1136 -0.1015
25935W        W32535  14.799   7.259   3.058 -0.0885 -0.2891  0.1156
25936W        W32536  16.032   7.685  25.565 -0.1500 -0.0130  0.0278
25937W        W32537   1.522   7.148  28.442 -0.0521 -0.1278 -0.1040
25938W        W32538   0.911   1.352  13.006 -0.1222 -0.1451 -0.0285
25939W        W32539  18.478   1.360   4.117  0.0284  0.0351 -0.0681
25940W        W32540   2.048   1.088  18.652 -0.1562 -0.1309  0.1960
25941W        W32541   4.995   5.227   5.871  0.2855 -0.1813 -0.0836
25942W        W32542  14.352   4.753   5.010 -0.1695 -0.0175  0.0303
25943W        W32543   0.874   5.242  22.960  0.0313 -0.3051 -0.0172
25944W        W32544  21.252   7.539   3.933 -0.3463 -0.0292  0.2877
25945W        W32545   0.094   6.542  21.801 -0.4939  0.1716  0.0524
25946W        W32546  19.662   7.180  28.881  0.1923 -0.2834 -0.0515
25947W        W32547  24.895   7.340   0.185  0.0634  0.0781 -0.1193
25948W        W32548  10.932   0.257   1.700 -0.5340  0.0719 -0.1201
25949W        W32549  17.085   7.433   9.544 -0.0852 -0.1677 -0.0434
25950W        W32550   3.293   6.269  29.008 -0.1281  0.2688  0.2226
25951W        W32551  12.956   3.305   5.787 -0.3467  0.0750  0.2537
25952W        W32552  15.524   2.197  27.191 -0.0413  0.1982  0.0161
25953W        W32553   3.219   2.228   4.965  0.0876  0.0858  0.0148
25954W        W32554   3.715   3.589   0.512 -0.1060  0.0378 -0.1558
25955W        W32555  19.274   4.041  29.238  0.2093 -0.2061  0.0917
25956W        W32556  14.220   6.620  23.754  0.2903  0.2037 -0.1233
25957W        W32557  21.440   6.430  10.643 -0.1050 -0.0696 -0.3719
25958W        W32558  11.702   6.616   8.696 -0.0092  0.1974 -0.0619
25959W        W32559  24.468   6.796  31.584  0.1996 -0.1332  0.1399
25960W        W32560   6.799   2.356  27.720  0.1003 -0.1760 -0.0663
25961W        W32561  12.291   7.120  29.183 -0.0968  0.2740 -0.2262
25962W        W32562   8.920   1.678  15.673  0.1414  0.2095  0.2001
25963W        W32563  11.370   0.738  30.080 -0.0848 -0.0880  0.2841
25964W        W32564  17.101   0.907  10.735  0.1129 -0.0100  0.1258
25965W        W32565  11.999   0.222  22.049 -0.0092  0.2046 -0.3260
25966W        W32566  16.651   1.713  29.462 -0.0607  0.1945  0.0219
25967W        W32567  15.526   3.321   7.184 -0.1087  0.0794  0.0334
25968W        W32568   3.893   7.856  20.856  0.2223 -0.0705  0.1451
25969W        W32569  13.841   0.723  10.239 -0.0710 -0.0783  0.1064
25970W        W32570  19.471   0.998  12.902  0.0405  0.4002 -0.3311
25971W        W32571  14.646   4.224  13.282  0.1061  0.3996  0.0075
25972W        W32572  12.771   1.143  20.842 -0.1613  0.2797 -0.1115
25973W        W32573  11.501   1.848  31.295 -0.1091  0.0675  0.1087
25974W        W32574  20.911   4.192  23.906  0.0372  0.0734  0.0904
25975W        W32575   8.909   6.500   3.908  0.0468  0.1513  0.0773
25976W        W32576   6.203   1.804   2.756  0.2541  0.0501 -0.2255
25977W        W32577  14.992   7.240  24.038  0.0444 -0.0776  0.3010
25978W        W32578   4.402   4.247  31.457  0.0151  0.1664 -0.0294
25979W        W32579   7.196   0.581  25.851 -0.2122  0.3141  0.1662
25980W        W32580  15.664   0.147  31.505 -0.0176 -0.1319  0.3759
25981W        W32581  24.056   3.291  22.890 -0.0567 -0.0273 -0.0460
25982W        W32582  22.035   4.139   1.149 -0.0874  0.0002 -0.1817
25983W        W32583   6.038   2.213  25.318  0.0480 -0.4790 -0.1188
25984W        W32584  19.163   1.918  23.888  0.0744 -0.2515 -0.2543
25985W        W32585  18.442   6.089  31.992 -0.2077  0.2875  0.1837
25986W        W32586  17.594   5.836   0.485  0.0063  0.1901  0.1035
25987W        W32587  22.509   2.655  23.990  0.0633 -0.0907 -0.3038
25988W        W32588  19.777   5.018  11.897  0.0329  0.0521  0.1255
25989W        W32589  21.131   3.750  10.345 -0.0665  0.3752  0.0679
25990W        W32590   2.942   5.881  30.531  0.3795  0.1196  0.1909
25991W        W32591  13.558   0.805  25.303 -0.2389  0.1000  0.2399
25992W        W32592   3.257   1.753  18.651  0.2589 -0.0318 -0.0849
25993W        W32593  16.302   1.407   7.015 -0.1781  0.1603 -0.0083
25994W        W32594   4.723   2.095   0.931 -0.0187 -0.1342 -0.0582
25995W        W32595   7.564   4.024  20.113  0.0720  0.2112 -0.0166
25996W        W32596   6.096   5.634  32.457  0.0707  0.0387  0.1215
25997W        W32597  22.445   3.337  29.140  0.1642 -0.1271  0.0254
25998W        W32598  22.112   0.245  32.351  0.3076 -0.1267 -0.1683
25999W        W32599   8.438   5.963   2.066  0.0310 -0.1574 -0.4624
26000W        W32600  20.469   3.975  30.221  0.0547 -0.4676  0.2101
26001W        W32601   8.611   3.493   2.096 -0.2096 -0.4166  0.0603
26002W        W32602   4.500   7.835  24.740 -0.1831 -0.0039 -0.1713
26003W        W32603  18.635   6.275   9.838 -0.1286  0.1082  0.0156
26004W        W32604  23.773   1.388  21.205  0.1835  0.0424 -0.1162
26005W        W32605   9.905   1.894   5.491  0.0582 -0.1801  0.2121
26006W        W32606   0.267   5.623  21.878 -0.1041  0.2552  0.0513
26007W        W32607   8.921   3.862   6.401 -0.2881 -0.0240  0.2091
26008W        W32608   1.382   4.580   9.322 -0.0468 -0.0274  0.1088
26009W        W32609   7.450   7.744  23.214 -0.0688  0.3887  0.1598
26010W        W32610   2.884   1.748   0.027  0.1822  0.2107  0.1857
26011W        W32611  21.722   4.022  27.674 -0.0912 -0.0264  0.1641
26012W        W32612   6.681   3.063   4.054 -0.2900  0.2851 -0.1505
26013W        W32613  21.835   6.320  10.927 -0.1061  0.0581  0.0803
26014W        W32614  17.422   0.503  17.597 -0.1527  0.0398  0.0800
26015W        W32615  20.053   0.570  31.758  0.1097 -0.0878 -0.4096
26016W        W32616  23.254   1.159   8.619  0.0457 -0.2117 -0.2040
26017W        W32617   3.772   0.384  18.792  0.0894 -0.1769 -0.0328
26018W        W32618   0.839   4.890  30.898  0.2265 -0.2846 -0.2892
26019W        W32619  18.787   6.786  28.912  0.0877 -0.0639 -0.1419
26020W        W32620  15.519   3.879   0.685  0.0205  0.0206  0.2506
26021W        W32621  13.305   6.058  27.637 -0.3792  0.1335 -0.0102
26022W        W32622  11.455   1.151   2.516 -0.0868  0.0511  0.3912
26023W        W32623   0.762   3.923  23.667  0.0406  0.1578 -0.0761
26024W        W32624   2.702   7.383   2.546 -0.1112 -0.2628  0.0398
26025W        W32625   9.754   0.064   9.800  0.0173  0.1289 -0.0650
26026W        W32626  17.674   5.609   7.483  0.1693 -0.1523  0.0138
26027W        W32627   2.703   6.060  19.102 -0.0639  0.1848 -0.2121
26028W        W32628   8.308   2.238   3.044  0.0389  0.0533  0.0002
26029W        W32629  17.876   0.947  16.903  0.1633 -0.0429 -0.2279
26030W        W32630   2.956   7.587   3.405  0.3444 -0.0067  0.1628
26031W        W32631   3.928   4.496  22.903  0.0365  0.0209 -0.1686
26032W        W32632  24.577   2.624  10.556 -0.1878  0.1214 -0.0452
26033W        W32633   4.060   4.113  17.819  0.0139  0.3111  0.1180
26034W        W32634   5.475   1.704  27.550  0.0277  0.3413  0.2910
26035W        W32635  16.238   6.191   0.143 -0.0776  0.0301  0.1472
26036W        W32636   1.169   7.347   0.538 -0.1329  0.1914  0.2809
26037W        W32637  12.911   4.655  10.462 -0.3290  0.1069 -0.4219
26038W        W32638  10.971   7.676   2.560  0.1653 -0.1754  0.1595
26039W        W32639  16.886   0.872   4.360 -0.2108 -0.1310 -0.0589
26040W        W32640  21.145   0.622   9.212 -0.0219 -0.0307  0.2002
26041W        W32641  20.203   5.316  28.829  0.0637 -0.0002 -0.2875
26042W        W32642   4.971   0.065   5.281 -0.0499  0.1087  0.0422
26043W        W32643  22.561   5.102  32.487 -0.0491 -0.0802  0.0463
26044W        W32644   6.253   5.344   5.364  0.0982 -0.2407 -0.0502
26045W        W32645   3.601   3.688  26.097  0.0619  0.0825  0.1531
26046W        W32646  16.343   0.528   8.460 -0.2148  0.3417  0.0304
26047W        W32647   4.394   5.076   1.324  0.0929 -0.3206  0.2757
26048W        W32648  24.070   4.763  11.178 -0.0093 -0.1305  0.1726
26049W        W32649   2.913   2.253   1.673 -0.1427 -0.1080 -0.3060
26050W        W32650   1.512   2.215   1.430 -0.0004 -0.1424  0.0000
26051W        W32651  15.201   0.411  28.196 -0.0190  0.2591  0.0960
26052W        W32652   3.320   2.199  28.247  0.0078  0.0211 -0.2986
26053W        W32653  19.275   1.111  16.735  0.0723 -0.0544 -0.1235
26054W        W32654   5.841   3.611  25.116 -0.3040 -0.0510  0.1507
26055W        W32655   9.063   1.194  28.267 -0.0470  0.0683  0.2106
26056W        W32656  19.691   7.219   4.577  0.0101  0.0919  0.3169
26057W        W32657  24.132   5.427   1.920  0.0364 -0.0119 -0.0020
26058W        W32658  14.112   1.154   7.358  0.0945  0.2873 -0.0136
26059W        W32659   7.622   6.139   1.551  0.3496 -0.4438  0.1000
26060W        W32660  21.312   0.628  10.871  0.0020  0.0195  0.0937
26061W        W32661  18.408   2.740   9.176  0.0678 -0.0058 -0.1454
26062W        W32662  18.972   1.449  13.708 -0.1224  0.0566  0.0401
26063W        W32663   1.294   3.383   5.331 -0.1205 -0.2079  0.0987
26064W        W32664  13.869   2.464  24.066 -0.0944 -0.1356  0.3181
26065W        W32665   1.266   4.337  12.329 -0.0146  0.1985 -0.1373
26066W        W32666  10.974   6.915  22.968 -0.0514  0.4548  0.1269
26067W        W32667   8.671   2.520  17.298  0.3170  0.0002 -0.0375
26068W        W32668   0.391   6.065  21.419 -0.1706  0.2084  0.0397
26069W        W32669   4.144   3.553  22.699 -0.1391  0.0792 -0.1450
26070W        W32670   9.372   0.686  27.130 -0.1692  0.3929 -0.0524
26071W        W32671   6.129   0.660   9.066  0.2002  0.1818 -0.3028
26072W        W32672   7.121   7.749  28.378  0.1935  0.1963  0.0750
26073W        W32673   5.643   0.766   7.592  0.1911 -0.0272 -0.1531
26074W        W32674  12.754   5.351  25.293 -0.3391  0.2652 -0.0320
26075W        W32675   8.260   7.083  18.133  0.0698  0.4457  0.1010
26076W        W32676  25.080   7.362   2.044 -0.2516 -0.0040 -0.2343
26077W        W32677   9.778   5.882  31.751  0.0048  0.3358 -0.0898
26078W        W32678   8.188   5.185  20.027 -0.0529  0.0517 -0.3556
26079W        W32679  11.592   0.461   9.707  0.1251 -0.0490 -0.2503
26080W        W32680   2.770   1.351  10.452 -0.2134 -0.1012 -0.2510
26081W        W32681  17.547   1.815  12.655 -0.1583 -0.2645 -0.0823
26082W        W32682  22.422   4.085  24.691  0.1207  0.0836  0.2699
26083W        W32683  24.896   3.636  26.683 -0.0595  0.0834 -0.4018
26084W        W32684   5.788   5.036  16.952  0.0782  0.1206 -0.2772
26085W        W32685  15.070   4.684  11.608 -0.0064  0.1860 -0.0117
26086W        W32686   7.858   1.651   1.427  0.0749  0.1456 -0.1771
26087W        W32687   8.087   5.400  26.115  0.1229  0.1033  0.0653
26088W        W32688   4.943   7.702  28.745 -0.0997  0.0458 -0.2163
26089W        W32689  13.889   5.901   2.103 -0.1565 -0.1768  0.0468
26090W        W32690   1.226   6.302  26.898 -0.1642 -0.2066  0.1463
26091W        W32691  10.880   6.787   8.707  0.0880 -0.1223 -0.0565
26092W        W32692   6.237   1.591  16.930  0.1710 -0.0582  0.3697
26093W        W32693  19.434   6.526  25.527  0.0962  0.0462  0.0616
26094W        W32694  21.687   6.445  29.499 -0.4030 -0.1978  0.2389
26095W        W32695  11.865   7.119  19.277  0.1011 -0.2525 -0.1083
26096W        W32696  14.548   5.912  12.925 -0.0498  0.2542 -0.1619
26097W        W32697  20.070   2.492  12.659  0.0128 -0.3220 -0.3913
26098W        W32698   9.012   3.947   9.653 -0.1017  0.1502 -0.0972
26099W        W32699   4.252   7.503   5.099 -0.0775  0.1355 -0.0812
26100W        W32700   2.940   5.228   8.952 -0.1591  0.4145  0.1779
26101W        W32701  14.392   5.085  28.079  0.3341 -0.0187  0.1873
26102W        W32702  15.435   4.611  14.628  0.1472  0.0122  0.0507
26103W        W32703  10.076   6.117   2.668  0.2755  0.1022  0.1133
26104W        W32704   5.018   3.994   8.821  0.1552  0.0907  0.2411
26105W        W32705   4.626   4.482   1.407 -0.3816 -0.0115 -0.0480
26106W        W32706   2.433   0.055  23.757 -0.0446  0.4748 -0.0448
26107W        W32707   3.539   4.206   0.075  0.1748 -0.0041  0.0022
26108W        W32708   4.253   2.948   0.751 -0.0698  0.2297  0.1135
26109W        W32709  19.188   4.849  32.224  0.0301 -0.1917  0.0286
26110W        W32710   3.053   7.354  27.638  0.3179 -0.3466 -0.0365
26111W        W32711  12.372   6.868  28.560  0.0714  0.2556 -0.1316
26112W        W32712  19.861   7.860  10.887 -0.0785  0.1206  0.0259
26113W        W32713   8.076   6.851  32.506 -0.0701  0.0033  0.0537
26114W        W32714   6.776   0.060  22.598 -0.1303  0.1418  0.2283
26115W        W32715   3.010   2.447   4.564 -0.1838  0.2772 -0.1027
26116W        W32716  14.676   7.689  22.613  0.1007 -0.0304  0.0263
26117W        W32717   7.719   6.421  15.623 -0.2040  0.1402 -0.0966
26118W        W32718   4.378   1.334  17.856 -0.3300 -0.1985  0.1893
26119W        W32719  24.133   5.690  20.711  0.0829 -0.0644 -0.1033
26120W        W32720   2.264   2.523  26.108  0.4197  0.0905 -0.3464
26121W        W32721  18.333   7.218   7.143  0.0467 -0.2874  0.0758
26122W        W32722  23.277   5.438  30.859 -0.1889  0.0097 -0.0289
26123W        W32723  22.816   5.137   5.694  0.0369  0.0314 -0.2831
26124W        W32724   5.606   0.756  18.989  0.0889  0.1045  0.2299
26125W        W32725  11.456   2.825   1.352 -0.0476  0.0977  0.0780
26126W        W32726  11.319   4.372  21.557  0.0849  0.1135  0.0030
26127W        W32727   0.443   2.730   2.792  0.0524  0.1447  0.2977
26128W        W32728  12.157   0.754   1.883 -0.0648  0.1126  0.1020
26129W        W32729  10.406   4.780  25.785  0.1932  0.1430 -0.0626
26130W        W32730   9.537   7.025  18.061  0.0301  0.1126 -0.1280
26131W        W32731  19.633   2.089  13.596  0.0484 -0.2078  0.1961
26132W        W32732  15.815   3.009   9.149 -0.1272  0.0924 -0.1232
26133W        W32733   1.446   4.913   6.938  0.0413 -0.0746  0.1308
26134W        W32734   6.670   7.050  17.204 -0.1970 -0.2193  0.1961
26135W        W32735  20.711   1.603   8.352 -0.2202  0.2129  0.1279
26136W        W32736  15.547   0.951   5.779 -0.1674  0.2560  0.0178
26137W        W32737  14.915   1.881  28.773  0.1317  0.1276  0.3090
26138W        W32738  22.662   4.811  22.068 -0.2268  0.2175 -0.0695
26139W        W32739  17.910   2.442  27.453 -0.2438 -0.0917  0.0792
26140W        W32740   7.225   0.246  24.113 -0.0352 -0.3795 -0.0922
26141W        W32741  10.104   1.084  18.062  0.1443 -0.2512 -0.0867
26142W        W32742   6.542   2.257   1.501 -0.2242  0.2579  0.0516
26143W        W32743  23.671   6.770  23.032  0.0589 -0.2184 -0.1698
26144W        W32744   8.765   2.354   0.112 -0.3411  0.2741 -0.0583
26145W        W32745  23.690   7.077   9.367 -0.2069 -0.2722  0.4050
26146W        W32746  13.418   1.827  22.913  0.2093 -0.1180  0.2719
26147W        W32747  16.279   7.637  31.698 -0.2609  0.2489 -0.0566
26148W        W32748  18.369   7.536  26.642  0.3034  0.0212 -0.2386
26149W        W32749   6.675   0.589  19.675 -0.0187 -0.2065  0.1507
26150W        W32750   0.272   2.316  10.116 -0.2878  0.2190 -0.1258
26151W        W32751  22.253   6.454  13.220 -0.1277 -0.0966 -0.1012
26152W        W32752  21.764   6.737  32.086  0.1142 -0.0002  0.1908
26153W        W32753  16.106   7.507   1.231 -0.0081 -0.0661 -0.3435
26154W        W32754  11.036   3.674   6.815 -0.2004  0.1694  0.1463
26155W        W32755  21.606   7.605   5.297  0.1299 -0.1194  0.1184
26156W        W32756  19.832   0.297   0.423  0.2661 -0.0447 -0.0024
26157W        W32757  17.936   2.557   6.630 -0.4197 -0.4609  0.2004
26158W        W32758   0.798   4.405  24.643  0.0013  0.0193  0.0345
26159W        W32759  19.586   1.602  16.532  0.0254 -0.0589 -0.5052
26160W        W32760  19.387   3.240  23.241 -0.1888 -0.1030 -0.2467
26161W        W32761  10.806   3.740  31.443 -0.0291 -0.0089  0.0279
26162W        W32762   7.682   5.190  28.137 -0.2680 -0.0709  0.2876
26163W        W32763  23.370   2.558  23.088 -0.1098 -0.2186 -0.2384
26164W        W32764  11.591   6.771  28.686 -0.0823 -0.0441  0.1404
26165W        W32765   5.507   6.742  19.680 -0.1371  0.2034  0.0350
26166W        W32766  23.201   5.279   5.403 -0.1520 -0.1419 -0.1427
26167W        W32767  20.106   7.275   0.974  0.0882 -0.1224 -0.2362
26168W        W32768   8.578   6.360   0.512 -0.2372  0.0746 -0.0211
26169W        W32769   5.047   3.210  15.911 -0.0394  0.3226 -0.1183
26170W        W32770  21.177   1.976  26.819  0.1512  0.1560 -0.3412
26171W        W32771   9.523   2.729   3.088 -0.0697 -0.0525  0.0911
26172W        W32772  19.818   5.121  30.239 -0.2464 -0.0164 -0.0935
26173W        W32773   1.832   3.553  11.057 -0.2161  0.0326  0.1572
26174W        W32774   7.126   0.583  16.794  0.0035  0.1111 -0.0877
26175W        W32775  21.255   7.797   1.771 -0.0384 -0.2072 -0.0798
26176W        W32776  13.396   3.003   3.508 -0.0773 -0.1478 -0.3439
26177W        W32777  17.969   5.077  17.967  0.1792 -0.0733  0.1743
26178W        W32778   6.038   2.972  32.319  0.2585 -0.0566  0.2022
26179W        W32779  23.418   1.351  28.926 -0.2252  0.0964 -0.2838
26180W        W32780  13.603   2.990  25.928 -0.0619 -0.1931  0.1689
26181W        W32781   9.746   5.682   1.741  0.4892 -0.0302  0.1771
26182W        W32782  13.387   1.281  10.458 -0.0681 -0.1597 -0.0030
26183W        W32783   9.309   6.556  26.448  0.1314 -0.3253 -0.1840
26184W        W32784  23.694   5.550  30.521  0.3213 -0.0434  0.1188
26185W        W32785  19.446   6.936  18.715 -0.0330 -0.0830 -0.0297
26186W        W32786  20.312   3.362  24.793  0.0047 -0.0662 -0.0495
26187W        W32787  11.796   3.749   5.501  0.0193 -0.0154  0.0900
26188W        W32788   8.354   1.077   9.712 -0.2243  0.0233  0.2788
26189W        W32789  21.597   6.711  28.987 -0.2659  0.1734 -0.3288
26190W        W32790   7.237   7.412  17.741  0.2517 -0.0047  0.2804
26191W        W32791   1.895   1.141   0.569  0.2260  0.2434 -0.1390
26192W        W32792  24.254   6.004  25.472 -0.0329  0.0517 -0.3307
26193W        W32793   0.807   1.415  20.936 -0.2394  0.1811  0.1569
26194W        W32794  18.402   6.852   1.353 -0.1645  0.2723 -0.0745
26195W        W32795   9.615   2.083  29.482 -0.0845  0.0634 -0.2988
26196W        W32796   1.213   3.778  28.555 -0.3355 -0.0966 -0.1171
26197W        W32797  13.441   5.698  32.528  0.1097  0.0300 -0.0277
26198W        W32798  17.474   2.801  30.459  0.1010  0.0987  0.0815
26199W        W32799   4.875   0.789   7.047 -0.2904  0.2420  0.0746
26200W        W32800   6.593   7.855  23.721 -0.0069 -0.0670 -0.1749
26201W        W32801  21.920   0.280   5.623 -0.0190 -0.5479 -0.0301
26202W        W32802   7.976   3.539  31.134 -0.2344  0.4133 -0.2543
26203W        W32803  16.546   2.543  12.100  0.2665 -0.1959  0.2539
26204W        W32804   2.875   2.543  17.039  0.1175 -0.2377 -0.0200
26205W        W32805   0.454   5.114  31.487 -0.2452  0.2075  0.0366
26206W        W32806   9.336   0.471  18.201 -0.0274 -0.0137 -0.3066
26207W        W32807  19.201   6.360   1.488 -0.2319  0.0431  0.1375
26208W        W32808  21.010   5.786   5.943  0.0535  0.2321 -0.2365
26209W        W32809   3.593   0.500   6.903 -0.1496  0.1498  0.0095
26210W        W32810  18.184   5.359  23.965 -0.3235  0.0323 -0.2525
26211W        W32811   9.933   2.092  17.896  0.0929 -0.2098 -0.0136
26212W        W32812  10.453   2.568   3.664  0.1991  0.2214 -0.1438
26213W        W32813  19.683   5.483  27.297 -0.2570 -0.0207 -0.3582
26214W        W32814   4.727   3.592  27.974 -0.1025 -0.0435 -0.0344
26215W        W32815  11.396   4.944   4.424 -0.1502 -0.0359 -0.1935
26216W        W32816  24.646   7.042  15.421 -0.0376  0.0140 -0.0458
26217W        W32817  19.045   3.607   6.816 -0.0990  0.1311  0.0467
26218W        W32818  24.056   1.169  12.463 -0.0759  0.3641 -0.1485
26219W        W32819  11.138   2.986  24.994 -0.0226 -0.1339  0.2195
26220W        W32820  22.708   6.988   1.683  0.0590  0.3273 -0.1465
26221W        W32821   5.695   4.634   7.930 -0.1978 -0.0427 -0.3123
26222W        W32822  17.684   5.888  16.822  0.2247  0.2197  0.1451
26223W        W32823  21.237   2.770  23.921 -0.0872 -0.0303  0.0694
26224W        W32824  22.848   5.882   2.724 -0.0581 -0.3601  0.1061
26225W        W32825   0.176   7.507  23.859  0.0784 -0.0126 -0.2924
26226W        W32826  15.808   1.122   9.323  0.0391 -0.1686 -0.0985
26227W        W32827   2.523   3.637  10.587 -0.1080 -0.2023 -0.0534
26228W        W32828   3.718   0.959  25.495  0.3095  0.1744 -0.0405
26229W        W32829  11.484   4.208   4.230 -0.1907 -0.2346 -0.2803
26230W        W32830  13.975   0.094   2.788  0.0512 -0.1767  0.4111
26231W        W32831  13.893   5.462   0.146 -0.0569  0.0271  0.1712
26232W        W32832  21.882   5.002  29.251 -0.0845 -0.2842 -0.0811
26233W        W32833  18.462   5.962  17.966 -0.0113 -0.0485 -0.2900
26234W        W32834  13.746   3.040  22.204  0.0466 -0.0667 -0.0497
26235W        W32835  12.818   3.529   0.239  0.0293  0.3376 -0.1141
26236W        W32836   0.079   2.559  29.348 -0.0979  0.0037  0.0659
26237W        W32837  20.630   3.897  22.983 -0.0545 -0.1203 -0.0564
26238W        W32838  16.468   6.960  31.545  0.2179 -0.0434 -0.3130
26239W        W32839   4.956   7.783   7.431 -0.0042 -0.2236  0.0575
26240W        W32840  15.633   5.734   8.724  0.0330 -0.1365  0.0564
26241W        W32841   8.050   0.565   4.848 -0.3335 -0.1443 -0.2452
26242W        W32842  22.949   4.465   9.032  0.0016 -0.1643  0.0020
26243W        W32843   2.979   2.889  22.844 -0.1802  0.1614 -0.2710
26244W        W32844  14.876   4.231   6.306 -0.0696 -0.4164  0.1203
26245W        W32845   9.345   0.036  30.337 -0.0497 -0.0796 -0.0414
26246W        W32846   6.399   4.734  25.801 -0.0596  0.2393 -0.2898
26247W        W32847   3.213   1.196  20.403  0.0427  0.0325 -0.1993
26248W        W32848   2.629   0.924  31.516 -0.0284 -0.3024 -0.5921
26249W        W32849  22.157   2.816   7.441 -0.0548  0.0810  0.2227
26250W        W32850  17.192   5.311  15.722 -0.0247 -0.1210  0.0954
26251W        W32851  10.001   5.653  30.858 -0.1072 -0.3155 -0.1345
26252W        W32852  16.779   4.072   5.991 -0.0752  0.0073 -0.0108
26253W        W32853   1.690   2.280   9.104 -0.2241  0.2700 -0.0548
26254W        W32854  11.303   3.890  23.193  0.0158 -0.3192  0.2363
26255W        W32855  17.226   3.474  25.439  0.2244  0.1065 -0.0488
26256W        W32856   6.919   7.776  15.994 -0.3943 -0.1684  0.0405
26257W        W32857   2.854   4.346  25.817 -0.1612  0.3658 -0.1455
26258W        W32858   3.558   5.008   4.139  0.0889 -0.1047  0.0139
26259W        W32859  10.607   2.377  29.353  0.0929 -0.0022 -0.0718
26260W        W32860  16.479   4.963  24.754 -0.2377 -0.0887  0.0126
26261W        W32861   7.998   4.350  25.227 -0.2254 -0.0779 -0.1380
26262W        W32862  20.608   5.714   3.179  0.1333 -0.0738  0.1692
26263W        W32863  13.270   7.452  27.542 -0.1120  0.1360  0.2943
26264W        W32864  19.474   1.961  26.529  0.2012  0.0497  0.2932
26265W        W32865  12.910   7.395   7.946 -0.4268 -0.0799 -0.0378
26266W        W32866   2.539   0.633   9.128  0.0480  0.2021 -0.0853
26267W        W32867  17.399   7.169  12.055  0.1160 -0.1306 -0.0294
26268W        W32868  23.335   4.527   8.019 -0.2269 -0.0733 -0.0798
26269W        W32869  11.590   0.554  10.210  0.2385  0.2469  0.2985
26270W        W32870  22.113   2.683   3.840 -0.1825  0.0169 -0.0538
26271W        W32871  17.964   3.712   8.379 -0.1352  0.1142 -0.2309
26272W        W32872  18.939   0.873  26.305  0.2036  0.0589 -0.0003
26273W        W32873  15.924   2.469  23.367  0.1052 -0.0117  0.2274
26274W        W32874  15.547   5.717  24.125 -0.0453  0.0620  0.1107
26275W        W32875  20.378   1.353  13.428 -0.2097 -0.1717 -0.2152
26276W        W32876  22.259   7.118   2.495  0.0798  0.1057 -0.2822
26277W        W32877  15.780   4.703  30.607  0.1446 -0.0146  0.0095
26278W        W32878  12.483   1.354   9.394  0.0063 -0.0980 -0.2249
26279W        W32879   3.989   5.741  21.333  0.0418  0.0202 -0.1417
26280W        W32880   0.209   4.966  24.362 -0.1496  0.3779 -0.1186
26281W        W32881  17.224   4.638  14.494 -0.2154 -0.3957 -0.2449
26282W        W32882   4.304   6.759  30.279 -0.1324 -0.1622  0.0399
26283W        W32883   4.515   6.517   6.158  0.0455 -0.2696 -0.0446
26284W        W32884   9.561   7.125  24.921  0.1804 -0.0007  0.1335
26285W        W32885  12.689   6.852  29.831  0.2145  0.1487 -0.0141
26286W        W32886   8.593   2.842   1.988  0.4271  0.0721 -0.1054
26287W        W32887  10.929   5.191  19.578 -0.1785 -0.1124 -0.2219
26288W        W32888   2.897   7.846   7.180  0.0251 -0.0816  0.0154
26289W        W32889   8.782   4.605  26.172  0.0530 -0.0776 -0.2134
26290W        W32890  13.019   7.776   0.237  0.0828  0.1361  0.1899
26291W        W32891  16.493   3.083  32.429 -0.0109 -0.2259 -0.0368
26292W        W32892  19.004   3.306  16.423  0.1855  0.0982  0.0625
26293W        W32893  22.340   3.070   2.477 -0.0632  0.1957 -0.0684
26294W        W32894  20.841   0.385   7.883 -0.0265  0.2149 -0.0746
26295W        W32895  19.711   4.087  12.659 -0.0475 -0.0445  0.0940
26296W        W32896  12.156   7.750  25.469 -0.0670  0.0917  0.2050
26297W        W32897  18.788   6.380  12.698 -0.0055  0.0255  0.1725
26298W        W32898  20.155   6.441  11.080 -0.0158 -0.2788 -0.0103
26299W        W32899  17.478   1.627   9.076  0.0255 -0.1172 -0.2008
26300W        W32900   3.713   2.817   6.823 -0.1434 -0.0777 -0.0822
26301W        W32901  23.236   7.659   8.606 -0.1557 -0.0070 -0.1836
26302W        W32902   7.562   3.046  23.643 -0.2353  0.0564 -0.0847
26303W        W32903  20.594   5.764  22.908 -0.0635 -0.0223 -0.1502
26304W        W32904  10.333   7.756  25.128 -0.3066 -0.1358  0.0106
26305W        W32905   4.940   5.386   2.887 -0.1384 -0.4141 -0.2117
26306W        W32906  12.470   5.497  32.204 -0.1305 -0.1195  0.0360
26307W        W32907  10.640   2.785  28.956 -0.0239  0.1241  0.0164
26308W        W32908  22.874   3.881  14.628  0.0335 -0.1100  0.1598
26309W        W32909  15.431   7.288   8.715 -0.4951 -0.0462  0.3939
26310W        W32910  11.886   0.906   9.544 -0.3965 -0.2582  0.0712
26311W        W32911  18.260   0.325  10.174 -0.0777  0.0597 -0.1044
26312W        W32912  13.989   2.818   8.209  0.2595 -0.3448 -0.0987
26313W        W32913  18.731   7.043  31.492 -0.2344  0.0543 -0.0392
26314W        W32914   7.535   3.083   7.024 -0.0827  0.1949 -0.1003
26315W        W32915  13.503   0.764   8.784 -0.0209  0.3195  0.0291
26316W        W32916  24.185   4.271   7.886 -0.0472  0.1314  0.0326
26317W        W32917  18.912   0.783   0.416 -0.0735 -0.1055 -0.2924
26318W        W32918   9.216   7.107  30.782  0.1831  0.1690  0.2861
26319W        W32919   7.495   6.857   7.869  0.1645 -0.0770 -0.0558
26320W        W32920  24.637   0.837   7.466  0.1152 -0.0657  0.1221
26321W        W32921  22.494   7.784   6.664  0.2855  0.1132 -0.4402
26322W        W32922  20.375   5.048  29.207  0.0071  0.1366 -0.0106
26323W        W32923  18.371   7.334  24.656 -0.1106 -0.3406  0.1410
26324W        W32924   1.602   2.645  23.492 -0.0721  0.0160  0.0317
26325W        W32925  12.062   2.795  27.065  0.0375  0.2267 -0.0400
26326W        W32926  17.501   1.380  29.229 -0.0059 -0.1859 -0.0570
26327W        W32927  16.948   5.452  11.857  0.2856 -0.2193 -0.1467
26328W        W32928   8.411   5.497  23.874 -0.3414  0.0248 -0.0383
26329W        W32929   2.656   1.709  24.599 -0.0867  0.0955 -0.0069
26330W        W32930  13.388   6.823   5.167 -0.2744  0.1764 -0.2597
26331W        W32931  15.000   5.757  21.360  0.0558  0.1623 -0.1184
26332W        W32932   5.208   0.598  18.670 -0.3411  0.2359  0.0977
26333W        W32933  11.896   2.163  12.141 -0.0734 -0.3439  0.1277
26334W        W32934  18.279   5.951   0.559  0.2049  0.1388 -0.0906
26335W        W32935   1.201   5.231  25.749  0.0924 -0.1952 -0.2811
26336W        W32936  19.431   1.177  14.523  0.2035  0.3225 -0.1418
26337W        W32937  22.450   7.109   7.753  0.1803 -0.1307  0.1372
26338W        W32938  14.868   1.889   4.481 -0.1742 -0.0080  0.3182
26339W        W32939   5.098   0.295  16.734  0.1126  0.2901  0.0446
26340W        W32940  13.772   7.671   7.263  0.0093 -0.1352  0.0024
26341W        W32941  19.478   0.659   3.769 -0.2933  0.1197 -0.1221
26342W        W32942  19.309   7.476   6.983 -0.0239 -0.1992 -0.4472
26343W        W32943   1.030   2.977   9.649 -0.0780 -0.0843  0.3267
26344W        W32944   4.479   5.945  30.697 -0.0535 -0.2640 -0.2309
26345W        W32945   4.823   3.652   0.103  0.0034  0.1872 -0.1451
26346W        W32946  18.899   3.211  12.789  0.2570 -0.0243 -0.2138
26347W        W32947   9.550   7.507  21.613 -0.2640 -0.1536  0.1571
26348W        W32948  10.619   5.486  18.759 -0.1044  0.0716  0.0160
26349W        W32949  18.568   4.343  17.233 -0.4004 -0.1309 -0.0230
26350W        W32950   0.773   1.321   1.302  0.4473  0.0639 -0.4014
26351W        W32951   6.692   2.880  22.110  0.2941  0.1365  0.4284
26352W        W32952   3.715   3.378  24.598  0.1141 -0.3263 -0.2217
26353W        W32953  16.852   0.009   7.711  0.1763  0.0118 -0.1041
26354W        W32954  22.583   4.558   1.998  0.1865  0.0561  0.1098
26355W        W32955   3.690   4.397  17.569 -0.2905  0.0671  0.1978
26356W        W32956  17.076   1.506  27.922  0.4144 -0.0033 -0.3283
26357W        W32957  15.699   7.380  26.089 -0.4213 -0.0947 -0.4231
26358W        W32958   4.587   0.459  22.663  0.1400 -0.2019  0.2415
26359W        W32959   4.637   2.046  22.985  0.1492  0.2367  0.1874
26360W        W32960  11.885   1.476   2.445  0.3555  0.2498 -0.0496
26361W        W32961  24.442   1.178  24.717 -0.0169 -0.3092 -0.1682
26362W        W32962  19.130   0.311   3.745  0.1456 -0.2220  0.1506
26363W        W32963  15.113   0.205  13.073  0.0852  0.1991  0.0870
26364W        W32964  19.111   5.814   0.669 -0.2344 -0.0444  0.1232
26365W        W32965   3.595   1.015   1.528 -0.0198  0.2229  0.0143
26366W        W32966   2.573   0.628  26.245 -0.0986  0.0661 -0.2821
26367W        W32967  20.921   6.695   7.631  0.1017 -0.0950 -0.2831
26368W        W32968   7.723   2.608   3.328 -0.2761 -0.2044 -0.0447
26369W        W32969  14.219   6.862  28.831 -0.2719  0.0253  0.1513
26370W        W32970  14.383   7.093  24.416 -0.1999  0.0437 -0.2238
26371W        W32971   6.181   5.107  24.488 -0.1201  0.0861 -0.1057
26372W        W32972   8.770   4.162  23.779  0.0586  0.0494 -0.2841
26373W        W32973  11.344   5.094  27.366 -0.1219 -0.0434  0.3045
26374W        W32974  16.041   7.072   2.636  0.2330  0.0583  0.0347
26375W        W32975  22.711   7.502  26.220  0.1346  0.1821  0.2499
26376W        W32976   1.336   6.965  19.238 -0.0435  0.0039  0.0504
26377W        W32977  10.494   3.329   1.214 -0.2064 -0.1796  0.1710
26378W        W32978  19.388   7.797   3.375  0.0310  0.1375 -0.1503
26379W        W32979  16.906   1.187   7.228  0.0314  0.0389  0.0872
26380W        W32980   8.371   4.455   9.687 -0.1248 -0.0295 -0.0886
26381W        W32981   7.615   3.193  31.208  0.3803 -0.0649 -0.0637
26382W        W32982  13.626   4.980  12.404  0.2169  0.2043 -0.2497
26383W        W32983  11.057   2.208  18.962 -0.2328  0.4116  0.2757
26384W        W32984   2.908   6.942  30.768 -0.2029 -0.0358 -0.0838
26385W        W32985  15.439   5.806  15.542  0.3087  0.0032 -0.0788
26386W        W32986  10.655   5.275  19.978  0.2776  0.0119 -0.0852
26387W        W32987  21.838   7.702  11.129  0.0729  0.1454 -0.0728
26388W        W32988  24.598   1.430   1.827 -0.1416  0.1298  0.0312
26389W        W32989  10.629   5.941  25.993 -0.1332  0.0666 -0.0670
26390W        W32990   0.426   1.153  26.843 -0.1523  0.3037  0.2476
26391W        W32991   6.945   4.227  15.986  0.0633  0.0746  0.0886
26392W        W32992  23.687   1.330   3.646 -0.3005  0.0972 -0.1483
26393W        W32993   2.130   3.929  27.752  0.2042  0.2827 -0.2565
26394W        W32994   0.921   2.329  23.291  0.2079 -0.0011 -0.0506
26395W        W32995   4.333   0.858  24.213  0.2545  0.2242 -0.1323
26396W        W32996  11.227   0.749   2.352  0.1607 -0.2585 -0.2548
26397W        W32997  15.691   7.389   0.958  0.1316 -0.0056 -0.1613
26398W        W32998   3.989   2.301  29.647 -0.1791  0.1648  0.2700
26399W        W32999  15.581   6.480   7.678  0.0067 -0.0195 -0.0349
26400W        W33000   6.958   6.045  22.449 -0.2980  0.1060 -0.1032
26401W        W33001  14.597   3.703   4.841  0.0028  0.0869 -0.0900
26402W        W33002   5.491   7.744   8.774 -0.0363 -0.1340  0.0201
26403W        W33003  24.230   2.030  14.059  0.2353  0.1165 -0.0976
26404W        W33004  16.891   0.072  24.733 -0.0430 -0.0489 -0.0019
26405W        W33005  11.361   3.399  19.064  0.0276 -0.3397 -0.0471
26406W        W33006  21.679   6.365   4.390  0.1413  0.0274 -0.1869
26407W        W33007  18.838   0.928  31.939 -0.0212  0.1015 -0.0907
26408W        W33008  14.788   2.193  29.446  0.0753  0.0647 -0.3072
26409W        W33009   6.960   6.761  18.646 -0.0178  0.0077  0.2557
26410W        W33010   2.920   7.261  11.056 -0.1588 -0.2278 -0.2621
26411W        W33011  20.508   1.123  12.930 -0.1610  0.4033 -0.0838
26412W        W33012  10.107   5.250  23.310  0.1839 -0.1441  0.3537
26413W        W33013   3.993   5.559   1.334  0.1135 -0.3112 -0.2094
26414W        W33014   0.328   6.173   9.552  0.1763  0.0204 -0.0212
26415W        W33015  21.006   1.318   2.212 -0.2372  0.1238  0.2996
26416W        W33016  12.018   4.774   7.139  0.0071  0.1235 -0.3021
26417W        W33017  20.962   7.579   6.394  0.1599 -0.2094 -0.0328
26418W        W33018  20.161   4.970  26.718  0.0981  0.0369 -0.0843
26419W        W33019   9.836   7.806  30.124  0.0170 -0.0094  0.0624
26420W        W33020   3.978   4.439  18.446  0.2210  0.0071  0.1131
26421W        W33021  22.937   5.570  26.351  0.3726 -0.2644  0.1971
26422W        W33022  13.329   1.513  25.767  0.2938  0.0355  0.0531
26423W        W33023  10.671   7.491  26.787  0.1729  0.1406  0.3385
26424W        W33024  22.512   1.190   3.033  0.0357 -0.0480  0.0261
26425W        W33025   5.474   3.278  31.516 -0.1312 -0.3138  0.1577
26426W        W33026  17.590   2.177   2.106 -0.0676 -0.0640  0.2219
26427W        W33027   6.110   5.467   3.558  0.2868  0.0061  0.0103
26428W        W33028   8.864   6.032  10.062  0.2621 -0.2180  0.0490
26429W        W33029  19.153   7.033  14.053  0.3230  0.2265 -0.0709
26430W        W33030  15.051   1.776  12.044 -0.1811 -0.0496 -0.0599
26431W        W33031   7.390   6.017  15.509  0.1865 -0.1629 -0.0070
26432W        W33032  11.549   7.506  24.002 -0.0551 -0.2362  0.0777
26433W        W33033  22.148   2.871   8.729 -0.1562  0.3526 -0.2477
26434W        W33034   4.331   4.522  16.789 -0.2094 -0.0208 -0.0043
26435W        W33035  10.428   7.332  19.335  0.2473  0.1854 -0.0180
26436W        W33036   0.441   5.312  12.384 -0.0071  0.0010  0.0311
26437W        W33037  21.541   6.225  23.958  0.0332 -0.2230  0.2173
26438W        W33038  15.371   0.693   2.318  0.0244 -0.0140 -0.1064
26439W        W33039  23.815   4.299   8.190  0.2771  0.1869  0.0407
26440W        W33040  22.386   4.490  31.324  0.0483  0.0626  0.0096
26441W        W33041   0.477   0.482   0.641 -0.1634 -0.3128 -0.1147
26442W        W33042   0.002   3.318  24.878 -0.1318  0.0615 -0.1457
26443W        W33043  22.200   5.926   0.384  0.3201 -0.0612  0.2791
26444W        W33044  15.067   1.290  24.524  0.0553 -0.5016  0.1642
26445W        W33045  12.994   5.481  29.268 -0.1122 -0.2063  0.0548
26446W        W33046   9.063   5.549   4.130 -0.0989 -0.0033  0.3808
26447W        W33047  19.241   7.313   5.130 -0.1010 -0.1995 -0.0443
26448W        W33048  16.040   0.370   0.670  0.4038  0.0787  0.0457
26449W        W33049   1.097   5.319   1.826 -0.1179 -0.1403  0.2147
26450W        W33050  21.116   7.138  14.145 -0.0216 -0.0202 -0.0187
26451W        W33051  18.849   2.080   4.666  0.0457 -0.0347  0.2592
26452W        W33052   3.813   7.459  23.667 -0.2656 -0.4300  0.0507
26453W        W33053  19.854   6.868   1.871 -0.0376 -0.2154  0.3476
26454W        W33054  14.809   1.436   9.075  0.2324 -0.0285 -0.1575
26455W        W33055  20.435   5.911  11.131 -0.0079 -0.0401  0.0611
26456W        W33056  11.772   2.046   9.346  0.0818 -0.0417 -0.1648
26457W        W33057   1.659   0.700  22.412  0.1058  0.3590  0.1980
26458W        W33058  18.406   6.118   7.726 -0.2749  0.5678  0.0591
26459W        W33059  13.601   6.587  24.626  0.1806  0.2057 -0.0916
26460W        W33060  12.622   1.687   3.583 -0.0506  0.2056 -0.0609
26461W        W33061  15.230   3.084  30.219  0.2332  0.0963  0.0842
26462W        W33062  10.185   5.033  31.468 -0.0930 -0.0837  0.0521
26463W        W33063  16.123   4.148  12.861 -0.0488  0.1774  0.4617
26464W        W33064  15.183   1.162   4.616 -0.3983  0.2904  0.1927
26465W        W33065   8.185   1.597   1.064  0.1906 -0.1144  0.0137
26466W        W33066  23.411   0.250  27.317  0.3062  0.0372 -0.2067
26467W        W33067  10.443   2.263  23.834  0.1187 -0.2300 -0.2249
26468W        W33068  18.111   3.437   0.402 -0.0046  0.0868 -0.0046
26469W        W33069   8.120   0.383  15.129  0.1952 -0.0871 -0.0485
26470W        W33070   5.859   1.000   2.955  0.0725  0.0994 -0.1409
26471W        W33071  12.667   6.690   1.879  0.0538  0.1183 -0.2949
26472W        W33072  18.604   5.271  12.131  0.1738 -0.3436  0.3010
26473W        W33073   6.537   1.895  17.260  0.0446  0.1205  0.0048
26474W        W33074   2.600   0.853  19.201  0.0465 -0.0434  0.1229
26475W        W33075   4.109   0.876   1.671  0.2183  0.0027  0.1083
26476W        W33076  23.764   3.168   8.018  0.1885 -0.0554 -0.0690
26477W        W33077  20.938   0.137  16.361  0.0633 -0.4839 -0.1300
26478W        W33078   5.415   3.078  23.419 -0.0645 -0.1180 -0.2399
26479W        W33079  16.205   0.185  25.927 -0.2401  0.2156 -0.0752
26480W        W33080  22.490   7.007   6.268  0.2090  0.0383 -0.0835
26481W        W33081  12.605   4.201   5.915 -0.0262 -0.0548 -0.1129
26482W        W33082  20.108   6.031   5.286 -0.2820 -0.3012  0.2902
26483W        W33083   2.266   6.935  25.837  0.0517 -0.1393 -0.0480
26484W        W33084   4.622   6.781  10.803  0.2131  0.1544 -0.1270
26485W        W33085  25.067   7.678  12.491  0.1823 -0.1441  0.0681
26486W        W33086  12.783   1.357   3.901 -0.0839 -0.0291 -0.2823
26487W        W33087  23.049   5.152  27.451 -0.0296  0.1982 -0.0751
26488W        W33088  21.666   5.690   7.959 -0.1729 -0.1524  0.1198
26489W        W33089  16.632   2.415   8.086  0.3140  0.1317  0.1109
26490W        W33090  25.126   0.532   1.941  0.0736  0.0282 -0.4572
26491W        W33091  16.820   1.320   4.116 -0.0542  0.0192  0.1304
26492W        W33092  14.117   7.367  14.682 -0.1595  0.0767 -0.0360
26493W        W33093  13.667   4.069   4.450 -0.0989 -0.1972 -0.0206
26494W        W33094  15.304   2.063  26.160 -0.0766 -0.0368 -0.0866
26495W        W33095  15.698   5.019  13.875 -0.2700 -0.0113 -0.1298
26496W        W33096  24.322   4.235   1.063 -0.1109 -0.1361  0.1124
26497W        W33097   8.670   1.401  18.871 -0.0300  0.0650 -0.1822
26498W        W33098  20.454   7.225   8.026  0.1701  0.3984  0.1556
26499W        W33099  18.811   2.160   3.465 -0.2536  0.3167  0.1006
26500W        W33100  13.691   4.123   2.265 -0.1637  0.0202 -0.1351
26501W        W33101  21.412   5.113  29.484 -0.0812  0.0536 -0.1196
26502W        W33102  23.639   5.832  14.296 -0.1300 -0.0597  0.1606
26503W        W33103  22.001   1.466  22.755 -0.2041  0.0651  0.1054
26504W        W33104  13.692   5.624   3.421 -0.1955  0.0153 -0.2238
26505W        W33105  20.301   2.056  29.141  0.1804  0.1651  0.0942
26506W        W33106  22.848   2.819  23.631  0.0280  0.2614 -0.2335
26507W        W33107  10.841   5.914   3.994 -0.1025 -0.1846 -0.1646
26508W        W33108   0.522   6.040  30.763 -0.2212 -0.0295 -0.1364
26509W        W33109  15.202   5.162  22.823  0.1565 -0.1258  0.1266
26510W        W33110   0.661   3.500  24.609 -0.1238 -0.2160  0.1088
26511W        W33111  15.267   6.060  32.198  0.1170 -0.2002  0.0055
26512W        W33112  16.185   0.169  22.304 -0.2178  0.2165 -0.0414
26513W        W33113   1.953   1.302  26.863  0.2894 -0.1294  0.0101
26514W        W33114  15.646   2.742  10.138 -0.1145  0.1885  0.2382
26515W        W33115   0.854   6.044   0.166  0.1601  0.1310  0.0726
26516W        W33116   0.114   0.476  20.782  0.1557 -0.1790  0.0965
26517W        W33117   8.571   0.178   0.397  0.0093 -0.1909 -0.1535
26518W        W33118  17.322   4.602  16.744 -0.0697  0.1920 -0.4289
26519W        W33119  12.687   2.707  19.886 -0.2067 -0.0791  0.0682
26520W        W33120  18.281   1.601  31.382 -0.2307 -0.0309  0.1786
26521W        W33121  23.777   5.211   7.762  0.0931  0.0717  0.2319
26522W        W33122   3.085   6.799  22.590 -0.3974 -0.2173  0.3492
26523W        W33123  20.613   0.064  30.493  0.1867  0.1715  0.0637
26524W        W33124  22.053   2.847  26.192 -0.0221 -0.3442 -0.0750
26525W        W33125  21.665   1.709  12.630 -0.0467  0.3394 -0.1488
26526W        W33126   0.480   3.854   4.687  0.2103 -0.1439 -0.0100
26527W        W33127  11.150   2.077  27.308 -0.1311  0.0978  0.1530
26528W        W33128   1.167   0.451  21.227  0.0307  0.2819  0.0965
26529W        W33129   7.596   5.237   4.545 -0.0139 -0.1235 -0.2367
26530W        W33130   7.218   6.054  24.565 -0.0818  0.2952  0.0647
26531W        W33131  16.141   4.925  14.079 -0.1796  0.2797  0.0756
26532W        W33132   9.090   7.818  16.540 -0.0713 -0.0215  0.0512
26533W        W33133  24.150   6.360  30.250 -0.2465 -0.2019 -0.1233
26534W        W33134   3.502   2.363   1.434  0.2315  0.1649 -0.1151
26535W        W33135  23.644   6.341  23.386 -0.3413 -0.0219 -0.0667
26536W        W33136  10.530   0.824   6.919 -0.0952  0.1309  0.2041
26537W        W33137  22.064   3.424  22.496 -0.1104 -0.1337  0.1778
26538W        W33138   2.720   5.082   2.235  0.1604 -0.1797 -0.1318
26539W        W33139   8.103   0.239   0.077  0.0688 -0.0250  0.0299
26540W        W33140   0.280   2.157   3.441  0.2840  0.3594 -0.3791
26541W        W33141  17.664   5.890   6.987 -0.1383 -0.3273  0.0066
26542W        W33142   8.926   0.787  26.892 -0.0072 -0.1235  0.0124
26543W        W33143   4.404   7.381  19.268 -0.2656 -0.1922 -0.0565
26544W        W33144  17.727   5.009   8.471  0.2303  0.0202 -0.1101
26545W        W33145  21.563   5.135   5.895  0.0431  0.3429 -0.1238
26546W        W33146  20.448   6.077  23.331 -0.0699  0.2388  0.2473
26547W        W33147  20.059   6.277  17.895 -0.2121  0.0383 -0.1505
26548W        W33148   0.637   5.301  22.218  0.0982  0.0222 -0.1580
26549W        W33149   5.313   7.485  17.593  0.0661  0.2658 -0.3069
26550W        W33150  18.100   2.859  16.230  0.2043  0.1336 -0.1071
26551W        W33151   4.196   5.938  32.191 -0.0932 -0.2737 -0.2830
26552W        W33152   7.249   7.795  20.131  0.2128 -0.2784  0.4226
26553W        W33153  19.338   7.688  13.499  0.1580 -0.1156 -0.2347
26554W        W33154   7.407   5.155   2.492  0.0861  0.0359 -0.1407
26555W        W33155   5.942   6.323  26.909  0.2228 -0.5146 -0.1285
26556W        W33156   5.569   1.793  27.059  0.3395 -0.1067 -0.1788
26557W        W33157  16.681   3.100  29.402 -0.3268 -0.2032  0.1732
26558W        W33158  20.145   4.187   1.136 -0.2168  0.1383  0.0891
26559W        W33159  21.084   1.290   3.082  0.1242 -0.3676  0.1734
26560W        W33160   5.172   4.915   6.263 -0.0359 -0.2030 -0.1076
26561W        W33161   9.214   7.790   1.131  0.0425 -0.0348  0.0859
26562W        W33162   7.786   2.481   4.929  0.0309  0.2798 -0.1290
26563W        W33163  22.703   3.377  15.713 -0.3581 -0.1290 -0.0882
26564W        W33164   7.093   6.034  16.554 -0.0278  0.0704 -0.2119
26565W        W33165   3.445   7.071   5.832 -0.0672 -0.1134 -0.1807
26566W        W33166   1.636   0.753  30.648 -0.0426  0.2048  0.1535
26567W        W33167  23.275   6.159  15.043  0.0007  0.1060 -0.1397
26568W        W33168   6.277   3.980  18.867 -0.0404  0.0137 -0.4380
26569W        W33169  23.371   5.940  27.731 -0.3418  0.0369  0.0480
26570W        W33170   9.447   5.644  31.454 -0.3049  0.0113  0.2441
26571W        W33171  18.123   5.222  32.466 -0.0186 -0.1188 -0.2986
26572W        W33172  20.113   3.477   2.226  0.2885  0.0257 -0.0995
26573W        W33173  10.107   0.981  24.293 -0.0841 -0.1906 -0.0472
26574W        W33174   8.447   4.096  24.114 -0.1794 -0.0216 -0.2521
26575W        W33175   6.150   2.890  18.563 -0.0535 -0.0503  0.2294
26576W        W33176  17.884   5.966   0.976 -0.0353 -0.0386 -0.0281
26577W        W33177   1.180   4.183  24.419  0.2207 -0.1268 -0.2331
26578W        W33178  14.717   4.060  31.652  0.4122  0.0998 -0.3265
26579W        W33179  15.920   7.628   3.734  0.0765  0.2623 -0.0916
26580W        W33180  24.262   2.944   8.959 -0.0834  0.5226 -0.1154
26581W        W33181   2.553   0.515  27.358  0.2534 -0.1213 -0.2288
26582W        W33182  20.221   1.320  26.019  0.0785 -0.4113  0.0351
26583W        W33183  15.290   7.486  30.391 -0.0917  0.0236  0.0739
26584W        W33184  17.921   7.023   8.024  0.0624  0.3264  0.0727
26585W        W33185  17.711   5.898  28.648 -0.0905 -0.1133 -0.0898
26586W        W33186   0.370   1.094  31.539  0.0136  0.1580  0.1936
26587W        W33187   7.170   3.961  31.522 -0.1086 -0.4493 -0.2276
26588W        W33188  17.578   1.314  15.519  0.1968  0.1745 -0.0747
26589W        W33189  15.160   6.304  23.554  0.2296  0.0094 -0.2127
26590W        W33190  10.706   3.674  21.380 -0.2075  0.1395 -0.4708
26591W        W33191   8.701   2.827   3.814 -0.2051  0.0282 -0.1500
26592W        W33192  17.493   7.559  28.823 -0.1117 -0.2250  0.1006
26593W        W33193  16.601   4.311  30.370 -0.0458  0.4297 -0.0861
26594W        W33194   9.709   4.162  21.715  0.1846  0.2533 -0.1555
26595W        W33195  21.171   4.263  10.207  0.0231  0.2283  0.1473
26596W        W33196   3.858   4.364  30.430 -0.1730  0.0544  0.0073
26597W        W33197   6.151   1.872  32.222 -0.2657 -0.2577  0.1635
26598W        W33198  23.410   0.868  13.226  0.1967  0.1421  0.2302
26599W        W33199  11.706   2.354   8.327 -0.4289  0.1587 -0.0274
26600W        W33200   2.218   3.798  28.700 -0.1050  0.0764 -0.0998
26601W        W33201  16.716   2.578   8.734 -0.1089 -0.0221  0.1826
26602W        W33202  20.668   6.594  15.287 -0.0575  0.1177 -0.1815
26603W        W33203   5.064   0.606  26.372  0.1125  0.0565 -0.1220
26604W        W33204  15.825   1.252   3.403  0.1558 -0.0824  0.1362
26605W        W33205   4.520   2.072  24.250  0.0692 -0.1214 -0.1123
26606W        W33206  17.180   1.377   2.256 -0.1109  0.0443 -0.2199
26607W        W33207   4.975   7.333  29.648 -0.3038 -0.3557  0.1021
26608W        W33208  21.380   7.574   2.218  0.0735  0.0567  0.2599
26609W        W33209  21.953   5.495  27.071  0.2163 -0.2055 -0.1444
26610W        W33210   9.049   0.456   1.657  0.3428 -0.4572 -0.5008
26611W        W33211   1.679   5.032  26.212  0.0641  0.2177 -0.1174
26612W        W33212   8.098   0.990   3.686  0.0305  0.0841 -0.0011
26613W        W33213  12.451   5.324  12.560 -0.0715 -0.1005 -0.0483
26614W        W33214   8.561   5.934  28.878  0.0492  0.1288 -0.1266
26615W        W33215   4.374   7.588   4.099 -0.3272  0.0494  0.1160
26616W        W33216   7.200   3.207  24.465 -0.0940 -0.0439  0.2673
26617W        W33217  19.028   6.488  26.034  0.0771  0.0337 -0.0877
26618W        W33218   8.664   1.941   7.400 -0.0375 -0.3487  0.0293
26619W        W33219   2.155   2.659  10.334  0.0895  0.0913  0.1728
26620W        W33220   3.000   0.385   2.895  0.2228  0.1988  0.0927
26621W        W33221  25.053   1.867  24.272 -0.1827  0.1343 -0.2557
26622W        W33222  22.848   7.087  10.493  0.1276  0.0159  0.3068
26623W        W33223  16.387   1.592   7.459 -0.2371 -0.0965  0.1096
26624W        W33224  22.221   5.870  12.733 -0.2131  0.2227 -0.1372
26625W        W33225  21.229   6.293   6.660 -0.0232  0.1195  0.1480
26626W        W33226   8.078   0.470   2.896 -0.0050  0.7211 -0.1766
26627W        W33227  23.109   2.630   5.328 -0.1517 -0.0047 -0.2899
26628W        W33228   9.896   0.199  20.801 -0.1883  0.0442  0.0596
26629W        W33229  17.859   4.478  13.526  0.2529 -0.3159 -0.3826
26630W        W33230  13.889   7.682  10.891  0.0343 -0.0682  0.1214
26631W        W33231  12.776   4.198   7.072  0.0644 -0.1134 -0.1501
26632W        W33232  24.795   2.397   0.596 -0.1479  0.2102  0.0952
26633W        W33233  11.203   5.844   3.579  0.1589  0.0641  0.1281
26634W        W33234   4.013   1.530   1.078  0.2254 -0.0065 -0.0451
26635W        W33235  17.883   0.755   0.644 -0.2047 -0.1836 -0.1190
26636W        W33236   0.181   2.455   4.344  0.1490 -0.0312  0.1043
26637W        W33237  14.573   7.828  25.199  0.0145  0.2111  0.2540
26638W        W33238  18.434   5.194   1.968 -0.0799  0.1332  0.0893
26639W        W33239  13.576   6.976  21.775 -0.1474 -0.1100  0.3543
26640W        W33240   1.572   0.325  22.770  0.1625 -0.1838 -0.0210
26641W        W33241   0.935   5.712   9.037  0.2196  0.0357 -0.0915
26642W        W33242  10.157   5.307   2.986 -0.3609  0.5666 -0.0946
26643W        W33243  16.640   5.326   5.523  0.0683  0.2043 -0.0639
26644W        W33244   0.885   7.709   4.801 -0.0326  0.2699 -0.0988
26645W        W33245  13.750   6.953  23.675  0.1002 -0.2454  0.1382
26646W        W33246  16.989   5.654  29.776 -0.0632  0.2539 -0.3487
26647W        W33247  10.141   6.326  24.276 -0.2905 -0.3483 -0.3465
26648W        W33248  24.430   7.345   0.311  0.2645  0.2179 -0.0373
26649W        W33249  19.102   4.740  25.579 -0.1837  0.3064 -0.1845
26650W        W33250   0.239   7.314  28.642  0.0630  0.0295 -0.0173
26651W        W33251  22.740   7.064  25.067 -0.2836 -0.1165  0.2135
26652W        W33252  24.865   5.279  23.846  0.2605 -0.1094 -0.5170
26653W        W33253  17.070   0.297  17.279  0.1912  0.0197 -0.1264
26654W        W33254  17.731   2.987  27.102 -0.2311  0.0621  0.2117
26655W        W33255  20.464   4.372  27.492  0.0498 -0.1585  0.1298
26656W        W33256  11.137   5.132  20.057 -0.0056 -0.0264  0.0478
26657W        W33257   2.756   0.468   8.004 -0.0433  0.1732 -0.1288
26658W        W33258  16.798   2.693  10.932  0.2116 -0.0346  0.1522
26659W        W33259  18.598   2.309   7.826  0.1435 -0.4040 -0.3278
26660W        W33260   3.617   2.434  15.615  0.2202  0.1119  0.2054
26661W        W33261  14.507   4.021  12.414  0.0620  0.3469  0.1201
26662W        W33262  18.029   5.755  13.622 -0.3063  0.1083 -0.0452
26663W        W33263  19.175   4.486  15.511 -0.2383 -0.1399  0.2113
26664W        W33264   7.388   5.922  23.706 -0.0474  0.1188  0.0035
26665W        W33265  25.021   4.088  32.061 -0.1107 -0.1799  0.2680
26666W        W33266  12.972   7.221   4.068  0.0960  0.0836 -0.2493
26667W        W33267   0.528   4.602   1.687  0.3294 -0.4863  0.1211
26668W        W33268  22.885   4.037   6.709 -0.0492  0.0377 -0.1886
26669W        W33269   9.824   5.882   6.209 -0.1062  0.2057 -0.1309
26670W        W33270   7.569   2.488   2.695 -0.0105  0.0375  0.0318
26671W        W33271   1.339   6.215   3.804  0.0207 -0.2447  0.0416
26672W        W33272   8.033   1.635   2.416  0.1263  0.2512  0.2618
26673W        W33273  19.753   6.490   6.702 -0.0056  0.0056  0.1266
26674W        W33274   0.672   6.451   6.363 -0.0548 -0.2828  0.4059
26675W        W33275  23.871   2.799   2.677  0.0705  0.1666  0.1377
26676W        W33276  14.283   5.842   1.005 -0.0126 -0.0107  0.1304
26677W        W33277  16.680   0.790  15.780 -0.0864 -0.3200  0.3042
26678W        W33278  12.036   5.511   9.972 -0.3567 -0.1050  0.1595
26679W        W33279  21.658   3.209   1.808 -0.0664  0.2440  0.0085
26680W        W33280  17.282   5.786  14.877 -0.0087 -0.4616 -0.1098
26681W        W33281   9.383   0.248   3.132 -0.0176  0.0053  0.0626
26682W        W33282   4.089   5.324  28.654 -0.0329 -0.5277  0.0123
26683W        W33283   3.561   5.366   1.503  0.2159  0.3227  0.0421
26684W        W33284  13.965   5.960  27.193  0.0730 -0.1941  0.2836
26685W        W33285   9.106   5.192  24.572 -0.2681  0.4379 -0.0725
26686W        W33286   5.675   7.003  17.064 -0.1651 -0.2129 -0.1761
26687W        W33287  20.791   1.966  10.274  0.1402 -0.0648  0.0477
26688W        W33288  14.782   2.857  13.171  0.0621  0.0580  0.1589
26689W        W33289  18.917   2.073  16.696 -0.2210  0.2459 -0.0715
26690W        W33290  24.080   4.116   6.499  0.0668 -0.0334  0.0296
26691W        W33291  14.943   3.655  27.461 -0.0171 -0.0273 -0.0604
26692W        W33292  21.170   2.313  30.568 -0.2417  0.0248  0.0351
26693W        W33293   8.796   2.868   0.086 -0.0819 -0.1700  0.2151
26694W        W33294   6.221   3.709  10.320  0.0138 -0.2937  0.0376
26695W        W33295   9.643   0.199   0.942 -0.0292 -0.1492  0.1893
26696W        W33296  17.694   4.997  15.060 -0.4368  0.4106  0.1153
26697W        W33297  16.062   1.692  29.687  0.0559  0.0376 -0.4637
26698W        W33298   4.865   1.545   2.600  0.1038  0.1801 -0.1908
26699W        W33299  10.124   0.105  29.240 -0.0037  0.1090 -0.2298
26700W        W33300  23.772   3.743   2.991 -0.0908 -0.3263  0.1505
26701W        W33301  22.874   4.802  26.545 -0.0831  0.3327 -0.1179
26702W        W33302  14.754   7.142  26.748  0.0129 -0.3619 -0.2946
26703W        W33303  20.819   3.258   4.522 -0.1569 -0.0929  0.2203
26704W        W33304  16.430   6.993  28.713 -0.1258 -0.1530  0.1376
26705W        W33305   1.049   2.195   5.077 -0.2667 -0.0983  0.1093
26706W        W33306   4.026   3.794   0.847  0.0214  0.1423  0.2787
26707W        W33307  13.510   4.240   5.503  0.1718  0.1423 -0.1064
26708W        W33308  21.245   0.307  24.516  0.1022 -0.3825 -0.2894
26709W        W33309  24.694   6.091  27.591  0.3143 -0.0574 -0.4121
26710W        W33310  22.309   3.296  10.082 -0.0695 -0.1981 -0.2442
26711W        W33311   4.237   1.317   9.528 -0.1533  0.0596  0.0287
26712W        W33312   3.953   2.281  23.640  0.2287 -0.2492 -0.1208
26713W        W33313   7.720   5.356   0.844  0.2726 -0.3565  0.1082
26714W        W33314  10.128   1.571  28.833  0.1283 -0.0229 -0.1383
26715W        W33315  13.704   7.830   5.913 -0.0334  0.0145  0.0653
26716W        W33316  22.780   6.654   7.444 -0.1986  0.0357  0.0566
26717W        W33317   4.857   5.437  16.060  0.0259 -0.0806 -0.3318
26718W        W33318  18.069   7.672  32.451 -0.0440 -0.0807 -0.0371
26719W        W33319   8.505   3.106  20.027  0.0493 -0.2263  0.4582
26720W        W33320   8.500   6.488  18.530  0.0045  0.1791  0.0278
26721W        W33321   2.100   5.291   2.639 -0.2412  0.1862  0.3419
26722W        W33322   4.847   7.770  10.725  0.1273 -0.2452  0.1220
26723W        W33323  13.050   1.214  23.055  0.0331 -0.0063 -0.0869
26724W        W33324  13.271   4.365  10.257  0.0886  0.0222  0.2036
26725W        W33325   1.198   1.799  11.458  0.1494 -0.0605  0.0577
26726W        W33326  15.090   1.666  23.605 -0.0708  0.2579 -0.2862
26727W        W33327   7.077   2.068  20.776  0.0703  0.1909 -0.1044
26728W        W33328  15.209   6.953  29.023  0.1263  0.0609  0.1720
26729W        W33329  22.810   5.776  13.206 -0.2887  0.0604 -0.1377
26730W        W33330  17.397   4.929   0.628 -0.0892 -0.1749  0.0171
26731W        W33331   2.265   0.180  22.362 -0.0097  0.1625 -0.2392
26732W        W33332   3.344   7.607   2.277 -0.2182 -0.1935 -0.1683
26733W        W33333  19.467   4.695   0.917 -0.0451 -0.2022 -0.1066
26734W        W33334  18.858   6.571  16.442  0.1643 -0.0395  0.4354
26735W        W33335  16.667   1.079  13.004 -0.2151  0.1437  0.2306
26736W        W33336   7.975   2.875  28.807  0.1034 -0.1356 -0.3326
26737W        W33337  23.811   3.440  23.384  0.0521 -0.1134 -0.0031
26738W        W33338  12.694   4.972  19.788 -0.0483  0.2400 -0.1920
26739W        W33339  23.926   5.682  11.158  0.2829 -0.2729 -0.2227
26740W        W33340  18.524   3.943  21.985  0.1943  0.0561  0.1829
26741W        W33341  21.392   2.054  12.409  0.2369  0.0955 -0.1721
26742W        W33342   1.782   3.320  20.459 -0.1465  0.1107  0.1493
26743W        W33343  14.925   3.440  10.714  0.1199 -0.0275 -0.4584
26744W        W33344   6.256   3.080   8.602 -0.0911  0.0266 -0.2194
26745W        W33345   2.178   1.001  27.929 -0.0478 -0.1096  0.0210
26746W        W33346   1.939   5.849  20.615 -0.3619 -0.1865 -0.1367
26747W        W33347  10.062   5.488  15.896  0.2331  0.0794  0.1046
26748W        W33348  23.870   1.195  24.870  0.1976  0.0744  0.0604
26749W        W33349  20.567   0.027   6.232  0.2270 -0.0102 -0.0608
26750W        W33350   2.525   1.141   1.247  0.3459 -0.1409  0.1874
26751W        W33351   0.839   4.009   1.296  0.0518  0.1773 -0.0187
26752W        W33352   1.846   4.537  21.760  0.3797  0.2909 -0.2868
26753W        W33353  23.259   1.717  32.531 -0.1099  0.1331  0.1925
26754W        W33354  13.642   0.591  32.298  0.1716 -0.0364  0.1159
26755W        W33355  10.742   0.787   4.373 -0.2358 -0.0616 -0.1428
26756W        W33356   6.542   5.841  25.748  0.0756 -0.0154  0.0010
26757W        W33357   3.148   5.794  21.192  0.2336  0.0523  0.2904
26758W        W33358  16.450   5.531  23.682 -0.0153 -0.1020 -0.0163
26759W        W33359  23.990   6.262   6.019  0.0535 -0.1566 -0.1220
26760W        W33360   7.122   4.061  21.768  0.0230 -0.2072 -0.2290
26761W        W33361  19.826   2.941   9.109  0.0268  0.2448  0.1183
26762W        W33362   0.987   7.127  22.378 -0.1115 -0.2936 -0.1461
26763W        W33363  11.548   7.469   7.013  0.0869 -0.2340 -0.1776
26764W        W33364   3.041   2.692  24.841 -0.1115  0.1042 -0.0532
26765W        W33365   2.047   5.198   7.667  0.1813 -0.1501 -0.0233
26766W        W33366  15.768   1.946   7.947  0.2489 -0.1609 -0.2526
26767W        W33367  12.418   2.933   3.303 -0.2192  0.0158 -0.3536
26768W        W33368  18.483   5.401  10.638  0.1613  0.1883 -0.1174
26769W        W33369  19.490   0.659   8.035 -0.0110  0.1766  0.0427
26770W        W33370  15.590   3.308   8.802 -0.0455  0.2334  0.0236
26771W        W33371  19.197   3.356  17.890  0.0730  0.0242 -0.1589
26772W        W33372  18.580   3.564  16.466  0.1994 -0.0519 -0.2475
26773W        W33373  17.306   3.058   7.177 -0.1863  0.2444 -0.1711
26774W        W33374  18.790   4.253   4.388  0.2764 -0.0064  0.1812
26775W        W33375  18.885   2.473  22.659 -0.2274 -0.5952 -0.2319
26776W        W33376   5.194   3.229  28.760  0.2175 -0.3023 -0.0368
26777W        W33377  22.885   5.239  25.647  0.1294  0.0450 -0.2533
26778W        W33378  23.377   7.552  12.850 -0.2167  0.1164 -0.1481
26779W        W33379  19.849   1.066   4.814  0.0528  0.0162  0.1344
26780W        W33380   8.809   6.213  23.724  0.2750  0.1147  0.2532
26781W        W33381  12.111   0.312  10.112  0.0084  0.0940 -0.0219
26782W        W33382  16.573   2.956  16.787  0.0212 -0.0414 -0.1129
26783W        W33383  10.801   5.088  26.138  0.0600  0.1245  0.1108
26784W        W33384  17.721   4.132   6.465  0.0842  0.2311  0.0130
26785W        W33385  11.019   4.472  24.083  0.2978 -0.0800 -0.0169
26786W        W33386   7.814   6.652  31.369 -0.1423 -0.0767  0.0240
26787W        W33387   7.184   1.367  25.529 -0.2533  0.1772 -0.1536
26788W        W33388   9.388   7.632  29.349 -0.1554  0.1326  0.0061
26789W        W33389  13.898   2.169  11.063  0.0476 -0.4529  0.1136
26790W        W33390  18.474   2.499   4.494  0.0042  0.1072  0.1017
26791W        W33391  17.280   0.118  12.455 -0.1931 -0.3424  0.0092
26792W        W33392   8.411   2.006   2.569 -0.0360 -0.4586  0.3245
26793W        W33393   1.262   4.274  24.897  0.3296 -0.2777  0.2026
26794W        W33394  17.793   7.538  17.619 -0.1714 -0.3710 -0.0952
26795W        W33395   4.659   6.728   6.695  0.2619 -0.1716 -0.4508
26796W        W33396  21.286   5.140  11.858 -0.2843 -0.1966 -0.0514
26797W        W33397  24.910   1.515   7.015  0.0622 -0.0633  0.1450
26798W        W33398  18.355   4.414  13.636 -0.1902 -0.0977 -0.2638
26799W        W33399  21.954   5.929  32.507  0.4301 -0.1814  0.1686
26800W        W33400  23.137   4.010  12.598  0.1341  0.1345  0.0560
26801W        W33401  17.849   6.682  11.112 -0.2255 -0.1638 -0.1931
26802W        W33402   0.719   0.605   2.532 -0.0140 -0.2859  0.0713
26803W        W33403   9.472   0.866   1.579  0.0422 -0.1253 -0.0436
26804W        W33404   2.546   2.211  19.564  0.0176  0.0030 -0.1839
26805W        W33405  16.978   6.784  27.677  0.2506  0.1178  0.0765
26806W        W33406   3.640   2.333  20.387 -0.0677  0.2097 -0.0655
26807W        W33407   4.535   3.483   2.459  0.0008 -0.3099 -0.0013
26808W        W33408  23.357   5.511  28.752 -0.0012 -0.0760 -0.1343
26809W        W33409  14.200   3.273  11.815 -0.1278 -0.0302  0.1807
26810W        W33410  14.653   5.050  10.181  0.0641 -0.0379 -0.0893
26811W        W33411   9.486   0.576  15.305  0.0620  0.1939  0.3400
26812W        W33412   0.534   6.816  27.364 -0.3248 -0.1819  0.0264
26813W        W33413   5.097   5.201  22.610 -0.0391  0.0119 -0.0716
26814W        W33414  22.838   6.823  32.017 -0.0665 -0.2647  0.1132
26815W        W33415   0.633   5.649   7.722 -0.0474 -0.2206  0.0172
26816W        W33416  12.418   1.036   7.606 -0.1944  0.0377 -0.2116
26817W        W33417  15.320   0.035  24.722  0.0040  0.1635 -0.1521
26818W        W33418   7.101   7.446  23.543  0.0036 -0.0609 -0.0607
26819W        W33419  24.830   0.914   1.612 -0.1713  0.3316 -0.0226
26820W        W33420   9.513   3.982  31.792  0.0227  0.0798 -0.1031
26821W        W33421  15.901   1.758  13.560 -0.1494 -0.0229 -0.3328
26822W        W33422   5.381   3.223  30.570  0.0679  0.2542  0.2873
26823W        W33423   6.391   3.631  19.198 -0.0845 -0.0888  0.0339
26824W        W33424  16.274   2.010   0.145 -0.2138 -0.1012  0.1549
26825W        W33425   8.055   2.996  31.167 -0.1590  0.3079  0.2233
26826W        W33426   2.964   1.972  24.905  0.1805  0.1253  0.2060
26827W        W33427  23.382   1.873  15.729 -0.2345  0.0447  0.0118
26828W        W33428  14.961   5.914  22.822 -0.2801 -0.3011  0.0825
26829W        W33429  12.851   7.368  24.390 -0.1231 -0.1832  0.0591
26830W        W33430   7.488   5.484  20.173 -0.0509  0.1994  0.0278
26831W        W33431   1.249   1.526   4.195 -0.1925 -0.1407  0.1660
26832W        W33432  18.758   6.991  16.170  0.0365 -0.0660 -0.3418
26833W        W33433  16.046   6.885  29.097 -0.1233  0.0977 -0.1641
26834W        W33434  15.796   4.331   9.668 -0.1127 -0.0176 -0.2217
26835W        W33435   8.816   1.065   5.913 -0.1777 -0.0426  0.0229
26836W        W33436   0.400   7.244  12.258  0.3251  0.0505  0.4039
26837W        W33437   6.765   1.988  28.993 -0.0941 -0.3458 -0.2384
26838W        W33438   5.578   0.421   6.790  0.1761 -0.0014  0.2390
26839W        W33439  14.251   4.320  23.780 -0.0641 -0.2405  0.1043
26840W        W33440   6.917   7.489   5.558  0.1876 -0.0658 -0.0048
26841W        W33441  19.639   0.692   0.248  0.1879 -0.0049 -0.1720
26842W        W33442   5.398   6.553   7.046 -0.1205 -0.1135 -0.3231
26843W        W33443  18.416   4.287  26.696  0.1225 -0.1666 -0.1039
26844W        W33444  23.123   0.728  29.669 -0.1155  0.2431  0.1792
26845W        W33445   6.171   3.123   1.023 -0.0599 -0.1213  0.1950
26846W        W33446  17.049   3.276  29.037 -0.0837 -0.0220 -0.1669
26847W        W33447  15.135   1.187  22.732 -0.0564  0.0353  0.2243
26848W        W33448  19.065   1.073   4.411 -0.0478 -0.3849  0.2434
26849W        W33449  19.475   7.085  17.748 -0.0625 -0.3413 -0.2926
26850W        W33450  18.149   6.288  30.385  0.2899 -0.0606  0.2900
26851W        W33451   7.598   2.273  29.133  0.2645  0.1920 -0.0187
26852W        W33452  15.293   0.055  10.845  0.1055  0.1063 -0.1495
26853W        W33453   4.661   7.460  17.910  0.0614 -0.1856  0.0244
26854W        W33454  22.629   2.510   5.132  0.3026  0.1073  0.1705
26855W        W33455   1.413   4.842   6.208 -0.2585 -0.0943 -0.0207
26856W        W33456   2.928   0.998  24.939  0.1022 -0.3181 -0.0757
26857W        W33457  24.526   0.104  31.429  0.2174 -0.3892 -0.2291
26858W        W33458  15.789   5.022   3.039 -0.0658  0.1570  0.0669
26859W        W33459   5.076   4.905   5.007 -0.0636  0.0677  0.2108
26860W        W33460   7.181   3.472  23.871  0.1968  0.1987 -0.2577
26861W        W33461  19.646   3.462  30.172  0.1020  0.0847  0.0660
26862W        W33462   8.629   3.608  28.019  0.1524  0.0464 -0.1709
26863W        W33463   1.863   6.099   3.464  0.2197  0.3023 -0.3914
26864W        W33464   9.763   6.626  24.968  0.0857  0.1189  0.0167
26865W        W33465  24.677   0.983  23.264  0.0158 -0.2701  0.2143
26866W        W33466  23.246   3.726  29.236 -0.1616  0.1390  0.3074
26867W        W33467  10.889   0.802   0.369 -0.0399 -0.1248 -0.2342
26868W        W33468  17.521   2.181   5.842 -0.3479 -0.1372  0.0569
26869W        W33469  13.607   5.122   2.419 -0.0206  0.3019 -0.0252
26870W        W33470   0.723   1.925   1.059 -0.2520 -0.0034 -0.1772
26871W        W33471  21.707   2.347   2.406  0.0692  0.0772  0.0044
26872W        W33472   0.524   1.359  20.463  0.3176  0.1798  0.3047
26873W        W33473  19.909   4.370   7.737 -0.0657 -0.3364 -0.3070
26874W        W33474   3.323   4.973  19.372  0.2327 -0.2298  0.1037
26875W        W33475  22.357   6.504  14.963  0.0308  0.1270  0.1626
26876W        W33476  12.893   1.449  20.047 -0.3149 -0.2318  0.1479
26877W        W33477  14.583   3.390  31.018 -0.1298  0.0705  0.0525
26878W        W33478   7.617   0.771  23.055  0.0715 -0.1766 -0.0265
26879W        W33479  13.506   0.860  26.336  0.1733 -0.4250  0.1128
26880W        W33480  21.767   2.050   7.635  0.0331  0.2215 -0.5401
26881W        W33481  15.359   6.750  30.970  0.5108 -0.3146 -0.0878
26882W        W33482  10.590   0.509   7.834 -0.0184  0.2880 -0.0602
26883W        W33483  17.619   2.619   0.491 -0.3245  0.0500  0.0314
26884W        W33484  19.439   0.013  26.920  0.3747 -0.1649  0.1216
26885W        W33485  19.449   6.500  31.891  0.0259  0.1626  0.0433
26886W        W33486  23.753   2.573  26.869  0.1513  0.0569 -0.0731
26887W        W33487   6.054   2.875  28.156 -0.0473 -0.0293 -0.2245
26888W        W33488  15.531   7.211   1.358  0.1260 -0.0002 -0.1139
26889W        W33489   2.858   6.560  24.962  0.1376 -0.0788 -0.3448
26890W        W33490  20.596   7.774  24.199 -0.1953 -0.2135 -0.1150
26891W        W33491  11.118   0.081  24.660  0.2326 -0.1423  0.1509
26892W        W33492   4.949   6.008  19.966 -0.0368  0.3572  0.0547
26893W        W33493   7.022   3.494  15.220  0.0089 -0.3318 -0.1371
26894W        W33494  11.800   1.729   0.593  0.1942 -0.0648 -0.0057
26895W        W33495  22.227   4.256  30.221  0.1343  0.1237  0.0740
26896W        W33496   5.281   3.707  19.072 -0.1473  0.3097 -0.3279
26897W        W33497   0.690   2.404  23.897  0.0718  0.0077 -0.2107
26898W        W33498  16.789   2.536  28.025  0.0261 -0.3352  0.2630
26899W        W33499  18.733   3.478  27.661 -0.2690  0.0277 -0.1830
26900W        W33500  21.847   6.313  10.368  0.0798  0.1804 -0.1299
26901W        W33501  23.725   4.285   7.652  0.1761 -0.2535 -0.0264
26902W        W33502  22.542   2.002  29.535  0.3248  0.2006 -0.2386
26903W        W33503   6.123   6.129  25.862  0.0575  0.2929  0.1113
26904W        W33504  15.758   5.912   9.230  0.0751  0.6296  0.0704
26905W        W33505  21.584   6.997  31.659 -0.1879  0.1335  0.1285
26906W        W33506  23.036   3.127  11.522 -0.3271  0.0234 -0.0232
26907W        W33507  17.681   7.374  30.269  0.1580  0.0200  0.1271
26908W        W33508  12.113   7.383   8.680  0.0506 -0.1210  0.2449
26909W        W33509   6.549   7.659  19.165  0.0339 -0.1988  0.0098
26910W        W33510  20.099   0.243  31.310 -0.0183  0.0273 -0.0476
26911W        W33511  15.265   0.651   1.788  0.1661 -0.0151 -0.0615
26912W        W33512  10.182   1.715  15.895  0.0830  0.1341  0.1073
26913W        W33513   7.118   5.265  26.212 -0.2976  0.2304 -0.2777
26914W        W33514   5.122   5.935   2.818 -0.1008 -0.1567 -0.0499
26915W        W33515  23.328   6.335  28.060  0.0546  0.0710  0.0055
26916W        W33516   1.476   7.028  25.519 -0.1672  0.1177  0.0213
26917W        W33517  22.775   5.950  31.766  0.0759 -0.0631 -0.0880
26918W        W33518  23.332   4.571  10.932 -0.3262  0.0538  0.1759
26919W        W33519  22.324   6.868  26.036  0.2000  0.1572 -0.2251
26920W        W33520  16.433   2.465   7.206 -0.1404  0.2499 -0.0347
26921W        W33521  18.766   5.760  12.554  0.0933  0.2117  0.1736
26922W        W33522   7.671   6.771  32.156 -0.0082  0.1266  0.2658
26923W        W33523   0.660   5.339  20.735 -0.0429 -0.1070  0.1843
26924W        W33524  18.484   0.062   1.073 -0.1413  0.1846 -0.0056
26925W        W33525  23.027   5.275   4.380 -0.0176 -0.0795 -0.2572
26926W        W33526  15.582   4.114  12.901  0.0549  0.2389 -0.2318
26927W        W33527   5.717   7.598  28.642  0.1642  0.0100 -0.4224
26928W        W33528  17.546   3.856  27.029 -0.0489  0.0920  0.0526
26929W        W33529  20.872   4.192  27.850  0.0734  0.0256 -0.0687
26930W        W33530   1.446   0.089  25.100 -0.0641 -0.1491 -0.2146
26931W        W33531   7.705   5.113  26.477  0.2306  0.2065  0.0223
26932W        W33532   5.369   1.700   2.473 -0.0226  0.0611  0.0408
26933W        W33533   3.808   2.780   2.653 -0.2383 -0.5310  0.0672
26934W        W33534   0.298   3.393  30.385 -0.0139 -0.3529 -0.0577
26935W        W33535   3.487   4.077   5.570  0.1760 -0.2325  0.3373
26936W        W33536   6.115   7.502   1.631  0.0556  0.1374 -0.0702
26937W        W33537  13.275   5.081  24.609 -0.0524 -0.1952 -0.0761
26938W        W33538  19.649   4.095  28.867  0.1655  0.0717  0.3981
26939W        W33539   2.787   2.637  23.217 -0.0819  0.1701 -0.0924
26940W        W33540   9.038   2.177  15.790  0.0084  0.4598 -0.3500
26941W        W33541   4.845   6.046   6.388 -0.2288  0.0187  0.0265
26942W        W33542  18.853   6.623   0.423 -0.1077  0.0365 -0.2064
26943W        W33543  24.678   2.512  29.518  0.2594 -0.0048 -0.2463
26944W        W33544   9.629   1.994  23.408 -0.0397  0.2804 -0.0412
26945W        W33545  19.290   6.685  30.892  0.0008 -0.1584  0.1934
26946W        W33546  19.015   4.771  16.456 -0.2501  0.2233  0.1625
26947W        W33547   5.441   6.162  15.843  0.1012  0.1829  0.1485
26948W        W33548  22.021   3.812  29.921  0.0689 -0.1377 -0.2191
26949W        W33549   7.397   2.598  17.714  0.4870 -0.1417  0.0295
26950W        W33550  18.715   6.686  10.175  0.0984 -0.1107  0.1612
26951W        W33551   4.734   2.552  32.093  0.0494 -0.1432  0.1344
26952W        W33552   5.379   7.051  23.008 -0.0712  0.2262  0.0083
26953W        W33553  24.585   4.327  25.503 -0.0710  0.1425 -0.3659
26954W        W33554  25.089   5.112   6.768  0.3118 -0.0128 -0.3023
26955W        W33555   7.889   4.485   0.965  0.3653 -0.3588  0.1849
26956W        W33556   4.162   2.839  23.460 -0.1560 -0.2533  0.2565
26957W        W33557   1.481   7.730  23.243 -0.3970  0.0721  0.0760
26958W        W33558  20.992   4.749   3.002  0.0301 -0.1396  0.1991
26959W        W33559   7.901   6.048  20.783 -0.1522 -0.0693  0.1199
26960W        W33560  11.587   2.510  29.763  0.0025  0.0776 -0.1457
26961W        W33561  23.957   6.490   9.050  0.3506 -0.0412  0.3276
26962W        W33562  23.473   1.969   1.356 -0.3152 -0.0839 -0.3554
26963W        W33563  20.116   7.464  12.364 -0.0932 -0.2969  0.1578
26964W        W33564   4.925   5.172  30.709 -0.2471 -0.0847 -0.0356
26965W        W33565  21.073   7.391   5.191  0.0258  0.0575 -0.2237
26966W        W33566  16.062   4.757   1.585  0.1908  0.2661  0.3454
26967W        W33567   0.829   3.768  27.755  0.3621  0.0965 -0.0880
26968W        W33568  14.182   6.474  26.671 -0.0198  0.0895 -0.1721
26969W        W33569  14.796   6.302  28.215 -0.0830 -0.2274 -0.1894
26970W        W33570   4.044   1.755   2.993  0.1348  0.3385  0.2295
26971W        W33571  19.583   6.195  17.630 -0.1469  0.2221 -0.0786
26972W        W33572   9.374   7.260  32.436 -0.1971 -0.0585  0.1215
26973W        W33573   4.789   1.514  29.476 -0.3768 -0.0359  0.1897
26974W        W33574   6.375   5.581   4.476 -0.1699  0.2796  0.0946
26975W        W33575   6.086   6.864  21.676  0.0701 -0.0133 -0.1308
26976W        W33576  21.743   1.225  14.306  0.0586  0.0729 -0.4837
26977W        W33577  22.011   2.756  23.004  0.1122 -0.0995  0.1263
26978W        W33578  17.525   5.807   5.546 -0.1602 -0.2836 -0.0504
26979W        W33579   5.013   2.515  15.387  0.1287 -0.2089 -0.0198
26980W        W33580   0.175   3.987  29.512  0.1661 -0.0433  0.1350
26981W        W33581  10.027   2.613   4.017  0.4474 -0.0108  0.1845
26982W        W33582   5.654   1.503   6.195 -0.3004 -0.3358 -0.0715
26983W        W33583   4.221   4.375   2.344 -0.0238 -0.2260 -0.2900
26984W        W33584   8.901   4.189  15.046  0.1227  0.2276  0.2885
26985W        W33585   1.904   7.064   0.565  0.1592 -0.0618  0.1137
26986W        W33586   0.262   0.653  21.682  0.1032 -0.1060  0.1217
26987W        W33587  16.564   3.113  30.655 -0.0611 -0.2314  0.2600
26988W        W33588   5.567   2.750  26.746 -0.1283 -0.0142  0.0713
26989W        W33589   4.044   2.687  23.986  0.0293 -0.1893  0.0133
26990W        W33590  14.271   3.428  26.256  0.3216 -0.1675  0.0126
26991W        W33591   8.916   7.547   3.579 -0.0133  0.1306 -0.1515
26992W        W33592  14.425   0.627  21.313  0.2899 -0.0481 -0.5180
26993W        W33593  16.276   1.865  28.303  0.0381 -0.0130 -0.2180
26994W        W33594   3.667   6.099  29.248  0.0487  0.1113  0.0016
26995W        W33595  15.504   0.705   9.431 -0.0426 -0.3858 -0.0949
26996W        W33596   6.293   0.558  22.596 -0.3250  0.0124  0.0705
26997W        W33597   6.487   3.163  14.910 -0.0025  0.2173  0.0082
26998W        W33598  13.636   2.183  25.835 -0.2397 -0.0453  0.4062
26999W        W33599   6.547   7.612  22.267  0.1789  0.4094 -0.1433
27000W        W33600  15.154   0.513   8.145  0.0146  0.0860  0.3846
27001W        W33601  22.918   5.328   4.950 -0.0196  0.1588  0.0804
27002W        W33602  16.178   5.283   5.780  0.3091  0.1704  0.1090
27003W        W33603   1.054   4.617  24.157 -0.1576 -0.1131  0.0670
27004W        W33604   0.856   1.328   6.188  0.0217 -0.0595  0.1062
27005W        W33605   6.347   5.248  22.113  0.1181 -0.1965  0.0147
27006W        W33606   8.596   3.303  22.960  0.0393  0.0280 -0.1171
27007W        W33607   2.481   2.376   5.124 -0.1998 -0.0085  0.1944
27008W        W33608   3.740   1.768   8.948  0.3303 -0.0466  0.2115
27009W        W33609  11.611   6.025  27.719 -0.1951  0.1640 -0.2408
27010W        W33610   6.971   5.187  15.885  0.2257 -0.0862 -0.0438
27011W        W33611   7.885   5.538   5.028  0.1063  0.2046  0.2196
27012W        W33612   7.500   5.718  16.297  0.0964  0.0166  0.1293
27013W        W33613   1.115   0.038  31.122 -0.0532  0.3348  0.1501
27014W        W33614   8.633   7.556   4.369 -0.2250  0.0636  0.1876
27015W        W33615  21.040   5.950   0.490  0.1969  0.1532 -0.1377
27016W        W33616  12.362   5.633  21.539 -0.2194 -0.0444 -0.0017
27017W        W33617   7.561   6.817  30.869  0.0015 -0.2115  0.0376
27018W        W33618   5.593   4.937   5.121  0.0783  0.0603  0.0323
27019W        W33619   7.692   5.998   6.298 -0.0021  0.1056  0.1735
27020W        W33620  22.554   5.228  26.368 -0.0528  0.0053 -0.1585
27021W        W33621  22.035   6.552  24.170  0.1623  0.3498 -0.1481
27022W        W33622   2.255   1.720  17.575 -0.2035  0.1149 -0.0209
27023W        W33623   9.319   1.264  24.699  0.1746 -0.1351 -0.2136
27024W        W33624  12.857   4.558  12.137  0.1648  0.0841  0.3744
27025W        W33625   0.721   2.606   2.227  0.3339 -0.0687 -0.1323
27026W        W33626   5.349   6.785  20.160 -0.1505 -0.1133 -0.0214
27027W        W33627  24.306   3.659   7.946 -0.0208  0.2529 -0.2380
27028W        W33628   6.031   7.262   2.968 -0.2332 -0.1941  0.0213
27029W        W33629  18.028   6.149   5.555  0.2309  0.1472  0.0479
27030W        W33630  17.385   0.884  23.002  0.1094 -0.1512 -0.0299
27031W        W33631  16.801   0.314   7.312  0.0188  0.1338 -0.0422
27032W        W33632   8.152   5.019  22.869 -0.1097  0.2920  0.0808
27033W        W33633  17.177   1.888   2.256  0.1290 -0.4496  0.0213
27034W        W33634   9.037   0.538  16.359 -0.1715  0.3400  0.1721
27035W        W33635  14.425   4.423  14.299 -0.0189 -0.2240 -0.0039
27036W        W33636   0.950   0.025  12.514  0.1569  0.1245 -0.0572
27037W        W33637  21.792   3.746  26.124  0.0604  0.2329  0.1486
27038W        W33638  19.980   0.411  26.885 -0.0247 -0.1336 -0.0608
27039W        W33639   2.365   1.468  10.653  0.2139 -0.4019  0.0562
27040W        W33640   9.355   3.500  10.650  0.1619 -0.1947 -0.2294
27041W        W33641  13.169   6.042   5.005  0.2733 -0.1389 -0.1890
27042W        W33642  16.898   6.161  11.363  0.1802 -0.2674 -0.0004
27043W        W33643  11.122   6.421   7.128 -0.0796  0.3220 -0.0622
27044W        W33644  24.883   4.898  24.237 -0.2444 -0.1447  0.0343
27045W        W33645   3.649   5.442  25.592  0.0359  0.0427 -0.2154
27046W        W33646  22.283   5.412   0.584  0.0153 -0.0977 -0.0787
27047W        W33647  19.946   1.233  16.670 -0.1148 -0.0489 -0.0479
27048W        W33648  13.452   1.880  31.173 -0.0163 -0.0666 -0.2452
27049W        W33649   9.820   5.297   3.683  0.2444 -0.0607 -0.2078
27050W        W33650  17.321   0.558  13.153 -0.3528  0.0444 -0.0752
27051W        W33651  24.594   0.535  13.606  0.2542  0.1237  0.1192
27052W        W33652  12.110   4.603   5.051 -0.0482 -0.1012  0.0300
27053W        W33653  23.112   5.972   0.389  0.1590  0.0800 -0.1437
27054W        W33654   6.907   0.971   3.983  0.1198 -0.0935 -0.3470
27055W        W33655   2.274   5.359  28.257  0.1207 -0.0920 -0.3840
27056W        W33656  16.949   7.127  30.617 -0.0293  0.2602 -0.0644
27057W        W33657  10.639   6.269  10.703 -0.0481 -0.1886 -0.0075
27058W        W33658   5.386   3.432   6.249  0.2288  0.4164  0.1029
27059W        W33659  16.703   0.022   6.266  0.0533 -0.2234 -0.0804
27060W        W33660   3.914   2.140  24.882  0.0717  0.0863 -0.1374
27061W        W33661  12.332   1.807  28.363 -0.0980 -0.2664  0.3001
27062W        W33662  19.710   6.057  31.543  0.1957 -0.1247  0.0506
27063W        W33663   1.106   1.074  18.175 -0.1450 -0.0472  0.0456
27064W        W33664  10.628   0.191  17.080  0.2338  0.2422 -0.4167
27065W        W33665  23.413   2.284   4.397  0.1758  0.3366 -0.2888
27066W        W33666   8.721   3.216  22.465  0.0580  0.0175  0.4441
27067W        W33667  22.154   7.354   5.786  0.0373  0.0837 -0.2884
27068W        W33668  16.312   4.000  14.056 -0.0075 -0.2824  0.0919
27069W        W33669   6.513   3.169   8.150 -0.1475 -0.2480 -0.0975
27070W        W33670  13.941   3.367  32.011 -0.3893  0.1070 -0.2671
27071W        W33671   9.388   7.013   0.818  0.2022  0.0142 -0.0653
27072W        W33672  19.496   2.612   8.301  0.0933 -0.2914 -0.2051
27073W        W33673   2.929   0.659  17.313 -0.2199  0.1268  0.2174
27074W        W33674  15.392   2.641  30.351 -0.3090  0.3043 -0.0259
27075W        W33675   1.675   6.303   0.194  0.0373 -0.2123  0.3740
27076W        W33676  18.738   0.841   2.944 -0.1439  0.2086  0.2163
27077W        W33677  12.580   0.102  19.090  0.0307 -0.0198  0.4560
27078W        W33678   8.138   4.429  20.369  0.0211  0.2277  0.1264
27079W        W33679   0.979   0.406  11.758  0.1610 -0.0999  0.3247
27080W        W33680   3.660   3.164  24.136 -0.0204  0.0861 -0.3045
27081W        W33681   9.056   5.480  19.320 -0.0192  0.3018  0.0387
27082W        W33682   4.833   2.084   1.779  0.0748 -0.0181 -0.2585
27083W        W33683  14.668   6.503  31.686  0.1600  0.2335 -0.0281
27084W        W33684  13.984   2.229   7.455  0.0304 -0.1010  0.3075
27085W        W33685  21.000   5.461   6.318  0.0668 -0.1959 -0.0377
27086W        W33686  16.399   7.779   1.587 -0.0466  0.2286 -0.5441
27087W        W33687  17.406   4.444  32.000 -0.1509 -0.1625  0.0936
27088W        W33688  13.900   3.119   3.456  0.2017 -0.0360 -0.0225
27089W        W33689   4.279   6.571  16.319  0.0100 -0.1700  0.0796
27090W        W33690  22.480   1.916  32.077 -0.0490 -0.1778 -0.2157
27091W        W33691  19.399   0.419   7.454 -0.1394  0.2191  0.0127
27092W        W33692  22.080   1.365  22.115 -0.4196 -0.0930  0.0261
27093W        W33693   0.923   5.183  25.186  0.0438 -0.0768  0.0864
27094W        W33694  11.610   6.551  21.324  0.1224  0.0047  0.4295
27095W        W33695   1.167   1.642  12.670 -0.2563 -0.3781  0.1841
27096W        W33696  11.731   1.166  26.302 -0.1958 -0.0902  0.0177
27097W        W33697   6.608   4.509   8.705  0.0983  0.1529  0.0329
27098W        W33698  15.374   5.602  10.010 -0.3671  0.0214 -0.0164
27099W        W33699  21.838   6.476  24.699  0.0986  0.0617 -0.1567
27100W        W33700  23.068   6.153  11.752 -0.1236  0.2689  0.1479
27101W        W33701   0.738   6.346  27.131 -0.0150  0.0305 -0.0795
27102W        W33702   4.195   7.126  26.644  0.1717  0.1926 -0.1223
27103W        W33703  24.064   7.286  25.097  0.0783  0.0423  0.0741
27104W        W33704  21.612   4.383  13.459 -0.0691  0.0025  0.0067
27105W        W33705  13.762   0.786  24.389  0.1084 -0.1469 -0.0083
27106W        W33706   7.454   7.538   4.135 -0.0277  0.2157  0.0961
27107W        W33707  23.934   6.039  32.571 -0.0102  0.1954  0.1049
27108W        W33708  22.526   2.095   6.440 -0.1873  0.0186 -0.0900
27109W        W33709   4.202   4.461  29.042 -0.2346  0.2341  0.3207
27110W        W33710  11.671   5.018  11.339 -0.0688  0.0011 -0.1949
27111W        W33711  24.754   4.542  27.070 -0.1325  0.4745 -0.3100
27112W        W33712  22.170   5.660  30.645  0.2362 -0.2187  0.3069
27113W        W33713  13.986   4.724   0.882  0.0335 -0.0363  0.0135
27114W        W33714  18.874   1.602  24.217  0.0624 -0.2608  0.1411
27115W        W33715   1.372   1.341   5.234 -0.1068 -0.0059  0.2946
27116W        W33716  24.559   2.503  28.036 -0.3026 -0.2713  0.0987
27117W        W33717  17.967   0.767  16.295 -0.3698  0.0052 -0.1534
27118W        W33718   2.191   7.836  31.036  0.0906  0.0588 -0.0785
27119W        W33719  10.390   1.572  27.172 -0.0794 -0.0345  0.1360
27120W        W33720  10.845   0.919  22.518  0.1350 -0.1817 -0.1202
27121W        W33721   5.380   4.252  31.403 -0.2383  0.1641  0.0094
27122W        W33722   8.743   0.083   1.910  0.0910  0.0767 -0.1145
27123W        W33723  23.664   0.532  31.482 -0.1877  0.0492 -0.1947
27124W        W33724   3.192   5.906   8.644 -0.0329 -0.1959  0.0073
27125W        W33725  14.651   6.034   1.840 -0.1577 -0.0200 -0.1715
27126W        W33726   6.817   4.386  15.269 -0.1131  0.1788 -0.1222
27127W        W33727  12.599   7.813  24.717  0.1519 -0.1281  0.2546
27128W        W33728   8.900   7.341   5.629 -0.2076 -0.1439  0.0926
27129W        W33729  24.063   7.622   8.396 -0.2586  0.2323  0.0691
27130W        W33730   6.952   3.041  26.694 -0.2172 -0.2187 -0.0685
27131W        W33731  23.790   0.864   2.951  0.0135  0.0013 -0.1881
27132W        W33732  13.132   3.719  21.525 -0.0382 -0.0050 -0.3387
27133W        W33733  25.057   0.907   7.787  0.1980  0.0825  0.0128
27134W        W33734  20.565   1.059   2.124  0.1063 -0.0004  0.2250
27135W        W33735   0.028   4.500   2.374 -0.1117  0.4465  0.2328
27136W        W33736  22.227   4.314  32.394 -0.0473  0.1011 -0.2529
27137W        W33737   7.104   4.299   7.891 -0.2374 -0.0286  0.0160
27138W        W33738  18.911   4.922   3.149  0.2013 -0.0698  0.1464
27139W        W33739  14.607   1.447  25.880  0.1589 -0.1397 -0.0026
27140W        W33740   1.379   2.383  11.314  0.0743 -0.1226  0.2854
27141W        W33741   1.553   0.328   9.396 -0.3167  0.0347  0.2221
27142W        W33742   2.727   1.842  10.583 -0.0887 -0.2055  0.0802
27143W        W33743   8.797   3.285  31.051 -0.1829  0.1440  0.0465
27144W        W33744   1.828   5.272   0.245 -0.0631 -0.2610 -0.0174
27145W        W33745  14.040   3.592  10.457 -0.0150  0.1370  0.1799
27146W        W33746  15.405   6.928   7.801  0.1818 -0.2950  0.1892
27147W        W33747  17.628   1.689  12.126  0.1039  0.1837 -0.0887
27148W        W33748  18.401   0.540  17.605 -0.0585 -0.2535  0.1072
27149W        W33749   8.868   0.469   8.734 -0.1882  0.0409 -0.1105
27150W        W33750  24.227   4.203   2.736  0.1673 -0.2390  0.0634
27151W        W33751  22.806   2.837  12.834 -0.1777  0.0424  0.0618
27152W        W33752  20.949   1.804   4.777 -0.1655 -0.0254 -0.2778
27153W        W33753   7.352   3.775   4.929  0.2175  0.0807 -0.2237
27154W        W33754  23.897   3.761  30.829  0.0714  0.1313  0.0331
27155W        W33755   4.868   0.291  19.122  0.2247  0.1997  0.0309
27156W        W33756  16.371   1.630   4.656 -0.0376  0.0550 -0.0228
27157W        W33757   5.615   1.245   6.716  0.1224  0.0644 -0.0765
27158W        W33758  18.178   0.609  31.332  0.0029  0.1083  0.0257
27159W        W33759   1.803   7.531  24.937  0.0158  0.3090 -0.1464
27160W        W33760   5.297   2.546   5.339  0.2433  0.0988  0.0839
27161W        W33761  19.597   4.995  15.691 -0.1320  0.1555 -0.0236
27162W        W33762  18.271   3.561  24.892  0.0111  0.2065  0.0681
27163W        W33763   5.335   0.640   4.619  0.0990  0.0893 -0.1002
27164W        W33764  21.207   6.749  29.390 -0.0291  0.2292  0.0658
27165W        W33765   8.022   3.950   5.533 -0.1275 -0.1404 -0.0768
27166W        W33766  23.883   4.926  28.632 -0.2067  0.2662 -0.0603
27167W        W33767  13.173   7.807   8.612  0.3319  0.1751 -0.2761
27168W        W33768   7.214   7.558   1.243  0.1933  0.0980  0.2404
27169W        W33769  11.322   7.027  24.192 -0.0220  0.1994  0.1551
27170W        W33770  11.006   7.140  22.304 -0.1674  0.1813  0.0257
27171W        W33771  15.732   1.114  12.885 -0.1327  0.0665  0.1478
27172W        W33772   5.369   6.253  16.621 -0.2190 -0.3074 -0.1695
27173W        W33773  24.847   5.867   8.242  0.1136 -0.2077  0.2536
27174W        W33774  18.559   3.785  11.197 -0.0469  0.3332 -0.0967
27175W        W33775  16.386   3.483  13.998 -0.0734  0.1315 -0.1550
27176W        W33776   4.348   3.761   8.877  0.0112 -0.0502 -0.0660
27177W        W33777   8.067   1.988   5.082 -0.2337 -0.0961  0.1472
27178W        W33778  22.690   0.430  14.319  0.1299 -0.1638  0.0851
27179W        W33779  19.699   5.237   6.564  0.0001 -0.2732  0.1335
27180W        W33780   9.576   1.102  21.014  0.0283 -0.1065  0.0017
27181W        W33781   5.694   3.705  10.493 -0.0404 -0.0539 -0.2465
27182W        W33782   2.988   4.839   0.796  0.1269  0.1706 -0.1353
27183W        W33783  12.998   1.008   2.868 -0.1848 -0.0243  0.1270
27184W        W33784  11.201   4.766  29.618  0.1448 -0.1900 -0.1334
27185W        W33785   8.668   6.150  27.699 -0.1225 -0.0443 -0.2011
27186W        W33786   7.064   2.956  28.903  0.0598  0.2579 -0.0945
27187W        W33787  12.731   4.384   2.123 -0.1173 -0.3072  0.4941
27188W        W33788  18.464   1.057  16.334 -0.3613  0.1035  0.1639
27189W        W33789  10.263   3.094  29.829 -0.2206 -0.1041  0.0009
27190W        W33790   8.810   7.382  21.261  0.0828  0.1260  0.0961
27191W        W33791   5.099   0.734  29.977  0.0605 -0.0481 -0.3276
27192W        W33792  21.560   3.743   8.014  0.1978  0.1193 -0.0296
27193W        W33793  22.186   6.341   8.037  0.0533  0.1099  0.3429
27194W        W33794  24.104   5.561  29.821 -0.3263 -0.3566 -0.0988
27195W        W33795  21.391   7.381  22.990 -0.0416  0.2265 -0.1394
27196W        W33796  11.630   7.095  25.349  0.2439 -0.1909 -0.1568
27197W        W33797   6.171   4.529  15.932 -0.0147 -0.0819 -0.2738
27198W        W33798  11.985   5.809  22.188  0.0388 -0.1265  0.0259
27199W        W33799  22.956   7.058  26.720  0.2019  0.2010  0.1640
27200W        W33800  15.074   4.735  22.641  0.0697  0.2789 -0.2928
27201W        W33801   5.975   2.539  22.050 -0.2318 -0.0708 -0.1206
27202W        W33802   3.692   7.135   7.478  0.3197  0.2942  0.0769
27203W        W33803   5.151   5.404   3.338 -0.1911  0.2693  0.1477
27204W        W33804   0.446   1.393  11.321  0.0374  0.1454  0.1569
27205W        W33805  19.047   0.551   4.538 -0.1756  0.0428 -0.2456
27206W        W33806   2.086   1.385   4.260  0.1161  0.0296 -0.3576
27207W        W33807  19.611   7.425   7.612  0.1607 -0.2251 -0.0485
27208W        W33808  11.391   1.741   5.263  0.3186 -0.3090 -0.0506
27209W        W33809  11.103   7.378   7.197 -0.0050  0.2509  0.1122
27210W        W33810   1.642   1.051  24.515 -0.1647  0.0571 -0.1058
27211W        W33811  24.771   1.975  26.615 -0.1668 -0.0342 -0.1329
27212W        W33812  19.732   5.803  29.168 -0.2186  0.1402  0.1317
27213W        W33813   4.865   6.706   5.488  0.1505  0.2454  0.0621
27214W        W33814  23.873   6.770  24.062  0.0726 -0.0083 -0.0784
27215W        W33815  11.806   0.999   1.088 -0.1760 -0.0599  0.0460
27216W        W33816   5.852   4.234   3.371  0.1776  0.1058 -0.4339
27217W        W33817  21.364   4.349   4.356 -0.1443  0.2927 -0.0780
27218W        W33818   5.004   2.726  19.091  0.0012  0.1060 -0.1306
27219W        W33819  16.754   6.674  15.786  0.0207 -0.0396 -0.2155
27220W        W33820  16.390   3.698  23.062  0.0278 -0.1497  0.2340
27221W        W33821   3.195   0.364   7.273  0.0123 -0.0018  0.1750
27222W        W33822  20.504   2.589  22.908 -0.1506 -0.0241 -0.1337
27223W        W33823  10.118   7.352   7.263  0.2845 -0.0500  0.0399
27224W        W33824  22.652   2.882  13.681  0.0597 -0.1329 -0.1341
27225W        W33825   7.228   3.168  20.721  0.1728  0.1038  0.0705
27226W        W33826   7.289   7.858  22.690 -0.0561 -0.2804 -0.2589
27227W        W33827  11.057   4.097   2.591  0.0620 -0.1022  0.1496
27228W        W33828  17.502   2.708  27.515 -0.0494 -0.1439  0.2240
27229W        W33829   9.908   3.233  29.470  0.2160 -0.1655  0.0649
27230W        W33830  24.604   2.685  31.278 -0.0299 -0.0356 -0.1574
27231W        W33831  21.169   7.585   3.143 -0.0584  0.1444 -0.1349
27232W        W33832  13.002   6.406  20.494  0.1956  0.0582  0.0447
27233W        W33833  11.991   1.329  30.733 -0.4284  0.1023  0.1427
27234W        W33834  12.849   6.438  22.704  0.0251 -0.0650 -0.0692
27235W        W33835   0.597   5.294  21.717 -0.0562 -0.0523  0.0885
27236W        W33836  10.785   0.616  23.446  0.1096 -0.2515 -0.1969
27237W        W33837  10.690   2.074  27.149  0.1913  0.1072 -0.0114
27238W        W33838  12.678   7.622  26.579  0.1039 -0.0090  0.2683
27239W        W33839   2.030   4.207  20.371  0.1680  0.0402  0.0320
27240W        W33840  10.044   0.823  29.620  0.0419  0.0749  0.0261
27241W        W33841   6.167   4.928   7.994 -0.2872 -0.0749 -0.0796
27242W        W33842   5.714   5.747   9.760 -0.0983  0.0005 -0.1093
27243W        W33843   3.676   3.070  18.838  0.0783 -0.1465  0.1762
27244W        W33844  24.797   3.322  19.708  0.0995  0.3595  0.2155
27245W        W33845   7.644   5.067   4.983  0.0641  0.1236 -0.2969
27246W        W33846  20.342   1.988   7.379  0.1591 -0.1979 -0.3898
27247W        W33847  12.439   5.629  31.197 -0.0130  0.3895 -0.2290
27248W        W33848   9.495   5.331  26.144 -0.2875  0.2212  0.0660
27249W        W33849  10.300   4.172  29.843  0.1353 -0.4143 -0.0518
27250W        W33850   1.490   3.640  24.710 -0.0778  0.0389  0.0154
27251W        W33851  18.238   1.453  23.479  0.1041  0.3699  0.0938
27252W        W33852  17.866   6.783  26.495  0.0736 -0.1466 -0.0580
27253W        W33853  16.869   6.412   7.853 -0.3984  0.0159  0.1745
27254W        W33854  16.360   2.178   9.851  0.2387  0.1499 -0.1805
27255W        W33855   2.633   2.108  29.893 -0.3233  0.0383 -0.3341
27256W        W33856   2.479   3.594  30.206  0.0496  0.6070  0.0717
27257W        W33857  18.938   0.714   6.348  0.2067 -0.1894 -0.4340
27258W        W33858  24.675   5.769  26.383  0.1039  0.1075 -0.1510
27259W        W33859  17.159   1.255  18.364 -0.0565 -0.3521 -0.0805
27260W        W33860  12.297   0.953  31.851 -0.1485  0.1378  0.1112
27261W        W33861   5.019   4.752  10.347  0.0740 -0.0911  0.0400
27262W        W33862   9.778   6.203   1.281 -0.0371 -0.1580 -0.1424
27263W        W33863  10.213   6.537   5.492 -0.2546 -0.1175 -0.0463
27264W        W33864   0.048   4.697  22.193  0.2290 -0.1433  0.3068
27265W        W33865  21.999   4.335   6.231  0.1303 -0.0124  0.2233
27266W        W33866  21.570   5.362   6.371 -0.2444  0.1524 -0.0512
27267W        W33867   1.779   2.836  22.192 -0.2511 -0.1035  0.2878
27268W        W33868  13.665   7.743   2.302  0.1566 -0.1909 -0.0214
27269W        W33869  16.022   3.138   7.162  0.1484 -0.0803 -0.0017
27270W        W33870   7.017   5.135  24.184 -0.0698  0.1426  0.3906
27271W        W33871  18.880   0.239  10.153 -0.5567  0.2415  0.1396
27272W        W33872   8.853   4.518  20.926  0.0444  0.0981  0.0710
27273W        W33873  24.000   5.018  19.933  0.2682 -0.1613 -0.1306
27274W        W33874  13.585   5.423  28.043  0.1345 -0.2218 -0.1590
27275W        W33875  19.843   7.521   8.087  0.0382 -0.1857 -0.2655
27276W        W33876  22.775   0.649   2.911 -0.1882 -0.0565  0.3169
27277W        W33877   2.852   3.331  23.751 -0.0865 -0.1573  0.1775
27278W        W33878  18.633   0.496  10.465 -0.2772 -0.2109  0.1836
27279W        W33879   0.776   2.388  24.519  0.0575 -0.0828  0.3397
27280W        W33880  15.304   1.718  25.102 -0.2229  0.2627  0.1351
27281W        W33881  23.531   6.582   3.518 -0.1785 -0.0470 -0.0976
27282W        W33882  21.419   5.202   0.816  0.1474  0.0302 -0.2292
27283W        W33883  17.636   1.886  13.815  0.2399  0.2684  0.0158
27284W        W33884   2.124   1.428  19.603  0.0005 -0.0937 -0.2617
27285W        W33885   9.762   4.249  19.323 -0.2649 -0.0303  0.1712
27286W        W33886  21.901   3.439   0.349 -0.0676 -0.1173  0.0846
27287W        W33887   2.361   4.950  11.408  0.2704 -0.2666  0.1742
27288W        W33888  19.307   6.019  29.020 -0.3077 -0.0513 -0.2574
27289W        W33889  10.919   7.074  28.985 -0.2653 -0.0143  0.0656
27290W        W33890   2.449   5.607  22.159 -0.0224 -0.1041 -0.0020
27291W        W33891  12.682   7.744   4.784  0.3035  0.2062  0.1016
27292W        W33892  18.881   7.245  10.091  0.0895  0.0295 -0.0890
27293W        W33893   9.290   2.195   8.304 -0.0061 -0.2223  0.0649
27294W        W33894   9.980   6.570   0.902  0.0448 -0.2300 -0.2316
27295W        W33895   1.304   6.158  25.873  0.1089 -0.1401 -0.2845
27296W        W33896  17.401   1.263   0.937  0.1388 -0.0557 -0.0366
27297W        W33897  22.690   4.874  27.173  0.2628 -0.1438 -0.0522
27298W        W33898  16.501   2.596  30.754  0.0374  0.0202  0.0284
27299W        W33899  25.101   7.137   4.353 -0.0455  0.4718 -0.0252
27300W        W33900  19.532   5.621   9.456 -0.2739  0.0148  0.0788
27301W        W33901   2.694   5.814  10.299  0.0763 -0.0576 -0.1238
27302W        W33902   1.352   3.034  31.263  0.1849 -0.1394 -0.2555
27303W        W33903   8.994   2.675  25.755  0.1335 -0.0148 -0.0330
27304W        W33904  15.536   3.659   1.800  0.1571 -0.2807  0.0495
27305W        W33905   7.753   6.560  19.833  0.2660 -0.0349  0.0060
27306W        W33906  17.994   1.088  26.362  0.3969  0.0856  0.1423
27307W        W33907  21.084   4.600  15.067 -0.1660 -0.1280  0.0155
27308W        W33908   2.867   0.927   2.975  0.2605 -0.2052 -0.1393
27309W        W33909  15.961   3.767   6.584  0.1633  0.1613  0.0062
27310W        W33910  13.822   7.179   9.573 -0.0150 -0.0204  0.1603
27311W        W33911   8.604   6.277  20.198  0.0553  0.1356  0.4690
27312W        W33912  20.114   2.511  26.851 -0.1523  0.0311 -0.0593
27313W        W33913   4.000   5.596   6.834  0.5590  0.0497  0.1864
27314W        W33914   4.752   3.308  24.197  0.1710  0.0265  0.3202
27315W        W33915  17.610   7.558  25.947 -0.0341 -0.0584  0.0358
27316W        W33916   6.542   3.547  27.771 -0.1590  0.0151 -0.4751
27317W        W33917  11.857   6.499  26.039 -0.1283 -0.0377 -0.0747
27318W        W33918  24.918   4.213  29.317  0.1377  0.1125 -0.1453
27319W        W33919   4.843   4.627   6.887  0.0483 -0.2150  0.3836
27320W        W33920  24.129   7.396  30.213  0.2159 -0.0810 -0.0208
27321W        W33921  21.430   0.072  25.693  0.3553 -0.2072 -0.0723
27322W        W33922   5.156   1.018   7.381  0.0813 -0.2092  0.1199
27323W        W33923  17.428   2.718  12.353 -0.0446 -0.1614  0.1196
27324W        W33924  20.931   6.626  13.200 -0.1028 -0.0927 -0.0614
27325W        W33925   5.758   1.247  28.971  0.0240 -0.1223 -0.1603
27326W        W33926  10.530   0.393  20.796 -0.3725 -0.0327  0.1332
27327W        W33927  10.017   2.181  28.112  0.3191 -0.0181  0.2574
27328W        W33928  24.911   5.230  25.978 -0.1346  0.1941 -0.1784
27329W        W33929   0.579   3.184  23.406  0.2501 -0.0502  0.0007
27330W        W33930  24.327   0.619   6.929  0.0173  0.0491 -0.3923
27331W        W33931  10.616   4.586   4.620 -0.3384 -0.1936  0.0975
27332W        W33932  13.345   0.056   0.606  0.1627  0.0940 -0.0965
27333W        W33933   4.015   7.721  16.171  0.0006  0.0803 -0.0038
27334W        W33934   1.509   0.425  28.693 -0.2177  0.2784 -0.0084
27335W        W33935   2.349   7.425  24.934 -0.1612 -0.2517 -0.0755
27336W        W33936  12.251   2.409  19.177 -0.0549  0.2772  0.0171
27337W        W33937   7.897   2.716  32.430 -0.0368  0.0283  0.0476
27338W        W33938  11.897   4.178   5.806 -0.3789 -0.0868  0.3825
27339W        W33939   7.680   4.480  14.589 -0.0950 -0.0705 -0.0708
27340W        W33940  17.040   3.166  22.914  0.0955  0.1786  0.0778
27341W        W33941   5.383   3.393  25.117  0.1693  0.0560  0.0662
27342W        W33942   8.786   6.848   7.940  0.1170 -0.2039  0.1396
27343W        W33943  24.524   4.416   5.849 -0.1205  0.2113  0.0261
27344W        W33944  13.772   7.411   5.666 -0.0495 -0.0755 -0.1012
27345W        W33945   8.824   6.048   3.607  0.0811  0.0178  0.2472
27346W        W33946   1.304   7.703  18.215  0.1091 -0.2697 -0.0208
27347W        W33947   2.202   5.667   6.105 -0.1917 -0.0078 -0.0454
27348W        W33948  24.970   0.984   4.163 -0.1575  0.1612  0.1743
27349W        W33949  19.542   2.711  27.667 -0.1586 -0.4634  0.1060
27350W        W33950  10.330   4.819  18.166 -0.1968  0.1009 -0.1659
27351W        W33951  19.485   0.402  17.153 -0.1095  0.2628  0.0065
27352W        W33952   2.058   6.271  23.971 -0.0832 -0.0496  0.2084
27353W        W33953   8.783   5.770  24.772  0.1910 -0.0315 -0.1737
27354W        W33954  24.180   3.248  21.771 -0.0579  0.1433  0.0937
27355W        W33955  16.347   2.595  27.729 -0.1958  0.2064 -0.0386
27356W        W33956  20.552   2.736   6.119 -0.1519  0.1169 -0.0383
27357W        W33957   3.885   6.583  29.991 -0.1363  0.1731  0.3157
27358W        W33958   1.802   1.849  27.637 -0.0704 -0.0243  0.3221
27359W        W33959  18.449   0.958  10.415  0.5153  0.0150  0.2129
27360W        W33960  21.830   5.629  28.006 -0.2856  0.3809 -0.2577
27361W        W33961  22.503   0.013   8.374 -0.1708  0.1875  0.0274
27362W        W33962   6.796   2.902  27.716 -0.0887  0.2098  0.0640
27363W        W33963   9.972   0.504  32.542 -0.0781 -0.0242  0.1262
27364W        W33964  19.520   0.368  27.906  0.2454  0.3298 -0.0583
27365W        W33965  10.131   7.641   9.992 -0.0191  0.0822 -0.0821
27366W        W33966  19.115   1.459  14.241  0.2366 -0.2306  0.0547
27367W        W33967   7.895   2.763  20.296 -0.1953 -0.0513 -0.1492
27368W        W33968  15.865   2.590   9.396  0.1574  0.0690  0.2245
27369W        W33969   7.946   7.194   0.284 -0.0388 -0.1171  0.1321
27370W        W33970   5.795   1.350  17.167 -0.0482 -0.2035  0.0013
27371W        W33971   3.586   5.794  30.889 -0.1519 -0.0450 -0.0885
27372W        W33972   6.767   6.138  10.346  0.1002  0.1126  0.0408
27373W        W33973  17.773   7.058  30.670  0.1527 -0.0045  0.1585
27374W        W33974  17.738   1.806  28.559  0.0617 -0.0563 -0.1657
27375W        W33975  19.273   4.310  12.401 -0.0014  0.0284  0.2795
27376W        W33976  10.374   4.462  18.790 -0.0277 -0.2763  0.0679
27377W        W33977   3.449   2.389   8.264 -0.4038  0.1482  0.2475
27378W        W33978  19.809   0.839  11.328  0.1149 -0.2181 -0.0343
27379W        W33979  18.273   2.986  11.281 -0.1162  0.0433  0.3383
27380W        W33980   7.589   5.353   3.513 -0.2929  0.1911  0.0357
27381W        W33981   5.699   4.949  24.767 -0.2303  0.1220  0.0509
27382W        W33982  12.407   1.385  27.432  0.3357 -0.2073 -0.0351
27383W        W33983   4.045   3.897   3.370 -0.1531 -0.0207 -0.1544
27384W        W33984  11.531   7.056   0.332  0.1071 -0.1079  0.0679
27385W        W33985   8.765   0.829  15.207  0.0917 -0.4221  0.2312
27386W        W33986  10.975   4.905   8.133  0.1593  0.1165  0.0517
27387W        W33987  14.824   0.361   0.420  0.0037 -0.0370 -0.2163
27388W        W33988   9.065   3.619  22.375 -0.0642  0.0519 -0.3309
27389W        W33989  20.152   4.736  31.801 -0.0140  0.4168 -0.3295
27390W        W33990   8.895   1.170  26.208  0.1082  0.0016  0.0662
27391W        W33991   7.518   2.125  17.642 -0.0028  0.0179  0.2568
27392W        W33992  19.755   2.940  22.981 -0.1872  0.0587  0.0196
27393W        W33993  24.225   7.389  20.991  0.0752 -0.2908  0.0878
27394W        W33994  11.173   7.404   6.665  0.5079 -0.0840 -0.1454
27395W        W33995   7.832   7.152  25.549 -0.0666 -0.0232 -0.1511
27396W        W33996   9.065   6.786  16.676  0.0666  0.1154  0.0860
27397W        W33997   3.073   0.268   5.236 -0.0204 -0.1112  0.1576
27398W        W33998   1.379   2.410  26.040 -0.0584 -0.1681  0.0206
27399W        W33999  22.825   5.149   2.251  0.1097  0.1705 -0.2451
27400W        W34000  18.790   7.847  15.432 -0.2945 -0.1137  0.1655
27401W        W34001  13.891   6.749  30.786  0.0658 -0.2600 -0.0691
27402W        W34002   2.824   0.347  19.791 -0.0254  0.0016  0.3446
27403W        W34003   4.821   5.313  23.449  0.4172 -0.2004  0.0280
27404W        W34004  12.919   1.752   1.506  0.0284 -0.2818 -0.1600
27405W        W34005   2.812   4.877   2.727 -0.1653  0.0350  0.0595
27406W        W34006  23.925   7.003  20.699 -0.2042 -0.2069  0.0551
27407W        W34007  11.815   2.748   3.833 -0.1134 -0.0344 -0.0051
27408W        W34008   7.972   7.000   3.052 -0.2559 -0.3811 -0.0782
27409W        W34009  23.507   4.608  29.363 -0.3738  0.0963  0.2362
27410W        W34010  11.387   7.841   1.066  0.0544  0.0880  0.0637
27411W        W34011  11.186   3.181  20.904  0.2419  0.3507  0.0813
27412W        W34012  18.669   2.494   2.163  0.1037 -0.1128 -0.0070
27413W        W34013   0.022   7.819  21.022  0.0762  0.1762 -0.1396
27414W        W34014  15.467   4.554  13.685 -0.2291  0.2167  0.1996
27415W        W34015  18.983   3.756   3.504  0.0793  0.1945 -0.0333
27416W        W34016  10.295   7.399   1.145  0.1556 -0.0891 -0.0689
27417W        W34017   2.965   5.859  28.867  0.0778 -0.2117 -0.2171
27418W        W34018   0.039   0.031   9.857 -0.2284 -0.0318  0.0159
27419W        W34019   1.765   3.152   7.868 -0.2415  0.3290 -0.2052
27420W        W34020  25.074   6.929   9.526  0.2001 -0.0343 -0.2533
27421W        W34021   2.471   1.770  31.949 -0.0354  0.5350 -0.1801
27422W        W34022   1.628   6.170  25.391 -0.0514 -0.0909  0.1591
27423W        W34023   7.114   2.806   2.155 -0.0767 -0.3841 -0.0210
27424W        W34024   9.085   3.305  18.187  0.0098 -0.2106 -0.1196
27425W        W34025   9.953   3.370  27.154  0.0926  0.1193 -0.0598
27426W        W34026  20.310   5.342   0.343  0.2458 -0.0083 -0.0852
27427W        W34027   9.425   2.730  22.983 -0.0194  0.0821 -0.1341
27428W        W34028  17.669   0.737  24.790 -0.1033 -0.1559  0.1317
27429W        W34029   5.830   0.736   7.109  0.0572 -0.1963 -0.3528
27430W        W34030   0.624   5.362   4.280 -0.0604 -0.0530  0.0597
27431W        W34031  19.222   2.269   7.061  0.0914 -0.1509  0.3872
27432W        W34032  17.913   6.393  15.378 -0.0904 -0.3759 -0.1241
27433W        W34033  17.781   5.763  29.321 -0.0187 -0.2214 -0.4716
27434W        W34034  10.915   4.706   6.996 -0.0086  0.3804  0.2446
27435W        W34035   6.276   5.811   2.769  0.0536 -0.1168 -0.2940
27436W        W34036   2.632   4.549  27.926 -0.2687  0.0044  0.0270
27437W        W34037  22.089   1.259   4.394 -0.0420  0.2661 -0.0059
27438W        W34038  22.401   0.851  22.221  0.0212  0.0922 -0.0567
27439W        W34039  23.195   2.555  25.108  0.0847 -0.0594  0.0294
27440W        W34040   8.774   3.534  25.985  0.2308 -0.0358 -0.0767
27441W        W34041  13.595   6.634  11.276  0.2216 -0.1077  0.0086
27442W        W34042  21.926   0.404   9.280  0.2379  0.0163 -0.1270
27443W        W34043  17.205   7.781   8.832  0.1049  0.1528  0.0620
27444W        W34044  16.470   4.970   8.040  0.0181  0.1320  0.2528
27445W        W34045  13.247   4.348  22.223  0.1062  0.2685 -0.0925
27446W        W34046   9.493   6.597  15.307  0.3515 -0.0495 -0.0572
27447W        W34047  19.587   1.927  28.689  0.1567  0.2158  0.0376
27448W        W34048   0.633   4.876  19.755  0.0078  0.0529  0.0332
27449W        W34049  10.248   4.533  26.808  0.2282 -0.3822  0.0318
27450W        W34050   0.560   4.605   2.256  0.2075 -0.0044 -0.0708
27451W        W34051  22.037   7.442   1.091  0.1143  0.2114 -0.3646
27452W        W34052  22.990   4.631   3.743 -0.1847 -0.1660  0.2992
27453W        W34053  12.506   6.219  27.182 -0.1958 -0.1508 -0.1584
27454W        W34054   3.533   4.370  31.514 -0.2364 -0.1566  0.0370
27455W        W34055  14.137   2.924   1.953 -0.0784  0.0387  0.0840
27456W        W34056  18.013   0.336  29.719 -0.2428 -0.1271  0.1021
27457W        W34057  16.130   5.293  15.326 -0.0013  0.0301  0.0145
27458W        W34058  11.166   3.589   0.171  0.3025 -0.5285  0.2028
27459W        W34059   2.927   0.751  27.079  0.1136  0.0573  0.0713
27460W        W34060  16.583   4.485   8.267 -0.5417 -0.2832  0.0367
27461W        W34061  21.680   4.828   9.486  0.0959 -0.3650  0.1391
27462W        W34062  17.680   2.450  26.207 -0.2727  0.0310  0.0503
27463W        W34063  21.982   2.985  30.846 -0.1601  0.0845  0.0627
27464W        W34064   4.785   5.727  26.315  0.0550  0.0338  0.0797
27465W        W34065  24.679   3.884  24.203 -0.2309 -0.0834  0.0696
27466W        W34066   1.806   7.000   9.262  0.0359 -0.0691 -0.2945
27467W        W34067  17.630   3.859  22.234  0.1856  0.2932 -0.0129
27468W        W34068  22.999   5.062  27.976 -0.1201 -0.0991  0.2229
27469W        W34069   8.726   0.272   2.614  0.1340 -0.1310  0.0384
27470W        W34070   6.137   1.653  21.463  0.1503  0.0637  0.0578
27471W        W34071  15.966   2.828  26.434  0.0806  0.0875  0.4524
27472W        W34072  20.294   7.098  32.340  0.2576 -0.2457  0.1614
27473W        W34073   2.696   0.821  21.358 -0.0747  0.0254 -0.1038
27474W        W34074  19.880   4.039  26.381  0.2599  0.0320 -0.1506
27475W        W34075  18.314   4.956  10.090  0.2757 -0.2055  0.2427
27476W        W34076   8.143   2.126  16.913 -0.0448 -0.0566  0.0715
27477W        W34077   6.274   6.664   2.657 -0.2175  0.0812 -0.2025
27478W        W34078   3.792   5.531   8.022 -0.1389  0.4030 -0.0574
27479W        W34079  17.089   0.857  30.200  0.0629 -0.1117  0.0704
27480W        W34080   8.793   0.000  25.001  0.2241  0.1163  0.1092
27481W        W34081   3.519   4.844   4.974 -0.1476  0.0808 -0.2247
27482W        W34082  16.415   4.164  22.739  0.1511 -0.1158  0.1635
27483W        W34083  24.336   5.898  26.733  0.0854  0.1348 -0.2880
27484W        W34084  21.045   1.390   8.067 -0.1261  0.2411  0.0360
27485W        W34085  13.803   4.469  21.587  0.3254 -0.3168  0.0875
27486W        W34086   4.967   3.709  25.114 -0.0774 -0.0008 -0.1786
27487W        W34087  10.978   5.401  28.438  0.1962 -0.0120  0.0536
27488W        W34088   4.001   2.672   1.467 -0.0390 -0.2249  0.2474
27489W        W34089   1.550   1.072   4.020  0.3903 -0.0602 -0.0553
27490W        W34090   5.190   4.007  18.269  0.2129  0.2262  0.0513
27491W        W34091  10.976   5.780  18.983  0.0655 -0.1378  0.1058
27492W        W34092   8.233   6.516  19.617  0.1921  0.2703 -0.0820
27493W        W34093   3.775   1.567  28.596  0.2411  0.2379  0.0890
27494W        W34094  19.243   4.858   9.588  0.0297 -0.1539  0.3244
27495W        W34095  14.931   7.211  11.527  0.2079 -0.0981 -0.1130
27496W        W34096   4.786   4.565   4.735  0.0249  0.1106  0.1364
27497W        W34097   0.331   2.124  27.291  0.0930 -0.2006  0.0719
27498W        W34098  11.884   0.618   3.713  0.0890 -0.0216  0.3541
27499W        W34099   7.063   6.293  29.772 -0.2284 -0.1761 -0.0211
27500W        W34100  23.751   3.756  27.059  0.2083 -0.1893  0.3150
27501W        W34101  14.199   4.652  25.997  0.0679  0.0226 -0.1327
27502W        W34102  22.640   7.410  22.379  0.0113  0.2373 -0.0317
27503W        W34103   7.950   7.342   8.485  0.0184 -0.2019  0.1676
27504W        W34104  20.698   4.056   0.318  0.0477  0.3201  0.0878
27505W        W34105  22.218   0.449  10.699  0.1002 -0.2836  0.1414
27506W        W34106  22.394   6.930  15.746 -0.1526 -0.2452  0.2173
27507W        W34107  16.282   1.927   7.121  0.1246  0.0092 -0.1913
27508W        W34108   0.224   0.780   8.175  0.0555 -0.0333  0.1923
27509W        W34109   7.258   6.434  23.794  0.2149  0.0310 -0.0715
27510W        W34110  11.743   6.475   0.586  0.0583  0.0079  0.0965
27511W        W34111  18.473   0.909  28.835 -0.2093 -0.1031  0.2751
27512W        W34112  21.382   5.115  24.936 -0.0144 -0.0862  0.2525
27513W        W34113   3.258   2.322   6.621 -0.4548  0.1566  0.1941
27514W        W34114   1.249   1.874  21.597  0.0324  0.1115  0.1021
27515W        W34115  12.614   7.712  30.681  0.1723 -0.1322  0.1703
27516W        W34116   7.856   6.091   3.509  0.2860 -0.0426  0.2156
27517W        W34117  21.331   5.638   7.547  0.0363  0.0723 -0.1279
27518W        W34118  12.950   6.356   9.312  0.0646 -0.0950 -0.0090
27519W        W34119  11.213   4.882  23.863 -0.1274 -0.0744  0.1630
27520W        W34120   2.413   7.346  11.084 -0.1959  0.2290 -0.0523
27521W        W34121  17.927   4.486  29.994  0.1011  0.2871  0.1997
27522W        W34122  20.963   0.348   2.657 -0.0171 -0.3822 -0.0243
27523W        W34123  10.066   0.847   7.715  0.0818  0.1799  0.3125
27524W        W34124  13.168   2.691  29.255  0.2458 -0.2600  0.2773
27525W        W34125  20.573   5.138   9.974 -0.1829  0.1883  0.0459
27526W        W34126  10.714   3.923   2.946 -0.1247 -0.0173 -0.2395
27527W        W34127  13.606   2.709   7.489  0.2081  0.0910 -0.0648
27528W        W34128  11.646   5.708  22.922 -0.1479 -0.3366 -0.2470
27529W        W34129   6.766   1.427  29.842  0.1758  0.1043  0.1209
27530W        W34130  10.250   5.688  23.584 -0.0490  0.2355  0.0362
27531W        W34131  24.960   6.437   4.257  0.1686  0.1352 -0.1874
27532W        W34132   6.229   0.058  27.043 -0.1030 -0.1183  0.0315
27533W        W34133  16.904   0.602  12.919 -0.1406 -0.0634  0.1872
27534W        W34134   9.905   5.387  31.707 -0.0339 -0.2513 -0.0036
27535W        W34135   8.219   4.634  22.491 -0.0575 -0.3430 -0.1651
27536W        W34136   9.521   2.233  28.006 -0.3005  0.0486  0.0051
27537W        W34137  21.541   4.749  28.961  0.0954  0.0910  0.0148
27538W        W34138   3.354   3.535  16.408 -0.2108 -0.2179 -0.0864
27539W        W34139  14.155   5.374   7.660  0.0587 -0.1372  0.0519
27540W        W34140  20.676   3.895  15.463 -0.0858  0.2322 -0.2186
27541W        W34141  16.206   7.331  30.067  0.1311 -0.2631 -0.1364
27542W        W34142   7.558   2.661  22.893  0.0019  0.1724  0.2586
27543W        W34143  10.482   5.840  30.897 -0.3912 -0.3589 -0.0396
27544W        W34144  19.864   3.403   6.922  0.1777  0.1574 -0.1093
27545W        W34145   6.998   2.674  16.022  0.1811  0.2193 -0.2801
27546W        W34146  15.715   2.133  22.427  0.0034  0.0547 -0.3997
27547W        W34147  19.742   5.035  27.000  0.1366 -0.1010 -0.1330
27548W        W34148   5.813   4.386  21.851  0.1287 -0.0782  0.1984
27549W        W34149  19.104   7.485  22.587  0.2072  0.0859 -0.2792
27550W        W34150   7.042   5.429  15.441 -0.0450 -0.3135  0.0274
27551W        W34151  19.141   4.768  28.801 -0.2210  0.0363 -0.0920
27552W        W34152  25.150   6.149   1.362  0.0110  0.0461  0.0582
27553W        W34153  17.424   1.758  31.732 -0.0009 -0.2952 -0.2296
27554W        W34154   1.433   6.195   1.094 -0.0851 -0.2009 -0.1190
27555W        W34155  18.791   6.368  13.184  0.0914  0.0691 -0.2102
27556W        W34156  11.229   0.181   5.698 -0.3220  0.0992  0.1602
27557W        W34157  18.449   6.888  14.729 -0.2251  0.1154 -0.0687
27558W        W34158  14.087   6.934  21.544 -0.1530  0.0011 -0.2409
27559W        W34159   9.426   2.152   6.213  0.1777 -0.0604 -0.0044
27560W        W34160  14.231   1.338  12.250 -0.0099  0.2064  0.0419
27561W        W34161   2.837   1.232   3.427  0.0993 -0.0448 -0.0622
27562W        W34162  25.074   4.813  31.909  0.0422  0.0350 -0.1904
27563W        W34163   5.811   5.852  24.995  0.0746  0.0909  0.1681
27564W        W34164   2.486   2.303  28.596  0.0161 -0.2385 -0.0802
27565W        W34165   2.832   7.409  24.654  0.1497 -0.3076  0.0761
27566W        W34166  12.346   1.438   7.292 -0.2769  0.0830  0.3191
27567W        W34167   4.465   1.864   7.288  0.1741  0.0175 -0.1634
27568W        W34168  16.211   6.324   4.020 -0.0728 -0.0848 -0.1613
27569W        W34169   2.818   6.800  28.539  0.0525 -0.0551 -0.3254
27570W        W34170   2.621   2.348   8.496  0.1548 -0.1502 -0.0505
27571W        W34171   9.870   1.785  29.816 -0.0335  0.2045 -0.1556
27572W        W34172   0.056   5.315  20.463 -0.2085 -0.0208 -0.2536
27573W        W34173   1.292   2.613   1.782  0.2080 -0.0051  0.0743
27574W        W34174  19.032   0.026  24.313  0.0647 -0.0986  0.2914
27575W        W34175  10.363   4.202  25.915  0.0435 -0.0246 -0.0565
27576W        W34176   5.444   5.256  27.392  0.0737 -0.3482 -0.1888
27577W        W34177  14.309   5.437  29.957  0.2560  0.0890  0.0523
27578W        W34178  21.650   1.416  22.332  0.2260 -0.2321  0.0040
27579W        W34179   1.970   7.758   1.337 -0.3710 -0.0719 -0.3304
27580W        W34180   1.059   1.171   3.871 -0.0033 -0.1928  0.1966
27581W        W34181  20.064   3.427  29.379 -0.2033  0.1500  0.1402
27582W        W34182   3.109   6.767   4.323 -0.1596 -0.0979 -0.2350
27583W        W34183  20.155   2.455  14.518 -0.0632 -0.0337 -0.0509
27584W        W34184  22.296   4.380  10.925  0.0078  0.2687 -0.2143
27585W        W34185  22.082   7.627   3.837  0.0574 -0.0378 -0.1268
27586W        W34186  20.463   1.100  28.157 -0.1809  0.2148  0.2262
27587W        W34187   3.105   1.930  31.127  0.3728 -0.0939 -0.0067
27588W        W34188   2.116   5.009   3.963  0.0533  0.1356 -0.0895
27589W        W34189  12.411   1.486  25.776 -0.1256 -0.2411  0.2405
27590W        W34190   2.957   2.684  17.548  0.0354 -0.0750 -0.1757
27591W        W34191  25.081   1.143  26.691  0.2383  0.1393 -0.1325
27592W        W34192   0.527   6.018  24.739 -0.0420 -0.0270 -0.2436
27593W        W34193  16.692   4.378   8.771  0.0255  0.0118 -0.1396
27594W        W34194  17.884   1.652  22.601  0.2559 -0.0931 -0.2638
27595W        W34195   6.590   2.867  26.409  0.2165 -0.3086  0.3509
27596W        W34196   5.582   3.966   3.683  0.0845 -0.0343  0.0652
27597W        W34197   4.248   5.700  17.365  0.2192  0.0109 -0.1838
27598W        W34198  23.599   6.463   9.432  0.4244  0.0396 -0.1863
27599W        W34199   7.606   2.069   1.368  0.1422 -0.2806  0.1316
27600W        W34200   8.922   6.934   4.320 -0.0516  0.0150 -0.0373
27601W        W34201  11.683   0.639  32.317 -0.0478  0.1395 -0.1329
27602W        W34202   5.781   3.845   7.043  0.2267  0.1736  0.2481
27603W        W34203  21.283   6.219  13.264  0.0010 -0.1897 -0.2886
27604W        W34204   6.122   3.543  28.045 -0.0738 -0.3177 -0.1776
27605W        W34205   6.436   1.023   5.118  0.0536 -0.3074 -0.2217
27606W        W34206  14.459   0.103   6.771 -0.0093 -0.1504  0.1887
27607W        W34207  15.969   1.370  11.868 -0.0699 -0.2418  0.1187
27608W        W34208  19.008   0.053  32.421  0.1368  0.1254 -0.0358
27609W        W34209   0.299   2.142  28.195  0.1375 -0.4101 -0.0302
27610W        W34210  19.179   0.898  14.946  0.3209 -0.0223 -0.0132
27611W        W34211   1.301   5.421   5.507  0.4457  0.0116 -0.1976
27612W        W34212   7.347   1.345  19.417  0.2602 -0.3157 -0.2713
27613W        W34213   0.463   2.418   0.946  0.0905  0.2120  0.1972
27614W        W34214  23.127   2.315  16.021 -0.1389 -0.2224 -0.1019
27615W        W34215  20.016   0.818  27.752  0.0146 -0.0204 -0.2178
27616W        W34216   4.740   2.622  21.628  0.2719 -0.1051 -0.0547
27617W        W34217   5.470   5.313   9.629 -0.1639  0.1401  0.1617
27618W        W34218   0.379   4.543  30.815 -0.0749 -0.2900  0.0825
27619W        W34219  20.447   0.990   7.318 -0.1848  0.1439  0.0037
27620W        W34220  16.765   4.079   7.993  0.0396  0.1930  0.0255
27621W        W34221  24.363   7.105  29.835  0.0742  0.0421  0.1936
27622W        W34222  17.378   0.994   5.383 -0.1843 -0.2504 -0.0288
27623W        W34223   0.823   6.023  26.205  0.2067  0.0273  0.2330
27624W        W34224   5.196   3.601  21.859 -0.1016 -0.2447  0.2286
27625W        W34225  19.538   2.336  32.370  0.0983 -0.0932  0.0271
27626W        W34226   7.568   2.882   2.350 -0.0293  0.0218 -0.0354
27627W        W34227   8.776   2.091  26.940  0.1429  0.0590  0.0917
27628W        W34228  12.742   6.936  23.042  0.4734 -0.2882 -0.0721
27629W        W34229  15.308   3.805  24.777 -0.2072 -0.3040  0.4014
27630W        W34230   8.904   5.807  16.824  0.0927  0.1332 -0.0128
27631W        W34231  21.992   3.336  14.327 -0.0000 -0.1606  0.0007
27632W        W34232  19.976   7.222   0.465  0.0187  0.0443  0.0129
27633W        W34233  22.120   2.969  24.927  0.2728  0.1075 -0.5759
27634W        W34234   3.474   4.024   7.589 -0.2580  0.1953 -0.0490
27635W        W34235   4.856   5.699   5.085 -0.2719  0.0688 -0.4937
27636W        W34236  12.952   4.606  28.218 -0.4015  0.1642 -0.0399
27637W        W34237  23.556   6.140  11.918 -0.0474  0.1503 -0.2696
27638W        W34238  23.421   3.879  11.478  0.1770 -0.0451 -0.2827
27639W        W34239   0.933   5.927  19.441 -0.0466  0.0009  0.0054
27640W        W34240  23.241   2.586  22.440 -0.0686  0.0973  0.3051
27641W        W34241   6.640   0.176  25.205  0.0811 -0.0761 -0.1052
27642W        W34242   6.194   1.292  17.916 -0.1724 -0.1088  0.0087
27643W        W34243   7.865   2.639  19.640  0.3025 -0.0680  0.1278
27644W        W34244  18.108   0.797  25.983 -0.0847 -0.2387  0.1077
27645W        W34245  20.243   5.205   4.210  0.0213  0.0744  0.1746
27646W        W34246  22.115   3.269  26.766  0.0983 -0.1502  0.1593
27647W        W34247   5.060   6.212  17.165  0.0495 -0.0580 -0.1570
27648W        W34248  21.882   5.019   0.504 -0.1573 -0.0238  0.0078
27649W        W34249   8.259   2.127  26.897 -0.0429  0.4096  0.5497
27650W        W34250  19.255   1.216   1.305 -0.1748  0.4947  0.1199
27651W        W34251  12.242   2.300  10.643  0.0039  0.2276 -0.0718
27652W        W34252   5.129   0.510   8.187  0.2898  0.0420 -0.2480
27653W        W34253  18.190   2.162  15.463  0.0297 -0.0549 -0.0385
27654W        W34254  20.766   5.952   7.872 -0.1793 -0.1061  0.1616
27655W        W34255   9.404   7.567  26.740 -0.0065  0.2667  0.2364
27656W        W34256   4.842   7.018  19.344 -0.0342  0.3210  0.1506
27657W        W34257   5.455   4.181  28.146 -0.1627  0.0789 -0.1089
27658W        W34258   5.546   7.300   5.391 -0.1245  0.1608 -0.2020
27659W        W34259  23.020   4.808   3.214  0.1150  0.1998 -0.2070
27660W        W34260  14.054   0.285   4.632  0.0201 -0.0613  0.2691
27661W        W34261   0.272   6.292   4.039 -0.0869  0.0079  0.0071
27662W        W34262  19.452   2.997  25.043  0.2143 -0.2917  0.0122
27663W        W34263  19.052   5.718  17.413 -0.0086  0.0833 -0.0467
27664W        W34264   0.622   7.113  29.547  0.1178 -0.3442  0.0917
27665W        W34265  18.899   4.311   0.940 -0.0837  0.1190  0.0220
27666W        W34266   6.603   2.414  17.523 -0.0421  0.0779 -0.0318
27667W        W34267  12.591   6.251  20.180  0.0853  0.1018  0.2047
27668W        W34268  19.387   4.835  17.436  0.0887  0.1657  0.1037
27669W        W34269  23.522   6.782   1.260  0.1910  0.3841 -0.1842
27670W        W34270   9.071   5.434  20.708  0.0719  0.2864 -0.2786
27671W        W34271  10.306   5.399   7.846  0.0767  0.1580  0.1939
27672W        W34272   7.661   5.236   1.419  0.1784 -0.1244 -0.2323
27673W        W34273  12.039   3.759   3.464 -0.2814 -0.1426 -0.2702
27674W        W34274  19.321   3.901   4.900  0.1844 -0.0966  0.1691
27675W        W34275  11.760   1.729   6.078 -0.0382  0.0204 -0.1601
27676W        W34276  11.716   2.435   7.402  0.0005  0.1871  0.1384
27677W        W34277  12.038   3.333  27.066  0.1575  0.0295 -0.1545
27678W        W34278  11.715   6.541   6.991 -0.0469  0.0879 -0.3123
27679W        W34279  15.408   0.941  21.761  0.0408  0.1568 -0.4601
27680W        W34280   6.933   5.783   3.487 -0.0015  0.0493 -0.2189
27681W        W34281  18.991   0.107   4.771  0.0908  0.0193  0.2069
27682W        W34282   6.383   7.399  10.117  0.1957  0.1685 -0.1026
27683W        W34283  10.472   2.459  28.573  0.0769 -0.1812  0.2062
27684W        W34284  17.650   6.346   5.216  0.0241  0.2060  0.0227
27685W        W34285   4.598   7.611   9.730  0.1130 -0.1074 -0.0164
27686W        W34286   8.108   6.376   6.587 -0.0377 -0.2695  0.0298
27687W        W34287  12.287   6.318   4.575  0.0457  0.2456  0.1994
27688W        W34288   4.529   1.688  30.377 -0.0358  0.0407  0.3481
27689W        W34289  20.977   4.358  30.207 -0.2245  0.0102  0.1820
27690W        W34290  17.463   1.858  25.453  0.2107 -0.0684 -0.1801
27691W        W34291   6.432   4.622   0.502 -0.2055  0.1009 -0.2984
27692W        W34292  10.582   6.257  24.998 -0.1760  0.0966 -0.3083
27693W        W34293   3.908   5.822  25.349 -0.0703  0.0572  0.0046
27694W        W34294  10.276   7.075   5.614 -0.0423 -0.2241 -0.1554
27695W        W34295   5.677   4.377  24.621  0.1039 -0.2211  0.1216
27696W        W34296  21.822   7.206  10.480 -0.1095  0.1032  0.0623
27697W        W34297  18.156   3.123  17.838  0.0797 -0.1475 -0.0579
27698W        W34298  23.277   5.749  28.231 -0.1301 -0.2476 -0.1092
27699W        W34299   8.882   1.751  18.608 -0.2820 -0.2322  0.1005
27700W        W34300  10.182   1.838   6.938  0.0017 -0.0840  0.0262
27701W        W34301   3.416   5.406   7.539  0.0497  0.1944  0.1829
27702W        W34302  17.690   0.453  28.552 -0.1413  0.0458  0.1618
27703W        W34303  17.386   7.256  22.479  0.2205  0.0014 -0.2116
27704W        W34304  20.079   5.416   9.623  0.3150  0.3695  0.1224
27705W        W34305  13.828   6.267  27.537  0.0267  0.3548  0.0008
27706W        W34306  20.831   3.114  25.582 -0.0373  0.1211  0.0031
27707W        W34307  19.050   2.875  16.157  0.0304 -0.0728  0.1853
27708W        W34308   7.847   6.292  14.713 -0.0343 -0.0611  0.0924
27709W        W34309   4.281   4.022   5.087  0.0293 -0.2107 -0.0170
27710W        W34310  23.869   4.629   3.064  0.2076 -0.0871 -0.0372
27711W        W34311  15.155   3.384  28.439 -0.1448 -0.0888  0.0667
27712W        W34312  18.320   1.113  31.372 -0.1401 -0.2787 -0.2306
27713W        W34313  13.389   5.979  10.737  0.4595 -0.0042  0.0131
27714W        W34314  23.789   5.115  21.546  0.2165  0.1977  0.0082
27715W        W34315  13.761   0.401  27.201  0.1637 -0.1094  0.2135
27716W        W34316   5.714   7.631   3.071  0.0741 -0.2866 -0.4333
27717W        W34317   9.960   2.850   0.236 -0.0560  0.2553 -0.1923
27718W        W34318   5.382   1.647  28.874  0.1587  0.3783  0.0745
27719W        W34319  15.121   0.583  27.590  0.0009 -0.1395 -0.2716
27720W        W34320  12.088   1.791   1.945  0.0999  0.2095  0.2412
27721W        W34321  23.176   6.099  10.821 -0.1169 -0.1126 -0.0407
27722W        W34322  21.121   5.805  10.261  0.1557 -0.4700  0.0351
27723W        W34323  24.437   6.869  12.942 -0.5063  0.3002  0.0064
27724W        W34324  12.659   2.255  22.583 -0.0008 -0.2296 -0.2119
27725W        W34325   4.669   5.808   4.249 -0.3124 -0.1363  0.1028
27726W        W34326  19.403   4.737   3.269 -0.2469  0.3919  0.0008
27727W        W34327   3.909   6.230   9.548 -0.0280  0.1657  0.1190
27728W        W34328   9.828   7.638  29.636 -0.0126 -0.2314 -0.0119
27729W        W34329  21.706   2.024   0.880 -0.1356  0.2072  0.0798
27730W        W34330   3.289   3.932  20.746 -0.2472 -0.3536 -0.0435
27731W        W34331  21.925   7.613   0.566  0.0504 -0.0080 -0.1565
27732W        W34332   9.558   5.202   2.582  0.3109 -0.2044 -0.3659
27733W        W34333  15.866   5.549   2.842 -0.0658 -0.0911  0.0958
27734W        W34334  12.805   7.488   8.757  0.0753 -0.1021  0.2041
27735W        W34335   6.961   4.809   2.618 -0.0023 -0.0616  0.0508
27736W        W34336   2.581   5.881  19.909 -0.0160 -0.2512  0.0739
27737W        W34337  22.295   2.532   6.065  0.0076  0.1817  0.0883
27738W        W34338   8.038   1.817  18.273 -0.3354 -0.1804 -0.0279
27739W        W34339  15.496   1.758  27.442  0.0367 -0.1053 -0.0041
27740W        W34340   9.459   6.426  27.682 -0.0341  0.1477 -0.1321
27741W        W34341  19.552   1.395   7.177  0.1080  0.0869  0.0751
27742W        W34342  16.335   1.463   3.149  0.1572  0.0808 -0.1190
27743W        W34343  25.043   7.094   7.117 -0.1297 -0.0792  0.1408
27744W        W34344  11.537   2.291  27.052 -0.2086  0.0593 -0.3461
27745W        W34345   9.368   1.793  29.145  0.2423 -0.1158  0.1520
27746W        W34346  13.408   7.621   9.045 -0.0502 -0.3462  0.3116
27747W        W34347   0.128   5.495   5.169  0.3799 -0.0069  0.1169
27748W        W34348  22.096   0.058   3.196 -0.2043  0.4215 -0.0707
27749W        W34349   2.892   3.489  18.273 -0.0385  0.2975  0.1584
27750W        W34350   1.163   7.622   2.093 -0.1777  0.1003  0.1455
27751W        W34351  20.442   1.862   4.631 -0.0566  0.3349  0.0470
27752W        W34352   5.913   3.857  17.452 -0.2175 -0.3251 -0.1349
27753W        W34353   3.245   2.479  24.014 -0.0065  0.1004  0.2067
27754W        W34354   2.747   0.520   6.051  0.0862  0.0915 -0.4116
27755W        W34355  20.552   4.182   0.831 -0.0729  0.0066  0.0171
27756W        W34356  13.307   2.544  10.756  0.1872  0.0023  0.2347
27757W        W34357  11.462   6.002  30.003  0.1950 -0.1711  0.0863
27758W        W34358   4.950   7.261   3.109 -0.1347 -0.3273 -0.1901
27759W        W34359   3.572   0.121   0.565  0.1083 -0.1975 -0.0268
27760W        W34360   2.366   1.530  24.223 -0.2579 -0.4908  0.2399
27761W        W34361   3.755   4.152   0.651 -0.1080 -0.2696  0.0837
27762W        W34362   0.050   6.513  24.377  0.0311  0.0437 -0.0274
27763W        W34363   9.588   6.095  25.115  0.2030 -0.1252  0.1500
27764W        W34364   2.447   4.846  30.294  0.3748 -0.3439 -0.3480
27765W        W34365   0.671   6.774   1.077  0.1713 -0.4343 -0.1256
27766W        W34366  20.221   0.192  13.138 -0.1686 -0.0125  0.1250
27767W        W34367  12.285   0.356  24.805 -0.1311  0.6110  0.2697
27768W        W34368   7.932   5.022   2.339 -0.0821 -0.2478 -0.0736
27769W        W34369  16.168   5.537  30.999 -0.0378 -0.2176  0.1147
27770W        W34370  21.517   7.290  16.433  0.0687  0.0517  0.0007
27771W        W34371   4.955   2.479  20.798  0.3486 -0.2508  0.1028
27772W        W34372  21.418   4.874  12.802  0.1570 -0.0753 -0.1289
27773W        W34373  24.719   2.905  19.345  0.3922 -0.3872  0.2436
27774W        W34374   6.190   5.258  28.612  0.2530  0.0787 -0.1426
27775W        W34375  19.082   6.800   5.183  0.0629  0.0961 -0.2168
27776W        W34376   1.317   5.724   1.559  0.0701  0.1433  0.0179
27777W        W34377   7.263   3.708  24.299 -0.0193  0.0697  0.1149
27778W        W34378   8.880   4.308   8.668  0.0477 -0.0293 -0.1329
27779W        W34379   1.173   3.277  23.959 -0.1214  0.2869  0.1913
27780W        W34380   6.796   2.824  14.726 -0.3318 -0.1046 -0.3221
27781W        W34381  23.926   4.858   5.836  0.1163  0.2064 -0.0254
27782W        W34382  19.765   0.206  23.143 -0.2311 -0.1313 -0.1936
27783W        W34383  18.732   1.694  15.125 -0.1292 -0.2450  0.2129
27784W        W34384  11.673   4.386  20.696 -0.2375 -0.2444  0.0399
27785W        W34385  18.028   5.729  10.782 -0.0072  0.0744 -0.1732
27786W        W34386  20.390   4.848  12.823 -0.2239  0.1308 -0.0340
27787W        W34387  18.421   5.860   6.821 -0.0486  0.3078  0.0869
27788W        W34388   4.457   0.730  20.379 -0.4046  0.1078 -0.0404
27789W        W34389   1.798   6.451   0.747 -0.1384 -0.0768 -0.1502
27790W        W34390  20.212   3.860  22.677 -0.4039  0.3346 -0.1205
27791W        W34391   4.378   3.498   5.005 -0.2629 -0.2642 -0.0247
27792W        W34392   0.122   6.769  31.415  0.0863  0.2290 -0.0313
27793W        W34393  20.542   1.749  31.086 -0.1047 -0.2841 -0.2262
27794W        W34394  21.239   5.367   1.303 -0.0670  0.0935  0.2902
27795W        W34395  16.919   3.860  31.277  0.1373 -0.0421  0.1712
27796W        W34396  24.229   7.197  29.293  0.0753 -0.1527 -0.2125
27797W        W34397  13.244   5.616   7.408  0.0882 -0.0340  0.0605
27798W        W34398  15.830   4.142  17.198 -0.0022 -0.0444 -0.1240
27799W        W34399   4.829   1.350   0.051 -0.0597  0.0078 -0.1354
27800W        W34400  10.208   5.611   4.869  0.1239 -0.0734 -0.3851
27801W        W34401   5.540   7.298  26.192 -0.2140 -0.0246 -0.0864
27802W        W34402  23.183   5.729   1.911 -0.2262 -0.0153  0.1313
27803W        W34403  22.431   3.083   6.708  0.0175  0.1639  0.3398
27804W        W34404   5.421   5.364  22.277  0.3769  0.2149  0.3224
27805W        W34405  24.693   0.491  11.857  0.0563 -0.1485  0.1334
27806W        W34406  22.305   3.637   9.735  0.0196  0.1539  0.1256
27807W        W34407   8.477   1.289   4.600  0.1406  0.0083  0.1526
27808W        W34408  13.329   3.279  24.951  0.0264 -0.1299 -0.1479
27809W        W34409   6.114   4.884   5.144 -0.2533  0.3444  0.0985
27810W        W34410  22.739   5.549   9.532 -0.1284  0.1477 -0.1374
27811W        W34411   6.376   7.666  21.386  0.0026 -0.0242  0.0900
27812W        W34412   3.323   7.539  20.306 -0.3404  0.1613  0.3751
27813W        W34413  20.184   2.740   0.339 -0.0560  0.0725  0.2750
27814W        W34414   5.148   4.814   0.582  0.2109 -0.2080 -0.0618
27815W        W34415  11.923   3.213  26.087  0.0935 -0.1401 -0.0255
27816W        W34416   2.480   7.735  24.509  0.1423 -0.2575  0.0327
27817W        W34417  13.845   7.250   1.562  0.3694  0.0323  0.1966
27818W        W34418  23.498   4.831   1.864  0.0117 -0.0209 -0.1637
27819W        W34419  24.213   5.472  25.549 -0.2614  0.1015 -0.1013
27820W        W34420   0.841   5.485   6.905  0.1673  0.0859 -0.1020
27821W        W34421   2.377   3.253   9.784  0.1556  0.2084  0.2084
27822W        W34422  21.636   6.398  11.728 -0.3372 -0.2157  0.1726
27823W        W34423   6.709   1.009   0.790 -0.0350 -0.0203  0.3000
27824W        W34424  18.485   0.483  16.261 -0.3187  0.0572  0.1800
27825W        W34425   5.247   6.137   8.829 -0.1214 -0.0490 -0.1788
27826W        W34426  22.247   1.681  29.378  0.0627  0.0070  0.1009
27827W        W34427  18.722   4.847   9.459 -0.1723  0.0053 -0.1400
27828W        W34428   7.553   7.665  24.197  0.1814  0.0547  0.0934
27829W        W34429  14.255   3.283  29.498 -0.2722 -0.0379  0.1078
27830W        W34430   5.984   6.556   2.158  0.3232  0.2368 -0.1681
27831W        W34431   1.732   5.536  26.612  0.0012  0.1394 -0.0069
27832W        W34432  15.069   0.715  10.202 -0.0675 -0.2061 -0.0761
27833W        W34433   7.715   7.117  26.958  0.2229 -0.5046 -0.1329
27834W        W34434  14.909   0.846  25.173  0.1007 -0.1951  0.0704
27835W        W34435  22.804   0.350  10.593  0.3896 -0.1994 -0.0028
27836W        W34436  22.015   3.359   9.366 -0.2071  0.0763  0.2403
27837W        W34437   3.436   2.522  21.583  0.1616 -0.1204  0.0494
27838W        W34438  10.508   7.339   3.721 -0.0665  0.4072  0.1417
27839W        W34439  14.094   3.470   6.967  0.2387  0.2212 -0.1645
27840W        W34440   2.547   4.016   1.917  0.0418 -0.2621 -0.0652
27841W        W34441  17.217   6.446  30.222 -0.2748 -0.3044  0.0119
27842W        W34442  15.793   2.148  29.519  0.1565  0.0019  0.0659
27843W        W34443   8.036   4.883   5.288  0.0968  0.1261 -0.1795
27844W        W34444  16.345   6.038   8.326  0.3790 -0.0573 -0.1312
27845W        W34445  20.742   0.892  26.768  0.1842  0.2896 -0.3680
27846W        W34446  22.242   5.575  26.119 -0.1535  0.1518  0.1550
27847W        W34447  12.609   4.911  26.508  0.0791  0.1971 -0.0889
27848W        W34448  23.492   7.253   1.101  0.0501 -0.1874  0.1755
27849W        W34449  24.294   0.155  30.111 -0.0917 -0.0803  0.0184
27850W        W34450  19.961   3.189  29.894  0.1376  0.2658  0.4633
27851W        W34451  21.664   7.089   1.001  0.4778 -0.1363 -0.2263
27852W        W34452  11.797   3.459  21.401  0.1323  0.0052  0.1506
27853W        W34453   2.671   4.352  16.473  0.0294 -0.1361 -0.1788
27854W        W34454  23.922   7.794   2.264 -0.0777  0.0658  0.1515
27855W        W34455  13.932   4.854  11.131  0.1824 -0.1570  0.0599
27856W        W34456  18.719   3.019  27.524  0.4047  0.0739 -0.2461
27857W        W34457  12.340   7.639   0.675  0.0102  0.0334 -0.0454
27858W        W34458  12.728   7.392  19.910  0.1674  0.0692  0.1024
27859W        W34459  20.935   0.483   4.345  0.0938  0.0018 -0.1683
27860W        W34460   3.418   5.355  20.358 -0.2225 -0.0833  0.1826
27861W        W34461  16.635   5.196  27.988 -0.1459 -0.2765  0.1780
27862W        W34462  10.129   0.285  17.215  0.0580 -0.0276 -0.1462
27863W        W34463  22.386   6.416   3.219  0.0495 -0.2609  0.1377
27864W        W34464   2.308   0.457  28.142  0.2048  0.2618  0.0767
27865W        W34465  16.317   4.300  10.947 -0.2958 -0.1824  0.0187
27866W        W34466  11.858   6.935   2.069 -0.1081 -0.3415  0.0764
27867W        W34467  13.486   1.138   4.411  0.0145 -0.0430 -0.0595
27868W        W34468  19.777   4.555   0.431 -0.1468  0.0852  0.0895
27869W        W34469   7.239   3.466  26.530  0.1030 -0.0903 -0.0893
27870W        W34470   6.168   3.344  18.829 -0.1569 -0.2248 -0.3585
27871W        W34471  11.037   4.904   9.960  0.3656  0.1140 -0.1901
27872W        W34472   6.330   2.418   1.918 -0.0363 -0.4363 -0.2407
27873W        W34473  22.479   0.461   0.624  0.1316 -0.3060  0.2305
27874W        W34474  23.935   4.422  14.258 -0.0568  0.1064  0.1030
27875W        W34475  23.849   0.436  12.288 -0.3428 -0.0662 -0.1048
27876W        W34476  12.826   6.707   1.056 -0.0326  0.1850  0.1886
27877W        W34477   5.842   0.353   2.366 -0.0273  0.1417 -0.0501
27878W        W34478  18.133   7.084  13.239  0.0335  0.1115  0.1987
27879W        W34479  25.143   0.792  25.523  0.0755  0.1048 -0.0549
27880W        W34480   0.293   1.167   1.274  0.2533  0.0558  0.0000
27881W        W34481  23.048   1.722   9.839 -0.0975  0.1214 -0.1289
27882W        W34482  10.774   1.609  19.462 -0.2623  0.1353 -0.0064
27883W        W34483   6.932   4.275  19.653 -0.0282 -0.0036 -0.0522
27884W        W34484   4.036   5.735   7.501 -0.1385 -0.0719  0.0264
27885W        W34485  10.174   6.521  29.103  0.0844 -0.0787  0.0408
27886W        W34486  20.257   5.688  30.922 -0.1664  0.2804 -0.2564
27887W        W34487   6.722   0.833  20.597  0.1958 -0.0813  0.1407
27888W        W34488  20.734   1.678  11.794 -0.2375  0.1983 -0.1344
27889W        W34489  12.357   3.087  28.456  0.0047  0.1393 -0.0761
27890W        W34490  23.784   5.542  14.651 -0.1800 -0.0412  0.1971
27891W        W34491  24.919   3.291  22.508  0.2660  0.2816  0.0628
27892W        W34492  25.115   1.184  21.617 -0.1382  0.5146  0.0031
27893W        W34493   4.859   7.085  22.930 -0.1354  0.0305  0.1896
27894W        W34494  17.979   1.649   1.882  0.0029  0.3687  0.1541
27895W        W34495  12.822   1.300  26.572  0.1869 -0.0232 -0.0220
27896W        W34496  22.102   7.394   6.345 -0.4082 -0.0260  0.2180
27897W        W34497   1.294   3.758   5.651 -0.0273  0.4202 -0.1532
27898W        W34498   0.457   5.830  19.648  0.0865  0.2808 -0.3031
27899W        W34499  19.159   0.467   1.618 -0.3787 -0.2537  0.0182
27900W        W34500   8.488   3.287  27.205  0.0460  0.0218 -0.1528
27901W        W34501  24.856   4.368   4.370  0.1188 -0.1348 -0.0098
27902W        W34502  19.929   6.545  27.527 -0.2930  0.0418 -0.2912
27903W        W34503  20.003   1.755  17.490 -0.0305  0.1541 -0.1432
27904W        W34504   3.209   7.072  26.091  0.0145 -0.1107  0.0287
27905W        W34505   4.452   6.803   8.913  0.0822  0.1404  0.1672
27906W        W34506  22.342   2.799  30.220  0.3136 -0.1394 -0.0096
27907W        W34507   4.809   1.729   6.905  0.1574  0.2416 -0.1933
27908W        W34508  21.760   1.653  11.615  0.2128 -0.1567  0.0778
27909W        W34509   3.743   4.995  28.531  0.2917 -0.1006  0.2637
27910W        W34510  12.287   4.711  32.369  0.5415 -0.0077 -0.1068
27911W        W34511   2.556   3.078  29.891 -0.0539 -0.0462 -0.1960
27912W        W34512  23.146   6.386  11.217  0.1158 -0.1825  0.3508
27913W        W34513  20.684   2.882  11.436 -0.0298 -0.4222 -0.4057
27914W        W34514  12.782   5.615   8.739  0.3499  0.0936  0.1945
27915W        W34515  21.694   4.626  22.813 -0.4604  0.1526  0.0713
27916W        W34516   2.164   4.148   9.318 -0.1282  0.1240  0.1209
27917W        W34517  21.991   6.326   8.526  0.1072 -0.2332 -0.0307
27918W        W34518   4.779   4.173   3.899  0.0675 -0.0767  0.1027
27919W        W34519  15.069   4.124  25.468 -0.0307  0.1380  0.2375
27920W        W34520  15.507   6.773  25.058  0.1483 -0.1640  0.0509
27921W        W34521   3.166   5.460  21.596 -0.0604  0.0828  0.1209
27922W        W34522  10.532   6.252  21.963  0.0587  0.0494  0.2005
27923W        W34523  14.324   4.188   5.049 -0.0297  0.1842  0.2644
27924W        W34524  17.685   3.678  28.590  0.0251 -0.1617 -0.0728
27925W        W34525   2.042   3.751  22.968  0.0110  0.1940 -0.1712
27926W        W34526  19.355   3.878  11.226 -0.3862  0.2761  0.0458
27927W        W34527   3.923   0.884   8.598 -0.1117  0.0900 -0.1802
27928W        W34528  23.761   4.011   9.121  0.1332  0.0226 -0.1693
27929W        W34529  17.117   6.943  26.748 -0.0375  0.2422 -0.0748
27930W        W34530  22.922   6.066  16.237 -0.2237 -0.1281  0.1500
27931W        W34531  22.034   3.990   3.998 -0.2093  0.1578  0.1490
27932W        W34532   2.476   3.165   4.522  0.2128  0.0561  0.1502
27933W        W34533   2.044   4.089  31.632 -0.0555  0.0653  0.1345
27934W        W34534   9.461   5.980  18.610  0.2408 -0.1566  0.1472
27935W        W34535  13.922   3.822   1.949  0.1350 -0.1329  0.0568
27936W        W34536  18.777   0.118  27.423  0.0002  0.1117 -0.0721
27937W        W34537  18.452   3.321  32.251 -0.0868  0.1074  0.0592
27938W        W34538   5.099   2.371  21.381  0.0410  0.1097 -0.3116
27939W        W34539   2.098   4.679  31.161 -0.0987  0.1591  0.0352
27940W        W34540  15.511   5.672  29.933 -0.1046 -0.0153  0.1253
27941W        W34541  15.729   5.014   1.244 -0.0515  0.1009  0.0989
27942W        W34542  15.901   2.872  23.033 -0.4009 -0.0698 -0.0677
27943W        W34543  12.270   5.674  22.553 -0.2030 -0.1816  0.0415
27944W        W34544   9.501   2.223   1.159 -0.1878  0.0102 -0.3372
27945W        W34545  11.843   4.650   0.540  0.1862 -0.0422 -0.1674
27946W        W34546  24.834   3.187   3.063 -0.1281  0.0588 -0.0918
27947W        W34547  15.122   3.471  29.014  0.2331 -0.0138  0.0852
27948W        W34548  12.672   0.921   4.182  0.2664  0.1447 -0.0140
27949W        W34549   8.673   6.074  18.913 -0.0948  0.0535  0.2992
27950W        W34550  25.133   6.050  23.218 -0.0313 -0.1463  0.0890
27951W        W34551  17.566   4.798  24.292  0.1075 -0.0702 -0.0860
27952W        W34552  16.411   6.150   9.656  0.1524  0.0880 -0.0874
27953W        W34553  21.401   1.434   4.930  0.1154  0.1216  0.0809
27954W        W34554  11.486   1.642  20.854  0.3168  0.1764  0.1483
27955W        W34555  12.144   4.031  11.085  0.0408 -0.0638 -0.0806
27956W        W34556  20.936   0.848  32.327 -0.0324 -0.0576 -0.1125
27957W        W34557  20.275   6.978  21.765  0.0453 -0.0104 -0.2783
27958W        W34558  17.738   2.011  27.225 -0.0938  0.0504  0.0630
27959W        W34559  22.484   0.613  13.877 -0.4302  0.1338  0.1406
27960W        W34560   1.015   2.247  20.030 -0.3093  0.0245  0.0025
27961W        W34561  10.185   3.461  21.123  0.4139  0.0865  0.0418
27962W        W34562  19.145   4.199  12.865 -0.0294  0.0797  0.2558
27963W        W34563  13.788   2.643  27.684  0.1354  0.1909 -0.0388
27964W        W34564  18.970   3.579   2.981  0.2254 -0.0772 -0.0572
27965W        W34565   3.789   6.582  20.815  0.0163 -0.1030  0.2503
27966W        W34566   2.619   3.943   3.718  0.1293  0.0330 -0.1409
27967W        W34567  17.429   3.383  10.754 -0.0796  0.1345 -0.1637
27968W        W34568   9.773   3.083  21.904  0.0650 -0.0473 -0.0487
27969W        W34569   4.345   3.249  25.541 -0.2177  0.2096  0.4266
27970W        W34570  20.536   4.808   1.863 -0.3259 -0.1066 -0.2990
27971W        W34571  14.533   1.896  30.687 -0.2028 -0.3263 -0.1006
27972W        W34572  16.970   5.759  10.148 -0.2481  0.0792  0.1125
27973W        W34573   9.294   4.654   4.539 -0.0217  0.0433  0.0732
27974W        W34574  12.265   3.044   6.615  0.0218  0.0927 -0.2498
27975W        W34575  24.477   7.061  20.640 -0.0521 -0.1940 -0.2726
27976W        W34576   4.161   7.445  17.722  0.2261 -0.2777  0.0130
27977W        W34577   9.720   3.278  10.175 -0.0815  0.0067  0.0405
27978W        W34578  19.843   2.839  27.075 -0.0580  0.2065  0.1509
27979W        W34579  18.738   4.122   3.814  0.2269  0.1380  0.1556
27980W        W34580  15.154   4.556   0.182  0.3022 -0.2167 -0.0094
27981W        W34581   1.521   3.249  27.163  0.0337  0.3060 -0.1324
27982W        W34582  18.334   6.904  10.459 -0.1609  0.0074  0.1395
27983W        W34583   4.305   4.725  15.832  0.0309  0.0117 -0.0757
27984W        W34584   8.635   0.291  26.104  0.0740 -0.3729 -0.0252
27985W        W34585  10.779   4.889  17.927 -0.3084  0.0617 -0.0019
27986W        W34586   1.295   4.997  30.846 -0.1403  0.2417  0.1504
27987W        W34587  21.051   3.851  22.587  0.0190  0.0082 -0.2537
27988W        W34588  24.850   4.397   8.422 -0.2354  0.1920 -0.4057
27989W        W34589  22.180   1.037  10.138 -0.0915  0.1274 -0.0798
27990W        W34590  17.340   4.667  10.387  0.1261  0.0717 -0.2197
27991W        W34591  16.331   3.650   8.648  0.1596 -0.1153  0.1019
27992W        W34592   3.345   6.635  30.766 -0.0316 -0.1648 -0.1245
27993W        W34593   8.350   5.700  29.282  0.2775 -0.1159  0.0570
27994W        W34594   6.275   0.496  32.244 -0.1741 -0.1837  0.6592
27995W        W34595  11.682   1.314  29.614 -0.0295  0.0214  0.1701
27996W        W34596  10.789   6.092  31.521  0.1986 -0.1503 -0.1301
27997W        W34597   7.529   6.412   8.116  0.2561  0.0208 -0.0182
27998W        W34598  11.103   3.037  10.474 -0.0289 -0.2444  0.0532
27999W        W34599  23.407   5.710   2.524 -0.1621 -0.0646 -0.0539
28000W        W34600  12.673   2.760   1.730 -0.0833 -0.1076  0.1669
28001W        W34601   2.965   6.185  29.932  0.2657 -0.5255 -0.2093
28002W        W34602  20.880   6.900  28.374  0.2408 -0.0856  0.1260
28003W        W34603  22.355   5.596   5.610  0.0656 -0.3644 -0.4201
28004W        W34604   5.554   3.210   0.940  0.4922  0.0043 -0.0198
28005W        W34605   8.755   0.833  22.319 -0.0163 -0.0628  0.1085
28006W        W34606  22.177   7.326  10.808  0.0305  0.4098  0.0946
28007W        W34607  22.156   5.922  14.981 -0.3159 -0.4423 -0.2773
28008W        W34608  20.803   7.764  29.421 -0.2556  0.1411 -0.0717
28009W        W34609  22.474   4.581  24.061 -0.4976  0.0623  0.1569
28010W        W34610   2.475   0.998  10.836 -0.1460 -0.2544  0.1077
28011W        W34611  22.512   5.362  24.810 -0.0623  0.1934 -0.0919
28012W        W34612  21.812   5.266  13.813  0.1417  0.3263 -0.0869
28013W        W34613  21.288   3.929  32.372 -0.0622  0.3032  0.2107
28014W        W34614  15.921   2.904  16.301  0.1756 -0.0422 -0.3487
28015W        W34615   0.582   3.639  19.961 -0.0747  0.0642 -0.1283
28016W        W34616   0.632   5.120   1.471 -0.2058  0.3938 -0.0803
28017W        W34617  20.359   7.284   4.040  0.2480  0.0070  0.1863
28018W        W34618   8.648   5.992   7.317  0.1335 -0.0110 -0.3341
28019W        W34619  12.155   1.747  12.102  0.0433  0.4641  0.0696
28020W        W34620  21.839   2.164  25.534 -0.0141 -0.3582 -0.2316
28021W        W34621   2.349   3.782   0.870  0.0736  0.0806 -0.2935
28022W        W34622   6.367   4.208  23.233 -0.2672  0.0015 -0.4667
28023W        W34623  22.925   0.017   6.401  0.0231 -0.1801 -0.0652
28024W        W34624  14.028   3.587  12.786 -0.0390  0.0508  0.1296
28025W        W34625  19.974   4.144  17.100 -0.0446 -0.3699 -0.0623
28026W        W34626   1.745   6.326   5.117 -0.0436  0.0621 -0.1307
28027W        W34627  23.907   1.549  26.993  0.4008  0.0826 -0.2122
28028W        W34628   6.312   2.094  16.388 -0.1723 -0.1020  0.0334
28029W        W34629   0.549   2.677   8.386  0.2008  0.0497  0.1019
28030W        W34630  11.253   7.019   3.307  0.0714 -0.0605 -0.0102
28031W        W34631   0.554   2.708  20.663 -0.0204  0.2746 -0.0508
28032W        W34632   8.602   1.977   5.036 -0.0670 -0.0702 -0.0979
28033W        W34633  12.224   4.837   0.351 -0.0029  0.2249 -0.0127
28034W        W34634  15.494   2.116  21.284 -0.0833 -0.0323 -0.0056
28035W        W34635   2.771   2.042  17.099  0.3569  0.0810 -0.2943
28036W        W34636   3.924   1.714   1.587 -0.0015 -0.0750 -0.1076
28037W        W34637  19.216   6.148  26.547 -0.0350  0.0032  0.0310
28038W        W34638  16.449   4.758  14.604  0.1704 -0.1232 -0.0159
28039W        W34639  21.247   4.124  26.318 -0.0391 -0.3418  0.3000
28040W        W34640  10.551   4.547   6.037 -0.1629 -0.0764 -0.1069
28041W        W34641  19.158   3.128  10.642 -0.0370 -0.1503  0.1694
28042W        W34642   7.478   4.987   8.748 -0.0073  0.3738  0.0606
28043W        W34643   3.756   7.362  24.676 -0.3475 -0.3118  0.1195
28044W        W34644   4.543   1.288  15.484  0.1275 -0.2111 -0.3656
28045W        W34645   9.774   5.125  15.177  0.2909  0.1316  0.3658
28046W        W34646  20.041   2.425  27.911  0.2782  0.2199 -0.0836
28047W        W34647  12.238   6.929  30.668  0.3042  0.0367 -0.0586
28048W        W34648  22.993   0.167  11.751 -0.0734  0.3299  0.0335
28049W        W34649  13.991   0.600  12.706  0.1142 -0.2312 -0.1047
28050W        W34650  23.467   7.702   6.165 -0.1049  0.0763 -0.0479
28051W        W34651   7.616   5.292  24.199  0.0465  0.1374  0.2182
28052W        W34652  16.370   2.650  26.199 -0.0415 -0.1370  0.2383
28053W        W34653   1.787   2.367   3.496  0.0477  0.0919  0.2354
28054W        W34654   7.939   5.997  25.776  0.0222  0.0170 -0.0672
28055W        W34655   0.289   2.130  19.954  0.2227 -0.0953 -0.1118
28056W        W34656  12.442   6.958   6.225  0.1098 -0.1401 -0.1612
28057W        W34657  17.742   1.966   9.272  0.1823  0.0243 -0.1843
28058W        W34658  22.789   5.374   8.746  0.2447 -0.1544  0.0665
28059W        W34659  24.014   4.675  13.322  0.1056  0.1524 -0.2730
28060W        W34660  18.253   5.968  24.056 -0.2218 -0.0041 -0.0680
28061W        W34661  17.436   2.996   2.301 -0.0615  0.0751 -0.3118
28062W        W34662  11.334   5.819   9.890 -0.1901  0.0053  0.2167
28063W        W34663   4.704   6.103   9.929 -0.3827  0.1137 -0.1309
28064W        W34664   3.645   2.226  10.198  0.0189 -0.1706  0.1236
28065W        W34665  12.650   5.597   5.230 -0.0425  0.0019 -0.0843
28066W        W34666  12.359   4.332  24.750  0.4004  0.3169 -0.2411
28067W        W34667  21.439   5.082  10.978  0.0205  0.4099  0.1743
28068W        W34668  17.905   1.795  31.719 -0.3471  0.1481  0.0170
28069W        W34669   0.323   6.148  18.733  0.0707  0.1139 -0.1364
28070W        W34670  14.167   0.146  11.376 -0.2457  0.2679  0.2012
28071W        W34671   2.186   7.143   4.413 -0.0002 -0.0735  0.1412
28072W        W34672   5.213   0.315   5.898 -0.0291  0.1622 -0.0569
28073W        W34673  12.424   4.082  29.037 -0.1380 -0.0000  0.0668
28074W        W34674  23.289   4.613  31.853 -0.1388  0.1428  0.1026
28075W        W34675  15.332   4.728   5.880 -0.0688  0.1380  0.3893
28076W        W34676  19.455   1.852  16.003  0.1586 -0.0372 -0.1827
28077W        W34677   4.167   0.522  20.062 -0.0083 -0.0124  0.1373
28078W        W34678   0.524   3.654   5.993  0.1607 -0.0880 -0.1724
28079W        W34679   0.523   5.506   8.702 -0.1140 -0.2553  0.0768
28080W        W34680  22.535   2.158  22.504 -0.1725 -0.0730  0.0667
28081W        W34681  16.788   2.316   9.556  0.1602 -0.1263  0.0644
28082W        W34682  23.079   2.332  24.684  0.3037 -0.0192  0.1101
28083W        W34683   7.996   1.133   1.446 -0.1351  0.1109 -0.6567
28084W        W34684  21.825   3.669   1.079  0.1178  0.0342  0.0735
28085W        W34685   4.117   5.390  26.610  0.0440 -0.2168 -0.0942
28086W        W34686  14.816   4.967  21.926  0.2085  0.0045 -0.1773
28087W        W34687   0.466   4.946  31.943  0.2596 -0.2560 -0.0880
28088W        W34688  22.393   1.182   5.403  0.4866 -0.0933 -0.0178
28089W        W34689  18.567   0.234   3.143  0.1486 -0.3253  0.3040
28090W        W34690  23.747   3.050   4.193  0.1627 -0.2029 -0.3592
28091W        W34691  20.962   0.245  14.756 -0.1607  0.1099  0.3517
28092W        W34692   0.326   1.620  29.150  0.3642 -0.1649  0.1040
28093W        W34693  16.534   4.758  22.536 -0.0219 -0.1791  0.0265
28094W        W34694  14.448   2.772   2.383 -0.0146  0.0843 -0.0509
28095W        W34695  11.472   2.810  10.645 -0.3957  0.2165  0.1788
28096W        W34696  21.023   6.701  22.317  0.1728 -0.1711  0.2006
28097W        W34697   3.245   1.245   5.183 -0.1327 -0.1022  0.1517
28098W        W34698  25.123   6.345  27.795 -0.0195  0.0370 -0.0092
28099W        W34699  22.939   2.805  25.452 -0.2924 -0.0144 -0.1984
28100W        W34700  19.859   3.330  28.230  0.0768 -0.0078  0.0175
28101W        W34701   5.901   4.696  15.525 -0.1061  0.0715  0.0474
28102W        W34702  12.880   0.883   7.889  0.1060  0.1385  0.0873
28103W        W34703   8.041   3.950  28.883  0.1502  0.1600  0.1093
28104W        W34704  20.673   4.917  13.296 -0.1814  0.0128  0.1552
28105W        W34705   0.277   6.006  23.672  0.0902 -0.0172 -0.0768
28106W        W34706   4.738   7.496  25.719  0.2054 -0.1096 -0.0692
28107W        W34707  24.067   6.553  22.793 -0.2062 -0.1331  0.1471
28108W        W34708  20.076   7.473   8.805 -0.3088 -0.1854  0.0454
28109W        W34709  17.596   5.384  26.298  0.2486 -0.1068 -0.1853
28110W        W34710   2.096   6.220   7.899  0.0936 -0.1379 -0.3520
28111W        W34711  14.912   0.579  30.782 -0.3027 -0.2489 -0.3910
28112W        W34712  21.098   4.007  23.078  0.2132  0.2692 -0.3277
28113W        W34713   0.112   3.925  11.772  0.2383 -0.0954  0.1377
28114W        W34714   3.912   7.624   7.947  0.1937  0.1765 -0.2317
28115W        W34715  23.152   0.988  26.600 -0.0677  0.0600 -0.3774
28116W        W34716   4.292   3.873   7.178 -0.3165 -0.0944  0.0424
28117W        W34717   3.045   7.346  23.829 -0.2382  0.1907 -0.1366
28118W        W34718   4.639   2.040  26.955  0.0161  0.0759 -0.1901
28119W        W34719   7.086   2.263   6.687  0.1808  0.1682 -0.3511
28120W        W34720  19.061   0.531  11.682  0.0613  0.1280 -0.0355
28121W        W34721  22.774   2.742  28.219 -0.2800  0.2589 -0.2053
28122W        W34722  22.299   0.105  23.016  0.3247  0.1006  0.0337
28123W        W34723  13.056   7.003  24.156 -0.1114 -0.0999 -0.1473
28124W        W34724  25.142   7.571  20.468 -0.0080  0.1066  0.4850
28125W        W34725  23.838   5.780  11.694 -0.0987  0.1613  0.2715
28126W        W34726   1.147   4.776  24.881 -0.0781 -0.2807  0.0297
28127W        W34727   4.944   1.391   3.072 -0.1129  0.1295 -0.1030
28128W        W34728  13.610   0.678   0.303 -0.1209 -0.0932  0.2259
28129W        W34729  25.129   2.817   8.666 -0.0231  0.0817 -0.0240
28130W        W34730   7.505   6.845   4.098  0.3429 -0.1621 -0.1243
28131W        W34731   4.597   1.015  29.339 -0.2552  0.2476 -0.1115
28132W        W34732  21.358   2.640   2.397 -0.1218 -0.0139 -0.1747
28133W        W34733  15.684   2.919   6.459 -0.0324  0.0778  0.1998
28134W        W34734  24.252   0.531   6.410 -0.1639  0.0064 -0.2459
28135W        W34735   8.846   0.718  23.927  0.0768 -0.0752 -0.0530
28136W        W34736   7.182   5.982   6.392  0.1250 -0.1117 -0.0568
28137W        W34737  10.980   2.069   9.329 -0.1190 -0.2877  0.1676
28138W        W34738   9.377   3.571   7.381  0.0741 -0.0179  0.0089
28139W        W34739  11.470   3.217   3.094 -0.1549  0.2205 -0.0424
28140W        W34740  10.157   3.878  16.445  0.1491 -0.0788 -0.1598
28141W        W34741   7.772   3.345   2.049 -0.2039 -0.0520 -0.3116
28142W        W34742   4.439   1.662  10.486 -0.1196 -0.3102 -0.0315
28143W        W34743   6.121   2.761   2.250 -0.2567  0.2114  0.0107
28144W        W34744  24.383   2.604   4.336 -0.1780 -0.3615  0.0211
28145W        W34745  15.996   4.568  14.781  0.5650 -0.1461  0.3285
28146W        W34746   1.776   1.265  23.136 -0.1308 -0.1922 -0.2950
28147W        W34747   1.838   4.220   4.999 -0.1182  0.0248 -0.1065
28148W        W34748  19.140   3.129   6.578 -0.0707  0.2253 -0.0110
28149W        W34749   4.620   5.059  19.373  0.0921 -0.0688 -0.0630
28150W        W34750   0.332   0.950  26.425 -0.2797  0.2248 -0.0830
28151W        W34751   0.429   6.365  23.313 -0.3675  0.3106 -0.2942
28152W        W34752  10.178   6.506  26.556 -0.1024 -0.2213  0.1108
28153W        W34753  17.366   6.420  11.437 -0.2037 -0.0996  0.0624
28154W        W34754  16.947   2.825   4.464 -0.1331 -0.0601 -0.0615
28155W        W34755  13.193   5.598  25.955 -0.0893  0.3201  0.2208
28156W        W34756  23.454   1.169   6.341  0.0644  0.0753 -0.0614
28157W        W34757   0.049   7.034  23.443 -0.1717  0.1084  0.0948
28158W        W34758  12.864   1.476  25.566  0.2234 -0.0676  0.0580
28159W        W34759   7.658   7.086  21.984 -0.1194  0.1081 -0.2355
28160W        W34760  23.154   6.677  15.175  0.0398 -0.1456 -0.0150
28161W        W34761  24.809   2.758  20.353 -0.2115 -0.0813  0.1646
28162W        W34762   0.008   6.975  28.968  0.1375 -0.2874  0.2249
28163W        W34763  24.774   4.710  12.025 -0.0108 -0.1723 -0.0591
28164W        W34764   9.160   4.169   1.426  0.0216  0.0679 -0.0047
28165W        W34765  12.675   7.363   0.262  0.0759  0.1482  0.1259
28166W        W34766   8.554   6.644  25.757  0.0784  0.3133  0.0508
28167W        W34767  12.387   3.105  29.510 -0.2954  0.3032  0.4072
28168W        W34768   4.284   6.715  19.700  0.2824  0.2582 -0.2510
28169W        W34769  14.036   7.486   7.687 -0.3035  0.0159 -0.2625
28170W        W34770  16.993   7.490   6.269  0.0735 -0.0199  0.2789
28171W        W34771   4.383   3.947  15.998  0.2366  0.2020 -0.1972
28172W        W34772   1.021   3.417  24.922  0.2080  0.2626 -0.2487
28173W        W34773  10.613   5.880  28.844 -0.1275  0.1836  0.1154
28174W        W34774  14.226   5.225   5.842 -0.2383  0.0687 -0.3312
28175W        W34775   2.923   7.299  10.135  0.2972 -0.2316  0.0875
28176W        W34776   0.104   5.125  21.877 -0.1514  0.1450  0.0842
28177W        W34777  15.759   0.967  30.667  0.0067  0.0197 -0.0450
28178W        W34778  13.461   2.015  13.180 -0.1346  0.0908 -0.0445
28179W        W34779  11.727   4.620   4.597 -0.2647 -0.2294  0.1126
28180W        W34780  20.879   3.677  13.609 -0.1236 -0.1440  0.2928
28181W        W34781   8.417   4.181   8.932  0.0140  0.1732  0.1711
28182W        W34782  11.130   7.002  25.317  0.0227  0.0252 -0.0517
28183W        W34783  13.188   0.903   4.721 -0.2521 -0.0604  0.2507
28184W        W34784  14.826   4.116   3.724 -0.0384  0.1377  0.1122
28185W        W34785   0.710   4.153  20.764  0.0339  0.1140 -0.0043
28186W        W34786   7.714   3.941  27.268 -0.1417 -0.3420  0.2967
28187W        W34787   3.216   6.536   5.003  0.0871  0.1715  0.0068
28188W        W34788   5.741   7.611  17.915 -0.0360  0.0619 -0.3262
28189W        W34789   1.172   0.783  21.736  0.1382 -0.5418  0.1215
28190W        W34790   5.076   2.922   1.349 -0.0980  0.0938  0.2668
28191W        W34791  16.895   2.508  14.888 -0.0072 -0.1878 -0.3710
28192W        W34792  23.911   1.440  20.277 -0.0610 -0.1416 -0.4671
28193W        W34793  21.711   3.127  27.515  0.3308  0.0560 -0.0795
28194W        W34794  22.352   4.279  29.728 -0.3198  0.2296 -0.0797
28195W        W34795   8.515   5.401  30.932  0.3068  0.1807 -0.0793
28196W        W34796  22.981   3.936   5.507 -0.1764  0.1050 -0.0556
28197W        W34797   8.032   5.682   3.671  0.0580 -0.2097 -0.0336
28198W        W34798   2.321   0.934  16.528 -0.0668 -0.1520 -0.0726
28199W        W34799   2.386   6.107   6.429  0.0721  0.3482  0.0452
28200W        W34800  17.546   6.130   2.821  0.1084  0.1869 -0.0057
28201W        W34801  10.441   4.811   8.689 -0.1035 -0.0849  0.0412
28202W        W34802   0.625   4.192  10.042  0.3166 -0.1841 -0.1178
28203W        W34803   5.944   5.475  23.510  0.2053  0.0780 -0.0067
28204W        W34804  12.316   0.110  29.911  0.2958 -0.2472  0.2804
28205W        W34805  13.040   5.791  23.179 -0.1096  0.0252 -0.0209
28206W        W34806  12.896   2.373  20.207  0.0912 -0.1742  0.2247
28207W        W34807  20.524   2.688  32.239  0.1912  0.2512  0.1384
28208W        W34808  14.510   5.339   0.930 -0.0610 -0.4318  0.1198
28209W        W34809  10.811   7.145  11.705 -0.1547  0.3095  0.1155
28210W        W34810   7.852   2.959  31.632 -0.4658 -0.0747  0.2585
28211W        W34811   5.439   2.118   5.118  0.3031 -0.2826  0.0549
28212W        W34812  18.080   6.000  30.946 -0.0690  0.0392  0.0242
28213W        W34813  12.408   6.686  29.326  0.0394 -0.0248  0.3890
28214W        W34814  11.244   0.929  26.110 -0.1115  0.2868  0.0303
28215W        W34815  11.810   7.620   4.244 -0.0750 -0.0244 -0.1041
28216W        W34816  18.833   2.412  14.322 -0.1077 -0.1546  0.0025
28217W        W34817  14.138   7.793  23.474  0.0640  0.2451  0.1922
28218W        W34818  15.380   5.390   0.298 -0.2299  0.0896 -0.2824
28219W        W34819   4.594   3.708  25.470 -0.1879  0.1776  0.1244
28220W        W34820   6.594   1.989  15.685 -0.1583 -0.0164 -0.0471
28221W        W34821  23.967   6.181  31.551  0.1836  0.0361  0.0241
28222W        W34822  22.123   2.436  25.810  0.0799 -0.2226  0.1410
28223W        W34823   1.461   4.957  28.297  0.0221 -0.0821  0.1089
28224W        W34824   5.296   2.733  17.530 -0.0032 -0.3146  0.1064
28225W        W34825  10.937   1.357   8.618  0.0279  0.1649  0.1462
28226W        W34826  10.768   2.744   7.768  0.0583 -0.0319  0.2738
28227W        W34827   6.272   7.173  30.032  0.0651 -0.1662 -0.0409
28228W        W34828   9.504   5.212  20.729  0.1389  0.2456  0.0881
28229W        W34829  14.516   2.445  14.045  0.1914 -0.0994  0.0784
28230W        W34830  11.186   2.684  30.019 -0.2320 -0.1660 -0.0565
28231W        W34831  14.491   4.976   8.929  0.1515  0.1667  0.0335
28232W        W34832  24.499   5.124  24.728  0.1441 -0.0408 -0.0867
28233W        W34833  22.135   0.606  25.146 -0.1310 -0.1374 -0.2322
28234W        W34834  24.364   1.117  21.517 -0.0729  0.1869 -0.2897
28235W        W34835   5.685   5.878  18.785  0.0202 -0.2210  0.0068
28236W        W34836   7.139   3.649   3.853 -0.1957  0.2138  0.0588
28237W        W34837   7.572   4.659   2.132 -0.0365 -0.0804  0.0174
28238W        W34838  10.999   6.677  27.444  0.1129  0.1274 -0.1929
28239W        W34839  22.020   6.184  13.648  0.1546  0.1089 -0.4042
28240W        W34840  22.239   5.179  15.685 -0.0473 -0.1974  0.2754
28241W        W34841  21.006   3.286  15.584  0.1831 -0.1896  0.0983
28242W        W34842  19.976   2.877  17.416  0.1249  0.0648 -0.2351
28243W        W34843  19.460   1.338   2.833 -0.0845  0.0984 -0.0318
28244W        W34844   0.462   2.947  11.706  0.0100  0.0344  0.5018
28245W        W34845  23.681   0.132  21.719 -0.2196  0.2817 -0.0663
28246W        W34846   1.635   1.045   8.643  0.0187  0.0602 -0.2167
28247W        W34847  21.116   2.862  15.163  0.2040  0.1588  0.2759
28248W        W34848  17.788   4.998   2.593 -0.1901  0.2026  0.0698
28249W        W34849  23.255   5.398  10.149 -0.0033 -0.2422  0.1431
28250W        W34850  17.245   0.600  12.388  0.0320 -0.3145 -0.1411
28251W        W34851  11.387   5.584  25.553  0.2034 -0.1603 -0.3889
28252W        W34852   0.120   3.460   9.883 -0.1602 -0.1434 -0.2742
28253W        W34853  15.281   4.052  15.048 -0.0867 -0.1287  0.3911
28254W        W34854  19.453   7.734   2.568 -0.0879  0.1197 -0.1979
28255W        W34855  14.342   1.132  32.444 -0.0960  0.2844  0.1621
28256W        W34856  19.558   0.324  31.079 -0.0515 -0.1582  0.1727
28257W        W34857  20.074   1.771  22.485  0.2469 -0.0653 -0.0646
28258W        W34858  17.154   2.206   1.036  0.0836  0.2109 -0.0735
28259W        W34859   8.580   5.769  20.043 -0.0537  0.0312 -0.4391
28260W        W34860   5.476   0.307  23.668  0.1815  0.0115  0.0006
28261W        W34861   9.472   2.095  24.278  0.0808  0.4115  0.3437
28262W        W34862  14.021   4.638   1.768 -0.1583  0.0524  0.5007
28263W        W34863  24.906   0.883  23.772 -0.0057 -0.2033 -0.2256
28264W        W34864   2.655   6.290  29.263 -0.4511  0.1542  0.2351
28265W        W34865   4.078   1.638  30.112  0.1609 -0.3224 -0.2356
28266W        W34866   5.196   5.071   0.101 -0.1687 -0.0048  0.2836
28267W        W34867  13.935   3.088  28.210 -0.0869  0.0913  0.0687
28268W        W34868  21.321   2.906   7.713 -0.3061 -0.0743  0.0225
28269W        W34869  19.088   6.695   7.393  0.2369  0.1228  0.2877
28270W        W34870  21.611   6.528   7.429 -0.0409  0.3088  0.0714
28271W        W34871  21.831   0.701   2.173 -0.1774  0.3781  0.0133
28272W        W34872  17.104   3.432   3.489  0.1025  0.4227 -0.1792
28273W        W34873   4.242   3.820  22.255 -0.1799  0.1336  0.3000
28274W        W34874  21.583   4.257  25.022 -0.2416  0.0817 -0.3099
28275W        W34875  10.249   4.391   7.460 -0.0082 -0.0163 -0.0350
28276W        W34876  22.968   4.630  15.951 -0.2066 -0.3449 -0.1788
28277W        W34877  22.573   1.889   0.385 -0.1093  0.0900 -0.1261
28278W        W34878   1.909   7.231  29.546 -0.0920 -0.2455 -0.3464
28279W        W34879  12.786   1.704   2.151 -0.2122 -0.1228 -0.0906
28280W        W34880  24.122   3.203   5.594  0.1748 -0.0074  0.2389
28281W        W34881   0.488   5.545  10.307  0.3672  0.1385 -0.1398
28282W        W34882   1.231   0.822   4.255  0.4394 -0.2752 -0.2498
28283W        W34883  20.569   6.116   2.304  0.1337 -0.3490 -0.1381
28284W        W34884  18.478   2.222  29.093  0.2790 -0.3615  0.1943
28285W        W34885   7.656   5.360  14.835  0.4535  0.1209 -0.1418
28286W        W34886  12.639   4.384  24.278 -0.0686  0.0363  0.0891
28287W        W34887  14.495   7.397   7.535 -0.4538 -0.0762  0.2507
28288W        W34888   0.581   1.428   8.736 -0.3619  0.0597 -0.0167
28289W        W34889  22.317   0.595   7.136  0.3469 -0.1311 -0.0457
28290W        W34890  10.169   5.322   0.567 -0.3501  0.2768  0.1427
28291W        W34891  20.955   6.292  13.629 -0.2300  0.2687  0.2996
28292W        W34892   4.120   6.987  17.459 -0.2306  0.4607  0.1183
28293W        W34893   8.237   4.171  30.349  0.0237  0.1736  0.0326
28294W        W34894   7.747   5.305  29.462  0.0842  0.1837 -0.2231
28295W        W34895   1.916   0.489  29.714  0.1524 -0.1846  0.0797
28296W        W34896   9.966   6.828  23.411  0.0391  0.3180  0.1264
28297W        W34897  17.455   5.799  11.592  0.0640  0.1346 -0.0659
28298W        W34898   0.878   7.609   2.563  0.0282  0.0933  0.4040
28299W        W34899   5.894   5.384  16.142  0.1152  0.2068  0.1412
28300W        W34900   1.814   1.738   5.513 -0.0345  0.1365 -0.0359
28301W        W34901  16.442   6.131  28.284  0.1020 -0.0673  0.0895
28302W        W34902  17.275   2.509  16.286  0.0783  0.0195 -0.1380
28303W        W34903  22.557   6.411  30.864  0.0812 -0.1651  0.0863
28304W        W34904  18.984   4.256   5.192  0.0291  0.0378 -0.0667
28305W        W34905   8.164   0.317  16.590  0.2497  0.0731  0.0974
28306W        W34906  12.697   0.403  26.423  0.1828  0.2454 -0.1348
28307W        W34907  10.352   3.676   5.955 -0.1780 -0.4485  0.3772
28308W        W34908  10.086   2.662  18.581  0.0030 -0.2441 -0.0028
28309W        W34909   9.377   1.638  27.366 -0.0122  0.2143  0.1299
28310W        W34910  12.825   5.553  28.822  0.1382  0.0021  0.2865
28311W        W34911  21.688   7.605   8.210  0.0722 -0.2496  0.1021
28312W        W34912  18.342   7.112  25.529 -0.1625 -0.1349 -0.2918
28313W        W34913   7.813   2.198  22.794 -0.2891 -0.1013  0.0175
28314W        W34914  22.886   7.664   1.382  0.0846  0.2654 -0.1344
28315W        W34915   0.496   5.607  25.050 -0.0925 -0.2057  0.1099
28316W        W34916  12.382   6.313  31.663  0.1693  0.2469  0.3073
28317W        W34917  13.708   1.879   9.994  0.3234 -0.1300  0.1543
28318W        W34918  20.006   4.371  12.916 -0.0531 -0.1463 -0.1782
28319W        W34919  18.019   1.403   0.010 -0.1109 -0.0206 -0.1625
28320W        W34920  14.929   7.391  27.174  0.0884 -0.0398 -0.1666
28321W        W34921   5.407   1.542  19.503  0.3033  0.1596 -0.5880
28322W        W34922  24.655   1.868  19.775  0.0239 -0.2123 -0.1823
28323W        W34923   3.438   4.171   4.230  0.1278 -0.2558  0.2201
28324W        W34924  14.639   5.293  27.240  0.0783 -0.2060  0.1539
28325W        W34925  12.785   4.642   3.437  0.1367 -0.0849 -0.0721
28326W        W34926  20.107   4.456  28.352 -0.4242 -0.0343 -0.1775
28327W        W34927   7.995   2.567  16.622  0.2055 -0.1351  0.0332
28328W        W34928   7.907   1.135  18.515 -0.1023 -0.4099  0.0062
28329W        W34929  18.359   4.067   4.751  0.2269  0.2989 -0.1872
28330W        W34930  20.962   0.798   2.204 -0.0496  0.1105 -0.2785
28331W        W34931   6.062   6.826   3.727  0.0235 -0.1568  0.1785
28332W        W34932   6.252   2.512  20.804 -0.0929 -0.0284  0.2856
28333W        W34933   3.382   4.820  24.600 -0.2926 -0.1824 -0.3623
28334W        W34934  17.199   4.011  32.138  0.1438  0.0262 -0.1282
28335W        W34935  15.907   0.611  30.968 -0.1826  0.2049  0.0374
28336W        W34936   2.757   6.498   0.675 -0.1937 -0.3057 -0.0962
28337W        W34937  16.544   3.832   1.312  0.2197  0.4696 -0.2046
28338W        W34938  11.603   0.272   2.406  0.2005 -0.1607  0.0845
28339W        W34939   7.553   3.676   9.094  0.1301  0.2609 -0.0613
28340W        W34940  18.327   2.741   4.021 -0.0818  0.1884  0.0162
28341W        W34941   8.617   2.599  24.495  0.1872  0.2021 -0.2235
28342W        W34942  15.440   5.679   0.845  0.2037 -0.0174 -0.2710
28343W        W34943  13.160   0.896   1.741 -0.0556  0.0516  0.0219
28344W        W34944  14.318   7.047   9.807  0.0120 -0.1302  0.1226
28345W        W34945   8.338   5.521  32.345  0.0705 -0.1613  0.0856
28346W        W34946  18.960   7.381  23.261  0.3112 -0.0927 -0.0327
28347W        W34947   0.551   4.300   3.187 -0.1408  0.0926  0.0937
28348W        W34948   7.916   6.534  17.500 -0.0006 -0.1663  0.0261
28349W        W34949   0.406   1.474  26.502  0.1364 -0.1867 -0.0663
28350W        W34950  22.316   0.664  14.763 -0.2983  0.0374  0.0309
28351W        W34951  13.733   0.396   4.079  0.4752 -0.0252 -0.0294
28352W        W34952  17.305   3.244  13.570  0.1013  0.0193 -0.1275
28353W        W34953  23.110   1.290  28.184  0.1503 -0.1858 -0.0837
28354W        W34954   7.758   0.002   8.833 -0.0543 -0.1229  0.0940
28355W        W34955  23.111   4.046  31.292  0.0104 -0.0616 -0.0152
28356W        W34956  18.602   5.100  24.040 -0.2155  0.2155  0.2763
28357W        W34957   1.789   7.793  28.810 -0.1259  0.1101  0.1203
28358W        W34958  18.073   1.532   7.884 -0.0191  0.2617  0.0896
28359W        W34959  16.115   1.211  26.485 -0.0118 -0.0554  0.0701
28360W        W34960   9.266   2.382   7.787  0.1536 -0.0239  0.1796
28361W        W34961  18.659   6.121  22.780  0.0928  0.2030  0.2134
28362W        W34962  11.484   0.157   4.217 -0.0288 -0.0581  0.0825
28363W        W34963  22.014   0.217  29.176  0.0075 -0.1665  0.0031
28364W        W34964  14.684   6.785   1.542  0.0726 -0.0274 -0.2003
28365W        W34965   0.880   6.431  10.352  0.2675  0.0683 -0.0844
28366W        W34966   6.453   4.627  29.713  0.1655 -0.4181  0.2182
28367W        W34967  14.974   1.333  25.058 -0.1764 -0.1604  0.1294
28368W        W34968  15.834   2.570  15.019  0.1860 -0.1113  0.0364
28369W        W34969  13.243   2.637   5.574  0.0867 -0.1240 -0.1513
28370W        W34970   0.634   4.627  27.397  0.0245 -0.0678  0.0239
28371W        W34971  14.969   3.410   9.742  0.1766 -0.3531 -0.3102
28372W        W34972   7.646   1.688  32.180  0.4053  0.2524  0.3451
28373W        W34973   2.939   5.722   0.035  0.1291  0.2136 -0.0699
28374W        W34974   7.672   5.589  21.522 -0.0946 -0.1734  0.1252
28375W        W34975  13.776   6.901  31.365 -0.1808  0.2446 -0.2208
28376W        W34976  13.767   7.713  13.190  0.1361 -0.0787 -0.1800
28377W        W34977  14.727   3.857  15.113  0.0656  0.0373  0.3116
28378W        W34978   2.864   0.346  21.494 -0.0051  0.0146  0.1198
28379W        W34979  12.880   1.632  31.981 -0.1038  0.0194  0.1925
28380W        W34980  16.184   2.585  24.704 -0.1979 -0.0403 -0.1721
28381W        W34981  15.786   5.948  10.710 -0.0838 -0.0905 -0.1730
28382W        W34982   8.737   5.405  19.703  0.1187  0.0302  0.1992
28383W        W34983  21.070   5.938  11.236 -0.0271 -0.0512  0.3617
28384W        W34984  13.827   0.250   9.977  0.2240  0.0680  0.2368
28385W        W34985   3.711   5.615  26.819  0.2593 -0.3431 -0.0929
28386W        W34986   9.897   1.755   5.002  0.0155 -0.0992 -0.0461
28387W        W34987  16.828   4.830   6.026  0.1860 -0.0876 -0.2491
28388W        W34988  22.827   5.077  23.105 -0.2074 -0.1255  0.0948
28389W        W34989   1.375   3.646  30.030  0.3180 -0.4312  0.2550
28390W        W34990  19.342   1.330  22.991 -0.0177  0.0125 -0.2255
28391W        W34991  17.923   3.485  27.138  0.0015 -0.1543  0.1051
28392W        W34992   4.857   6.599   5.004  0.0906 -0.0063 -0.1856
28393W        W34993  12.499   0.919   1.122 -0.1884 -0.0821  0.0243
28394W        W34994  22.445   5.529  23.550 -0.1558 -0.1467 -0.0534
28395W        W34995  16.675   0.257  32.492  0.3218  0.0545 -0.0779
28396W        W34996  22.388   4.250  28.244  0.0345 -0.2410 -0.2505
28397W        W34997  14.689   1.762  20.901 -0.0368 -0.2353 -0.0023
28398W        W34998   0.560   1.850  10.413 -0.1842  0.0857 -0.0841
28399W        W34999  18.315   4.828  27.377  0.0592  0.1699  0.0165
28400W        W35000  17.520   5.251  28.296 -0.1966  0.2197  0.1839
28401W        W35001  21.780   4.174  10.861 -0.4388 -0.2750 -0.0034
28402W        W35002  22.963   1.893   4.293  0.1493 -0.0676 -0.0988
28403W        W35003   5.081   3.481  14.408  0.1110  0.0632  0.0270
28404W        W35004  16.653   7.322   9.595  0.3893 -0.0562  0.0322
28405W        W35005  11.657   3.226  20.725 -0.1303 -0.3657  0.1948
28406W        W35006  20.555   7.516   5.437  0.1280 -0.0818  0.1107
28407W        W35007  19.639   4.122   0.312 -0.0018  0.1062  0.2148
28408W        W35008  19.475   3.925  18.577  0.0792  0.2136 -0.1741
28409W        W35009   6.476   0.055  27.957  0.0590 -0.0283  0.2347
28410W        W35010  10.113   7.829   8.417 -0.1165 -0.1204  0.1271
28411W        W35011  17.872   3.198  11.689  0.3467 -0.0860 -0.2456
28412W        W35012  16.472   1.460   3.667 -0.0317  0.4508  0.2381
28413W        W35013  22.835   3.762  25.916 -0.1102  0.2897 -0.1633
28414W        W35014   3.518   3.117   2.882 -0.1664  0.0003 -0.1342
28415W        W35015   8.510   1.188   3.222  0.2462  0.1906  0.0311
28416W        W35016   6.106   2.576  17.842 -0.0735  0.1721 -0.0762
28417W        W35017   5.433   3.678   4.534 -0.0451 -0.2894  0.1443
28418W        W35018   6.172   6.746  23.116 -0.2121 -0.0651 -0.2250
28419W        W35019  14.650   4.416  31.314  0.0050 -0.1903 -0.4014
28420W        W35020  16.826   0.290  12.489  0.2111 -0.1797 -0.2041
28421W        W35021   3.976   2.205   1.699  0.1899 -0.4079  0.2836
28422W        W35022   7.401   3.969  28.062 -0.0594 -0.0172  0.0773
28423W        W35023  22.153   0.655  29.062  0.1090 -0.2189  0.1428
28424W        W35024  15.140   0.128  30.060  0.0620  0.0470  0.0387
28425W        W35025  21.710   6.378  25.725  0.3194  0.0774 -0.3498
28426W        W35026  16.403   1.597  14.290 -0.0453  0.2093 -0.1070
28427W        W35027   1.300   0.708  24.423  0.1408 -0.1437  0.1666
28428W        W35028  10.485   2.328  26.695  0.0896  0.2376  0.1692
28429W        W35029  20.527   2.338  29.518 -0.0120 -0.0175 -0.1966
28430W        W35030  10.327   3.018  32.475 -0.0960 -0.2411 -0.0272
28431W        W35031   0.662   4.589  21.012  0.0293  0.0025 -0.1086
28432W        W35032  11.236   4.524   1.217 -0.2902 -0.2762  0.2189
28433W        W35033   9.984   1.395  30.262 -0.0649 -0.3701  0.1746
28434W        W35034  14.141   0.543  24.137 -0.3093  0.3751 -0.1266
28435W        W35035  11.392   6.654  26.258  0.1447  0.3031  0.0906
28436W        W35036  11.523   3.382  31.775 -0.0553  0.2455  0.0152
28437W        W35037  12.644   6.996   2.279  0.1224 -0.1486 -0.2792
28438W        W35038  23.232   5.546  25.455  0.2101 -0.0688 -0.1361
28439W        W35039  24.490   0.389  24.541 -0.1987 -0.0625 -0.0005
28440W        W35040  18.193   4.721  10.932 -0.2417  0.0021 -0.1192
28441W        W35041  17.547   6.198   1.413 -0.2125  0.1131  0.1067
28442W        W35042  12.193   6.807   2.499  0.2641  0.0940  0.1284
28443W        W35043   7.937   3.937  28.267  0.1046 -0.1720 -0.0189
28444W        W35044  10.693   7.790  28.730  0.0700  0.0474 -0.0305
28445W        W35045  13.545   4.175  12.637 -0.0517 -0.2936 -0.0449
28446W        W35046  13.191   4.540  13.332  0.1538 -0.0508 -0.1145
28447W        W35047  18.933   1.658  15.730 -0.1080 -0.0613 -0.0887
28448W        W35048  23.382   3.365   6.736  0.0041 -0.1759  0.4124
28449W        W35049  15.525   5.063  29.957 -0.0968  0.2959 -0.1488
28450W        W35050  13.646   4.678  13.492 -0.0214  0.0703  0.1352
28451W        W35051  20.294   3.926  27.300 -0.1748 -0.2113  0.0921
28452W        W35052   1.462   6.437   8.102 -0.1740  0.2892  0.2222
28453W        W35053  15.068   6.895  23.643 -0.1131  0.1471 -0.0803
28454W        W35054  23.269   4.699   9.417  0.0594  0.1348 -0.1979
28455W        W35055  13.914   3.972  30.104  0.0290 -0.1308  0.1313
28456W        W35056   7.467   6.836  17.627  0.0270  0.3089 -0.0469
28457W        W35057  15.302   1.454  14.984  0.2145  0.1800 -0.0607
28458W        W35058   8.779   6.113  31.572  0.1688 -0.0274  0.0679
28459W        W35059  17.218   2.012   5.535  0.0517 -0.1918  0.1414
28460W        W35060   6.096   6.990   0.308  0.0218 -0.2964  0.0076
28461W        W35061   1.250   6.307  21.457  0.0963 -0.0201 -0.3682
28462W        W35062   1.028   6.561   9.613 -0.0089 -0.0108 -0.0376
28463W        W35063   5.565   6.429  10.289 -0.1622 -0.4339  0.0732
28464W        W35064  18.181   3.109  18.326  0.2171 -0.1178  0.0470
28465W        W35065  10.183   2.841   1.278  0.0744  0.3766 -0.0777
28466W        W35066   9.513   2.064  15.248  0.0545 -0.1971  0.2227
28467W        W35067   5.720   3.990   0.292 -0.3953 -0.1903 -0.0108
28468W        W35068   3.716   7.819  20.388  0.1489  0.1359 -0.2722
28469W        W35069  20.239   4.551   0.734 -0.1637 -0.0072  0.0971
28470W        W35070   9.179   0.551  17.683  0.3988  0.0024 -0.2376
28471W        W35071   9.511   7.565   9.511  0.1099  0.0801 -0.0716
28472W        W35072   0.207   5.345  25.761  0.2742 -0.0306 -0.0740
28473W        W35073  15.873   2.166  13.234 -0.0793  0.0357 -0.0518
28474W        W35074  18.817   7.688  13.452 -0.2441  0.4090  0.1166
28475W        W35075  17.951   7.110  31.158  0.4536  0.0841 -0.1551
28476W        W35076   0.009   2.135  30.865  0.1191  0.0177  0.1136
28477W        W35077   4.690   6.456   1.706  0.2208 -0.0955 -0.1963
28478W        W35078   4.594   0.063  20.066 -0.1784  0.1726  0.1458
28479W        W35079  15.801   7.027  10.078  0.2081 -0.0046  0.0521
28480W        W35080   6.972   7.795   5.117 -0.1642  0.1971 -0.0999
28481W        W35081   7.623   0.251   4.740  0.0422 -0.4388  0.0792
28482W        W35082  18.179   7.547  30.181  0.1631 -0.1012  0.2063
28483W        W35083  14.936   5.384   7.480  0.1046  0.3781 -0.0132
28484W        W35084  12.715   0.388   3.101  0.0863  0.0056 -0.0588
28485W        W35085  24.091   5.032  26.664 -0.0578  0.0680  0.2175
28486W        W35086  10.400   2.886  27.007  0.4191 -0.0933  0.2099
28487W        W35087  19.237   7.624  10.000 -0.1596 -0.1131 -0.4002
28488W        W35088   1.873   5.579  18.566  0.0342 -0.1846 -0.2618
28489W        W35089  13.169   4.526  28.682  0.2034 -0.0988 -0.0934
28490W        W35090  19.149   5.561  25.360 -0.1244  0.2821  0.0773
28491W        W35091  17.742   7.501   7.839 -0.2535 -0.1720  0.1359
28492W        W35092  15.451   5.592  22.087 -0.2841  0.2988 -0.0802
28493W        W35093  17.174   1.560  24.292 -0.0817  0.2998 -0.0848
28494W        W35094  24.341   4.716   8.782 -0.1796 -0.2483  0.1814
28495W        W35095  13.338   5.945  25.220  0.0604  0.1275  0.1765
28496W        W35096  16.798   4.556  24.836 -0.0538  0.0898  0.1527
28497W        W35097   9.720   5.960  30.487  0.0413 -0.1084  0.4383
28498W        W35098  15.920   6.639  13.986  0.1278  0.1483 -0.0768
28499W        W35099   2.638   4.563   6.839  0.1242  0.1594 -0.0621
28500W        W35100  11.108   5.448   6.974 -0.2398  0.0723  0.0664
28501W        W35101  25.039   3.161   2.191 -0.3877 -0.0625  0.1347
28502W        W35102   4.682   1.986  17.208  0.2442 -0.1575 -0.0477
28503W        W35103  12.478   7.210  26.371  0.0922 -0.4217  0.0845
28504W        W35104  23.502   2.321   8.071 -0.0022  0.0947  0.3042
28505W        W35105  17.138   2.444  24.014  0.2270  0.3419  0.2644
28506W        W35106  10.394   0.662  21.340 -0.3058 -0.2284  0.0742
28507W        W35107   0.318   1.658  24.125 -0.1086 -0.1161 -0.0425
28508W        W35108  19.907   4.817   9.490  0.1525  0.0509  0.0721
28509W        W35109   8.769   0.375  17.386  0.0447 -0.3340  0.1531
28510W        W35110  21.716   2.517  28.801  0.3330 -0.0615  0.1624
28511W        W35111   4.809   0.258   2.003  0.0269 -0.3189 -0.1643
28512W        W35112  11.555   3.366  23.732 -0.0004  0.2464 -0.0546
28513W        W35113  18.460   1.150  28.274  0.0962  0.0953  0.0317
28514W        W35114   6.811   4.892  26.890 -0.1051 -0.0169 -0.1371
28515W        W35115   7.524   4.264   3.356  0.0344 -0.4661  0.2365
28516W        W35116  11.555   2.062   5.690  0.0023  0.1366 -0.1493
28517W        W35117  14.396   6.319   7.323 -0.1201  0.1050 -0.0154
28518W        W35118  13.191   6.359  25.451 -0.0219 -0.1350  0.2663
28519W        W35119   6.970   3.930  28.409 -0.2421 -0.0754  0.1012
28520W        W35120   9.771   2.557  21.156  0.3291 -0.1625 -0.0150
28521W        W35121   6.950   7.601  24.524  0.0161 -0.1058  0.1155
28522W        W35122  20.637   6.860   3.176 -0.3901 -0.2614 -0.0490
28523W        W35123   5.168   0.012  20.639  0.4014  0.0900 -0.2099
28524W        W35124  20.370   3.185  11.112  0.1511  0.0789  0.2471
28525W        W35125  21.220   6.141   9.665  0.1189 -0.1365 -0.1409
28526W        W35126  14.637   5.729  30.431  0.3740 -0.2017  0.0326
28527W        W35127  12.213   3.640   6.462  0.3105 -0.0229 -0.0553
28528W        W35128  22.000   7.716  21.810  0.2326  0.0454 -0.2356
28529W        W35129   3.967   1.649  15.356 -0.0665 -0.1288  0.1744
28530W        W35130   1.905   3.707  11.555  0.2324 -0.1015 -0.3020
28531W        W35131  25.076   2.821  26.324 -0.0774  0.1548 -0.4041
28532W        W35132   0.073   7.610   2.573  0.1391 -0.1432  0.1120
28533W        W35133  22.918   2.746  31.896  0.1996  0.5963  0.1793
28534W        W35134  15.632   0.561   7.957 -0.0854 -0.0363 -0.0361
28535W        W35135   4.069   3.245   4.000  0.0190  0.2792  0.1007
28536W        W35136   4.527   3.787   9.726  0.0383  0.1498 -0.0135
28537W        W35137  24.137   5.731  26.309  0.1285  0.1106  0.0303
28538W        W35138   9.155   4.619   3.831 -0.0242 -0.0747 -0.3311
28539W        W35139   4.681   7.625  26.558 -0.0870 -0.2791 -0.1301
28540W        W35140  12.115   5.137  29.316  0.1282  0.2311  0.1428
28541W        W35141  23.309   6.915  30.513  0.2776 -0.0726  0.2975
28542W        W35142   5.064   0.266  15.162  0.1225 -0.0998 -0.0157
28543W        W35143   0.221   2.222  29.015 -0.0060  0.0233 -0.3523
28544W        W35144  12.898   6.084   7.569 -0.0399  0.5127  0.2350
28545W        W35145  11.550   0.999   2.013 -0.0899  0.0957 -0.0009
28546W        W35146  11.893   3.854  18.137  0.0256 -0.2114  0.1319
28547W        W35147  21.655   5.396  11.409  0.1916 -0.2494 -0.3145
28548W        W35148  19.452   1.777  31.185 -0.1948 -0.1047 -0.0139
28549W        W35149   0.914   7.116   3.771 -0.0434  0.2438  0.0368
28550W        W35150  10.654   4.178  24.653  0.1835  0.2124  0.0431
28551W        W35151   2.247   3.215   8.015 -0.0581  0.0360 -0.1364
28552W        W35152   1.683   7.184   3.626  0.1278 -0.0329 -0.2702
28553W        W35153   3.127   0.351  25.383 -0.1139 -0.1595  0.0237
28554W        W35154   1.047   2.357   4.169 -0.3114  0.0485  0.0726
28555W        W35155  22.588   5.711  11.247 -0.4725 -0.2990  0.1667
28556W        W35156   3.297   7.579  25.965 -0.2235  0.1215  0.0434
28557W        W35157   6.392   1.338  19.324  0.3823  0.5081 -0.1015
28558W        W35158   7.284   0.835  24.117 -0.0225  0.0756 -0.2087
28559W        W35159   6.126   0.355  29.165 -0.0634 -0.3654 -0.2357
28560W        W35160   5.600   2.833   9.417  0.0801  0.0133 -0.0466
28561W        W35161   4.314   4.147  23.987  0.3405  0.3262 -0.0796
28562W        W35162   7.198   5.494   2.183 -0.2378 -0.1166  0.3966
28563W        W35163  19.435   3.112  27.924  0.0016  0.0809  0.2144
28564W        W35164  16.471   5.513  28.566  0.4746  0.3034  0.0798
28565W        W35165  16.346   2.642  14.576  0.0314 -0.0334 -0.0298
28566W        W35166   4.927   6.540   8.895  0.0561  0.0737  0.0991
28567W        W35167   9.178   4.898  15.551 -0.0356  0.1489  0.2398
28568W        W35168  16.416   4.530   3.209 -0.1707 -0.1276 -0.0371
28569W        W35169   4.420   1.885  16.759 -0.2757  0.1595  0.0177
28570W        W35170   6.184   4.202   0.357  0.0384 -0.1178  0.1958
28571W        W35171   1.114   5.720  22.786 -0.1291 -0.0643  0.2834
28572W        W35172  12.016   3.497  23.962 -0.1211  0.0135  0.1010
28573W        W35173   5.866   0.677  23.497 -0.0129  0.2192 -0.0265
28574W        W35174   8.734   2.753  28.503  0.3928  0.1034  0.0791
28575W        W35175  21.709   1.690   6.580  0.2620  0.0266 -0.1413
28576W        W35176   7.368   3.774  27.003  0.0098  0.0350  0.1495
28577W        W35177  18.427   7.272  29.873  0.0547  0.0104 -0.4326
28578W        W35178  12.361   2.309  23.548 -0.0823 -0.2937  0.0024
28579W        W35179  22.531   7.361  12.294  0.1444  0.1694 -0.0739
28580W        W35180  23.763   2.584   4.366 -0.1285  0.1830 -0.1598
28581W        W35181   5.959   6.493  19.590 -0.2328 -0.1260  0.1043
28582W        W35182   5.967   6.407   9.907  0.1828  0.5434 -0.0690
28583W        W35183  14.288   5.853   4.955 -0.0407 -0.0815  0.2257
28584W        W35184   4.019   2.143  17.502  0.1578 -0.0516  0.0196
28585W        W35185   0.574   1.125   0.269 -0.1694  0.1510 -0.0680
28586W        W35186  17.720   0.235  30.741 -0.1286  0.0734 -0.0909
28587W        W35187   5.374   0.101  28.454 -0.0226  0.2910 -0.0633
28588W        W35188  18.829   7.810   6.539  0.1537  0.3591 -0.2157
28589W        W35189   3.487   2.264  30.837  0.0257 -0.2317  0.3172
28590W        W35190   2.769   6.233  27.113  0.1262 -0.2342 -0.3266
28591W        W35191  11.447   5.820  19.250  0.0844  0.0753 -0.1017
28592W        W35192   4.524   5.146  20.908 -0.0360  0.2353 -0.0186
28593W        W35193  24.828   0.816   6.974 -0.2071 -0.0310 -0.0316
28594W        W35194  17.736   4.672  14.574 -0.2635  0.2011  0.0760
28595W        W35195  22.120   4.802  22.614  0.1017 -0.2328 -0.1488
28596W        W35196   4.131   0.280   4.064 -0.0158  0.2225 -0.3188
28597W        W35197   0.715   1.803  23.752  0.2023  0.1444  0.1816
28598W        W35198  23.208   6.264  23.711  0.1627  0.1969 -0.0654
28599W        W35199  19.018   1.113  13.086  0.2758  0.0124  0.0417
28600W        W35200   5.251   1.958   3.879 -0.0901 -0.0235 -0.1956
28601W        W35201   7.441   2.774   5.815  0.1964  0.1704 -0.2834
28602W        W35202   2.265   4.631  22.172  0.2698 -0.1360  0.0905
28603W        W35203   8.472   4.870   8.026 -0.0201 -0.0024 -0.0734
28604W        W35204   6.374   4.409  19.702 -0.3248 -0.2373 -0.0678
28605W        W35205  10.810   0.471   2.126 -0.1224 -0.0577  0.4219
28606W        W35206   0.236   5.293  26.736 -0.1100 -0.1451  0.1617
28607W        W35207  21.353   0.669   9.655 -0.0672  0.1412 -0.0926
28608W        W35208  22.521   4.933  24.473 -0.1426  0.2158  0.1954
28609W        W35209  24.008   0.679  29.134  0.1591  0.1645 -0.0354
28610W        W35210  23.215   2.359  30.832 -0.0008  0.1106  0.3611
28611W        W35211  19.915   4.115   8.218  0.1428 -0.1107 -0.0999
28612W        W35212  10.365   3.138   2.980  0.0946  0.1428 -0.0959
28613W        W35213   9.666   2.399  32.538  0.0816 -0.1562 -0.1361
28614W        W35214   8.306   1.645  31.637  0.0734  0.1340 -0.0369
28615W        W35215   5.615   5.032  27.849 -0.0120  0.2006 -0.0636
28616W        W35216   6.968   3.529   6.290 -0.0970 -0.4518  0.0050
28617W        W35217   5.048   7.076  27.018 -0.0729 -0.0276 -0.2336
28618W        W35218  24.632   0.888   8.028 -0.0146  0.2174  0.1291
28619W        W35219  15.070   0.576   6.252 -0.0113  0.4874  0.1142
28620W        W35220   0.755   5.702  12.824 -0.1864 -0.2321  0.1060
28621W        W35221  12.179   2.851  25.881 -0.2664 -0.0401 -0.1568
28622W        W35222   0.417   5.366   1.856  0.1209  0.0776 -0.1223
28623W        W35223  22.132   2.148   3.859  0.0548  0.1776 -0.1417
28624W        W35224  21.218   0.143  22.168  0.1070 -0.1401 -0.2482
28625W        W35225   1.361   6.692   1.044 -0.0817 -0.2936  0.0364
28626W        W35226   6.060   4.235  15.477  0.1786 -0.0817  0.0040
28627W        W35227  12.307   3.040   7.154  0.2249 -0.0497 -0.2430
28628W        W35228   0.755   7.502  28.820  0.2044  0.2556 -0.0458
28629W        W35229  13.019   5.005  29.511  0.0863  0.2830 -0.4015
28630W        W35230   6.033   4.173  32.480  0.1857  0.0281 -0.2861
28631W        W35231  20.287   5.447  31.880  0.1175 -0.0650 -0.2126
28632W        W35232  18.654   2.112   6.926 -0.0849  0.0189  0.0980
28633W        W35233  16.951   3.734  11.749 -0.2801  0.0917 -0.2005
28634W        W35234  23.533   2.211  11.547  0.0132 -0.1606 -0.2117
28635W        W35235  24.579   5.355   3.352 -0.3611  0.1585  0.2231
28636W        W35236   8.574   7.122  25.602 -0.3137 -0.1058 -0.1357
28637W        W35237  12.182   0.647  28.042 -0.2650  0.0867 -0.4180
28638W        W35238  22.861   4.183  12.248  0.1624  0.0221  0.0220
28639W        W35239  14.687   0.463  26.429 -0.2559 -0.0299  0.2300
28640W        W35240  18.185   6.025  23.408 -0.3378 -0.5395  0.1665
28641W        W35241  19.646   7.052   8.372 -0.0348 -0.2483  0.3451
28642W        W35242  20.757   0.554   7.404 -0.0004 -0.0561  0.0726
28643W        W35243   0.831   0.107   6.558  0.1355 -0.0632 -0.2015
28644W        W35244  18.168   4.746   8.650  0.0156  0.2834  0.1324
28645W        W35245  22.763   3.208  24.149  0.4437 -0.3645  0.2077
28646W        W35246   0.994   3.758  23.046  0.1783 -0.0012 -0.2173
28647W        W35247  17.751   2.614  30.060  0.0881  0.0865  0.0754
28648W        W35248   9.289   7.712  19.486  0.0477  0.0474  0.4548
28649W        W35249  19.873   2.041   1.814 -0.2980 -0.2913  0.2510
28650W        W35250  24.929   6.917  12.645  0.1998 -0.3064  0.0505
28651W        W35251  16.219   6.190   2.430 -0.2143 -0.1040 -0.2342
28652W        W35252   2.883   1.584  19.006  0.2345  0.2763 -0.0198
28653W        W35253  10.931   1.692   9.007 -0.2222  0.3878  0.1427
28654W        W35254  16.824   6.419  28.472 -0.1730  0.2554 -0.0781
28655W        W35255   1.317   6.003  30.995 -0.0800 -0.0208 -0.0307
28656W        W35256   9.015   6.223  26.669 -0.0796 -0.0962  0.0319
28657W        W35257  19.031   2.407  23.506  0.1573 -0.1493  0.1745
28658W        W35258   1.917   2.085   6.759 -0.2160  0.2678  0.2810
28659W        W35259  21.256   1.845  16.278 -0.1209  0.0271  0.2668
28660W        W35260   5.166   2.019   9.982  0.0134 -0.1340 -0.1164
28661W        W35261  17.529   2.908  17.119  0.2895 -0.2450  0.0803
28662W        W35262  10.946   1.941   2.239 -0.0782  0.0148 -0.2282
28663W        W35263   9.234   5.283  21.216  0.2644  0.0945 -0.1195
28664W        W35264   7.224   4.961   1.481 -0.1103  0.0998  0.0270
28665W        W35265  22.330   0.876  26.257  0.0769 -0.0830 -0.0968
28666W        W35266   6.837   1.560  19.188  0.0548  0.0261 -0.0549
28667W        W35267  11.630   0.689  11.916 -0.0837 -0.2044 -0.1900
28668W        W35268   7.648   4.638   3.754 -0.1552 -0.2051 -0.1642
28669W        W35269  18.056   6.059  27.706  0.1924 -0.1434 -0.0758
28670W        W35270   6.714   6.799   9.583  0.3642 -0.0551  0.2430
28671W        W35271  14.502   4.399  24.318  0.0070  0.1247  0.0672
28672W        W35272   7.495   0.828  17.069  0.3407  0.2516  0.1600
28673W        W35273  15.613   7.381   2.523 -0.2956  0.0931  0.2380
28674W        W35274  12.809   5.801  26.257  0.1151 -0.0396  0.2749
28675W        W35275   9.075   1.859  24.002  0.0184 -0.1019  0.1487
28676W        W35276  11.188   0.439  23.145 -0.0255 -0.0643  0.0789
28677W        W35277  19.167   2.205  17.109 -0.3219 -0.0098  0.1342
28678W        W35278   7.423   3.035   1.311  0.0019 -0.0275  0.2891
28679W        W35279   7.865   5.947   3.041 -0.2618  0.4136  0.0254
28680W        W35280  22.809   4.873  13.776  0.1201  0.0647  0.0267
28681W        W35281  22.169   5.871   4.650 -0.4107 -0.0219  0.3235
28682W        W35282  22.496   5.657  26.587 -0.0247  0.2510  0.2416
28683W        W35283   5.920   2.812  23.399  0.1638 -0.0343  0.3865
28684W        W35284  24.848   3.525   7.785  0.0854  0.1254 -0.2483
28685W        W35285   2.548   0.053   2.123  0.1480 -0.0206  0.1146
28686W        W35286  13.747   3.198  10.121 -0.1104 -0.1149  0.0814
28687W        W35287   4.187   3.452   0.570  0.1214  0.2158 -0.0265
28688W        W35288  21.847   6.111  12.536  0.0909  0.0060  0.0809
28689W        W35289   1.537   4.376   6.533 -0.1393 -0.0484 -0.1482
28690W        W35290  10.803   1.611  32.120  0.2063  0.0900 -0.1018
28691W        W35291  12.360   2.613   2.282 -0.0931  0.0313 -0.4245
28692W        W35292  11.940   5.214  23.215  0.0740  0.3112  0.3318
28693W        W35293  19.484   5.322  10.623  0.0775  0.1330 -0.1235
28694W        W35294   8.298   2.714  19.851  0.0491 -0.0024  0.1113
28695W        W35295   4.650   0.085  27.561 -0.4897  0.0357  0.0041
28696W        W35296   2.529   5.426  29.704  0.2247  0.2036  0.1294
28697W        W35297   7.537   4.216  23.023  0.1065 -0.1671 -0.0029
28698W        W35298   9.196   7.184   6.202  0.1553 -0.1539  0.0175
28699W        W35299  25.113   4.244   6.686 -0.3189  0.2880 -0.0119
28700W        W35300  11.947   4.332  31.730  0.1048  0.1024  0.1617
28701W        W35301  24.244   1.740  27.801 -0.2078  0.0855  0.0289
28702W        W35302  21.889   1.713  25.310  0.1160  0.1180 -0.2621
28703W        W35303  10.694   3.329  19.629  0.0035 -0.1756 -0.3027
28704W        W35304  18.954   3.144  15.742  0.1036  0.1241 -0.0854
28705W        W35305   4.066   1.374  24.340  0.0233 -0.3858  0.0468
28706W        W35306   5.942   4.202  30.690 -0.1075 -0.0313  0.0566
28707W        W35307  21.494   1.778  28.970  0.0537 -0.3202 -0.0292
28708W        W35308  24.328   7.458  23.361 -0.0337 -0.1512 -0.1490
28709W        W35309  24.768   1.306  30.863 -0.1464  0.1851 -0.0721
28710W        W35310   7.692   4.538  21.637  0.1851  0.1057 -0.2036
28711W        W35311   0.576   3.835  26.937 -0.1456 -0.1154 -0.2502
28712W        W35312   0.680   3.111  21.086  0.0925 -0.1002  0.1397
28713W        W35313  19.641   5.261  31.181  0.1726 -0.1671  0.1566
28714W        W35314   1.252   4.385   1.370 -0.2078  0.3161  0.0047
28715W        W35315   1.819   1.942  18.909  0.1170 -0.0566  0.0450
28716W        W35316  19.512   7.837   7.246 -0.0344  0.1483  0.1364
28717W        W35317   1.667   0.037  25.945  0.2336 -0.0573 -0.1435
28718W        W35318   3.061   5.239  29.750  0.0723 -0.0018 -0.1706
28719W        W35319   0.072   0.233  25.578 -0.0755 -0.0384 -0.0311
28720W        W35320   6.086   4.859  27.715  0.0988  0.1558  0.0297
28721W        W35321  14.990   3.795   7.850  0.1551  0.3984  0.1836
28722W        W35322  15.787   3.874   4.370  0.0758  0.3025 -0.1640
28723W        W35323  13.302   1.492   9.157  0.2200 -0.1613 -0.2767
28724W        W35324  15.238   0.343  16.117 -0.2267 -0.1341 -0.0191
28725W        W35325  13.989   2.166   9.510 -0.2212  0.1599 -0.1382
28726W        W35326  19.287   1.165   3.669 -0.0761  0.0871 -0.1215
28727W        W35327  23.145   0.809  28.037 -0.0578 -0.1174  0.0466
28728W        W35328  23.826   1.986   0.888 -0.3025 -0.0916 -0.3321
28729W        W35329  19.824   7.852  12.142  0.0670 -0.0912  0.0266
28730W        W35330   3.600   3.434   3.285  0.0531  0.2256 -0.2634
28731W        W35331  14.900   1.635  22.106 -0.0704  0.0277 -0.1515
28732W        W35332   7.179   0.089  17.948  0.1953  0.1451 -0.1473
28733W        W35333  24.511   4.971  26.114  0.1301 -0.1270  0.2755
28734W        W35334   2.271   6.510   4.845 -0.1039 -0.2015 -0.3417
28735W        W35335   0.907   0.042   9.469  0.0240  0.0822 -0.1285
28736W        W35336  23.732   0.868   3.857  0.1153  0.2595  0.0825
28737W        W35337   3.040   2.092  21.815  0.0559 -0.0287 -0.2810
28738W        W35338  10.284   0.220  19.197  0.3300  0.1260 -0.0870
28739W        W35339  15.620   1.312  32.415  0.1621 -0.2036 -0.0646
28740W        W35340  13.173   4.207  26.384 -0.1120  0.0381  0.0049
28741W        W35341  20.593   7.439   0.960  0.1333  0.0333 -0.0233
28742W        W35342  14.833   5.961  14.397 -0.2361 -0.0935  0.0941
28743W        W35343   0.061   5.368  25.133 -0.1394  0.2579 -0.0081
28744W        W35344  22.047   3.675  21.981 -0.2824 -0.0268 -0.1357
28745W        W35345  24.480   3.383  23.383 -0.1276 -0.0427 -0.1759
28746W        W35346  20.594   0.378  24.000 -0.1649  0.0207  0.0945
28747W        W35347  11.891   3.635  30.341 -0.1093 -0.1203  0.0095
28748W        W35348   5.877   6.212  24.207  0.0525  0.1194 -0.0447
28749W        W35349   5.107   4.052   0.303 -0.2085  0.1266  0.0153
28750W        W35350  13.787   5.630   2.543 -0.0949  0.4049  0.1245
28751W        W35351  14.699   0.762   6.552  0.0498 -0.2344 -0.0412
28752W        W35352  18.253   2.022  32.021 -0.1390  0.0438 -0.1217
28753W        W35353  24.551   3.577  22.631  0.0254  0.0515 -0.0121
28754W        W35354   7.404   4.835  24.063 -0.1113  0.0947  0.3365
28755W        W35355  10.138   2.675   8.624 -0.3014 -0.3871  0.0015
28756W        W35356  10.932   1.369  18.663 -0.1130  0.1758 -0.0240
28757W        W35357   3.071   5.399   6.650  0.0511  0.1822 -0.0026
28758W        W35358  10.901   0.106   1.209  0.0719  0.2948 -0.0470
28759W        W35359   8.048   6.049  31.260 -0.0818 -0.3037 -0.0608
28760W        W35360   3.833   7.526   9.188 -0.0253 -0.0843 -0.3195
28761W        W35361   3.217   0.625  20.565  0.0949  0.2998 -0.2856
28762W        W35362  12.091   0.068   9.315 -0.2765  0.1575  0.1562
28763W        W35363  21.709   4.648   0.202  0.1036 -0.0830  0.0241
28764W        W35364  19.035   0.136   0.887  0.0724 -0.1388  0.0299
28765W        W35365  11.731   5.328   2.001 -0.2109  0.2100 -0.2455
28766W        W35366  21.439   3.574   6.179 -0.2392  0.0820 -0.1870
28767W        W35367  18.911   3.240  15.261  0.3800 -0.0422  0.0109
28768W        W35368   5.276   5.818   0.023  0.0164  0.0695 -0.1255
28769W        W35369   7.339   1.628  20.777  0.2160  0.2141  0.2187
28770W        W35370  19.476   0.292   1.287  0.0942 -0.2122  0.0180
28771W        W35371   8.774   5.845  30.795 -0.0377  0.0055 -0.1710
28772W        W35372  19.654   2.740  13.316  0.1484 -0.2170  0.2545
28773W        W35373  16.742   0.746  28.017 -0.1199  0.1324  0.2008
28774W        W35374   8.662   3.595   2.646  0.1118 -0.0520  0.3854
28775W        W35375  21.810   3.301  22.916 -0.0563  0.3601  0.2027
28776W        W35376   5.292   2.789  31.469  0.3039 -0.0409  0.1227
28777W        W35377  24.025   6.161  11.323  0.0386 -0.0493  0.1831
28778W        W35378   7.146   1.213   0.890  0.1873  0.1128  0.0926
28779W        W35379   6.403   5.836   8.147 -0.1460  0.1193  0.1407
28780W        W35380   2.888   2.945  30.326 -0.2269 -0.0064 -0.1185
28781W        W35381   0.487   2.041   6.873 -0.0333  0.1976  0.0327
28782W        W35382  22.062   3.888   7.147  0.2257 -0.2863  0.2411
28783W        W35383   4.588   2.193   6.832  0.0582  0.4351 -0.1680
28784W        W35384  15.018   2.310   9.149  0.1262 -0.1596  0.0194
28785W        W35385   5.165   0.390   7.643  0.0601  0.0783  0.2698
28786W        W35386   1.883   0.753  22.861  0.3638  0.1435 -0.1250
28787W        W35387  23.483   2.877  25.490  0.2082 -0.0557 -0.0103
28788W        W35388  16.113   7.437  30.893 -0.0820  0.0202 -0.2304
28789W        W35389  11.470   1.619  25.044 -0.2726 -0.0892 -0.1493
28790W        W35390   5.470   2.041   3.383  0.0594 -0.1115 -0.3699
28791W        W35391   5.203   2.069  17.063 -0.0108 -0.2040 -0.1309
28792W        W35392  24.917   2.018  28.010  0.0094  0.0380 -0.1081
28793W        W35393   2.373   0.120   3.945  0.1856 -0.0644 -0.0765
28794W        W35394   8.932   4.381   9.204  0.3988 -0.2337 -0.2335
28795W        W35395   2.303   2.755  24.667 -0.1131  0.0107  0.0455
28796W        W35396  19.544   5.243  17.129 -0.0731 -0.2730 -0.1985
28797W        W35397   1.246   4.898   2.865 -0.0075  0.1745  0.3605
28798W        W35398  20.207   0.018  30.143 -0.2333  0.1284 -0.2099
28799W        W35399  14.350   1.211   8.878 -0.1387 -0.1491  0.0126
28800W        W35400  17.435   1.972   3.155 -0.0549  0.4527  0.0283
28801W        W35401   7.401   5.746  29.007  0.1692 -0.0920  0.1746
28802W        W35402  11.605   2.224   0.550 -0.0196 -0.0841 -0.0749
28803W        W35403   9.194   3.224  17.734 -0.2225 -0.2063  0.1131
28804W        W35404  20.153   0.291   6.036  0.0811 -0.2076  0.0162
28805W        W35405  17.942   2.946   9.893  0.1970 -0.0721  0.1557
28806W        W35406  14.955   6.899   1.144 -0.1129 -0.1694 -0.0669
28807W        W35407  14.305   5.951   2.722  0.0407  0.2015  0.2103
28808W        W35408   8.611   1.377   3.658 -0.0220 -0.3123  0.1468
28809W        W35409  13.500   4.735   1.650 -0.0464 -0.0468  0.0040
28810W        W35410   0.575   6.777  30.061 -0.0751  0.0137 -0.0543
28811W        W35411  23.751   3.433  22.110  0.0536 -0.1065 -0.0037
28812W        W35412   0.197   3.943  26.440 -0.1100 -0.1589  0.0124
28813W        W35413  24.228   5.265   3.724 -0.0460 -0.3144  0.2033
28814W        W35414  22.660   5.889  10.693 -0.0987  0.3964  0.1044
28815W        W35415  22.418   2.026  12.265 -0.1061 -0.1025  0.2717
28816W        W35416   6.695   5.069  23.783 -0.0165 -0.0947  0.3680
28817W        W35417  18.858   1.928  22.719 -0.0177 -0.2015 -0.1317
28818W        W35418  21.558   6.739  26.909  0.2212  0.0971  0.0972
28819W        W35419  18.457   7.448   1.381  0.1570 -0.0148 -0.0732
28820W        W35420  19.087   1.692   1.047  0.0856  0.0845  0.0227
28821W        W35421  24.097   1.723   6.008  0.2655 -0.1581 -0.2419
28822W        W35422   8.594   6.202   2.511  0.3399 -0.0335  0.3283
28823W        W35423  20.434   1.796  26.018  0.2112  0.2149 -0.1313
28824W        W35424  18.939   5.573  26.632  0.2511 -0.2870 -0.0143
28825W        W35425   9.756   6.672  24.477 -0.0108 -0.0025 -0.0727
28826W        W35426   7.585   2.118   3.253 -0.1454  0.1834 -0.1955
28827W        W35427   2.354   0.980   0.377 -0.0035 -0.0054 -0.0971
28828W        W35428   9.494   2.714  31.186 -0.3106  0.2647  0.2280
28829W        W35429  24.523   5.216  22.262 -0.0795  0.2913 -0.0474
28830W        W35430   8.468   6.243   1.475  0.2836 -0.0802 -0.1359
28831W        W35431  17.858   2.652  30.794  0.0999 -0.3749  0.0347
28832W        W35432  22.371   1.299  25.430  0.0944  0.1268 -0.0461
28833W        W35433  22.905   0.977  11.364 -0.0715  0.0275  0.2101
28834W        W35434  13.527   0.860  29.590 -0.0113 -0.0629 -0.2107
28835W        W35435   0.703   6.326  30.335 -0.0157  0.0911  0.1531
28836W        W35436   9.940   6.598   8.262 -0.2445 -0.0427  0.0920
28837W        W35437  10.303   5.701   6.226  0.0036 -0.0863  0.1537
28838W        W35438  11.823   3.306   8.739  0.1862  0.0718 -0.0468
28839W        W35439  22.423   6.650  29.037 -0.1578  0.0173 -0.2279
28840W        W35440   3.913   1.582  32.440  0.0057  0.0096 -0.1110
28841W        W35441   6.081   1.844   4.508  0.0073 -0.0605 -0.0200
28842W        W35442  23.563   0.423  13.012 -0.1047 -0.4040  0.2769
28843W        W35443  15.376   3.335  27.945 -0.1873  0.1331  0.1603
28844W        W35444   8.811   3.641   7.278  0.2819 -0.4821 -0.1729
28845W        W35445   4.603   0.127  21.362  0.0783  0.0235 -0.0283
28846W        W35446  15.118   1.340  20.874 -0.2915  0.5680  0.3011
28847W        W35447   8.535   4.964   5.725 -0.2047 -0.0500  0.1756
28848W        W35448  21.251   1.864  22.470  0.0764  0.0214  0.1960
28849W        W35449   1.307   1.371   9.309 -0.1935  0.5685 -0.0538
28850W        W35450   8.056   3.374   8.983 -0.0462 -0.2050 -0.1184
28851W        W35451   3.312   2.239  25.671  0.2523 -0.1122  0.4774
28852W        W35452   2.733   0.313   7.494  0.1201 -0.2378 -0.2180
28853W        W35453  23.299   0.501  13.563 -0.0260 -0.0925 -0.0071
28854W        W35454   4.120   5.987  19.872 -0.0294 -0.1820 -0.1097
28855W        W35455  15.952   1.341  28.919  0.0044  0.1956 -0.0025
28856W        W35456   8.925   2.735  16.431  0.0693 -0.1751 -0.0094
28857W        W35457  11.369   4.763   0.430 -0.2878 -0.1028 -0.2130
28858W        W35458  16.243   5.817  14.342  0.0390 -0.2093  0.0187
28859W        W35459  17.499   0.194  29.004 -0.3477 -0.0733  0.0179
28860W        W35460  23.837   0.729  30.782  0.0418  0.0760 -0.5534
28861W        W35461  20.060   6.259  24.265 -0.0117 -0.0276  0.0052
28862W        W35462  23.083   5.504  27.826 -0.2950  0.0636  0.1733
28863W        W35463  20.922   7.377  22.817  0.1215 -0.1378  0.2232
28864W        W35464  21.456   0.615   2.504 -0.2366  0.2566 -0.1143
28865W        W35465  10.867   1.128  23.508  0.0460  0.2746 -0.0814
28866W        W35466  10.694   3.693  23.756 -0.1137 -0.1758  0.0907
28867W        W35467  13.527   2.425  12.859 -0.1056 -0.0351  0.0473
28868W        W35468   3.048   3.380  25.567 -0.1604  0.0247  0.1103
28869W        W35469   0.065   3.515  29.420 -0.2828 -0.0339 -0.4114
28870W        W35470   0.753   3.428  21.462 -0.1156  0.0630  0.0195
28871W        W35471  13.665   1.639   4.442 -0.1273  0.1175 -0.0079
28872W        W35472  10.887   4.352  17.481 -0.0028  0.0282 -0.0345
28873W        W35473  14.975   2.759   0.354 -0.1496  0.0215 -0.0805
28874W        W35474  12.008   5.395  28.923 -0.0962 -0.0469 -0.0077
28875W        W35475   1.314   2.410   7.112 -0.1161 -0.3456 -0.0447
28876W        W35476   1.610   6.227  27.385  0.1169  0.0457  0.0363
28877W        W35477   4.819   6.169  26.073 -0.0334  0.2769 -0.4207
28878W        W35478   1.063   6.630   4.069 -0.4255 -0.1425 -0.0450
28879W        W35479  23.660   5.952  22.225  0.1106 -0.0045  0.0200
28880W        W35480   1.827   0.002  11.510  0.0021  0.0710  0.0450
28881W        W35481  19.347   0.946  24.373  0.1380 -0.0741  0.0716
28882W        W35482   7.354   0.604  23.691 -0.3454 -0.1488 -0.3524
28883W        W35483  11.511   0.287   6.060 -0.3281  0.0321  0.1009
28884W        W35484   3.805   7.418  16.557  0.3900 -0.0127 -0.2049
28885W        W35485  13.832   5.913   8.860  0.3147 -0.3570  0.2614
28886W        W35486  13.750   5.941  12.692 -0.0341 -0.1790  0.3593
28887W        W35487   3.391   2.675   4.794  0.0034 -0.0168 -0.0021
28888W        W35488  24.726   3.404  25.410  0.0106  0.0215 -0.0739
28889W        W35489   4.331   4.639  21.092 -0.1302 -0.0755  0.1150
28890W        W35490  14.196   0.671   9.795  0.0087  0.0657 -0.0277
28891W        W35491   4.976   5.037  16.344  0.2793  0.0940  0.0985
28892W        W35492   2.315   6.111  22.876  0.0428 -0.3908  0.2182
28893W        W35493  11.523   3.657  26.204 -0.1409 -0.0482 -0.0656
28894W        W35494  21.912   2.728   1.540 -0.2602  0.2460 -0.0199
28895W        W35495  22.890   6.401   2.678 -0.3092  0.0145  0.2517
28896W        W35496  14.828   2.269  24.019  0.3346 -0.0157  0.0897
28897W        W35497  11.226   2.737  25.832 -0.2043 -0.0782  0.3173
28898W        W35498   2.435   2.735  29.449 -0.0773  0.0324 -0.0708
28899W        W35499  14.121   7.108   5.754 -0.1257 -0.0447 -0.2119
28900W        W35500  10.539   1.137   7.523  0.0863 -0.0928 -0.2042
28901W        W35501  18.117   4.078  26.405 -0.0518  0.0506  0.0653
28902W        W35502  22.453   2.107  11.407  0.2351  0.0043 -0.1280
28903W        W35503  24.785   6.075  32.026  0.1848  0.2743 -0.0358
28904W        W35504  17.793   7.478  11.892 -0.0210  0.1467 -0.1785
28905W        W35505  11.328   2.680  32.398  0.0851 -0.0391  0.0130
28906W        W35506   2.952   5.359  24.929  0.0665 -0.0063  0.0537
28907W        W35507   7.665   1.049  14.686  0.1253  0.1411 -0.3011
28908W        W35508  15.182   0.723  32.567  0.1020 -0.0122 -0.4164
28909W        W35509  14.328   3.616   9.081  0.0672 -0.1898  0.0348
28910W        W35510  18.261   6.220   3.494 -0.0528 -0.2600 -0.0686
28911W        W35511  21.739   2.146   5.616 -0.3574  0.1116  0.0347
28912W        W35512   9.115   0.738  30.565  0.2177 -0.2565  0.0876
28913W        W35513  21.635   1.539   9.503 -0.1570  0.0645  0.1254
28914W        W35514  10.110   3.868   6.765 -0.0494  0.1469 -0.0369
28915W        W35515  13.034   3.407  21.121  0.0807 -0.2258 -0.0057
28916W        W35516   7.196   5.328   7.978  0.0808 -0.0175 -0.0294
28917W        W35517   3.258   0.996  31.576 -0.1405  0.2189  0.0764
28918W        W35518  19.209   4.879  27.186  0.1698 -0.0514  0.0893
28919W        W35519  12.742   5.337  27.283  0.0331  0.0800  0.3914
28920W        W35520   4.902   4.137   3.190 -0.3332 -0.0490  0.0386
28921W        W35521  17.953   0.376  22.907  0.1544 -0.0520  0.2881
28922W        W35522   7.689   5.790  19.614 -0.0140  0.1115 -0.2114
28923W        W35523  22.531   7.760   5.790  0.0165  0.0725  0.1346
28924W        W35524   6.292   3.425  30.721 -0.3190  0.3386 -0.1052
28925W        W35525   0.955   7.277   2.932  0.2100 -0.0499  0.1844
28926W        W35526  23.105   2.391  11.045  0.3533  0.1094 -0.0192
28927W        W35527   3.152   4.899   4.585  0.2122  0.2259  0.4550
28928W        W35528   3.879   4.133   3.952 -0.1617  0.3758 -0.2542
28929W        W35529   8.957   5.039  14.264 -0.0517 -0.0922 -0.0717
28930W        W35530   5.148   4.492  26.526  0.2117  0.0574 -0.0208
28931W        W35531   6.043   4.991   2.184 -0.1028 -0.1971  0.0058
28932W        W35532  10.574   6.756  10.852 -0.1038  0.4686 -0.0060
28933W        W35533   0.183   5.106  10.807 -0.2109  0.1471 -0.2279
28934W        W35534  14.989   1.355   2.922 -0.1812  0.1516 -0.0102
28935W        W35535   0.373   7.297   5.911 -0.0078  0.0669 -0.0939
28936W        W35536  24.651   1.057  26.346  0.0453  0.1546  0.1864
28937W        W35537   3.818   6.082   1.999 -0.0387 -0.1902  0.0728
28938W        W35538  19.141   0.805  17.183  0.1055  0.0761 -0.0106
28939W        W35539   5.621   0.752   9.491  0.2473  0.0549  0.1694
28940W        W35540  24.079   5.908  10.718  0.3497  0.0057 -0.3051
28941W        W35541  23.130   0.483  26.384 -0.1445 -0.1916 -0.1939
28942W        W35542   7.021   2.814  22.802 -0.5453  0.1612  0.0027
28943W        W35543  21.235   4.065   8.763  0.0604  0.0789  0.1780
28944W        W35544  20.822   2.269  32.455  0.1423  0.0665 -0.1864
28945W        W35545  23.034   4.153  15.626 -0.2224  0.1440 -0.0198
28946W        W35546  14.980   6.422   5.583 -0.0096  0.3220  0.0808
28947W        W35547   6.474   7.184  16.749  0.0699  0.1953 -0.3997
28948W        W35548   9.868   5.148  16.280  0.1040  0.0753 -0.2296
28949W        W35549   0.255   3.379   5.161  0.1085 -0.1401 -0.0442
28950W        W35550   1.037   1.888  25.817 -0.1933  0.1495  0.3293
28951W        W35551  15.815   7.774  30.540 -0.0962 -0.0673 -0.1673
28952W        W35552   9.820   7.008  16.589 -0.0717 -0.1813  0.5033
28953W        W35553  13.161   7.274  31.778  0.3575 -0.4159 -0.3809
28954W        W35554   8.763   6.577  19.746  0.0427  0.3158 -0.0002
28955W        W35555   6.537   0.778  20.122  0.0085  0.2207 -0.0382
28956W        W35556   2.378   4.231  18.600  0.2345  0.0226 -0.0537
28957W        W35557   9.780   4.942   2.926 -0.0478  0.1873 -0.0174
28958W        W35558  13.088   7.227  23.258 -0.2580 -0.1257 -0.0158
28959W        W35559   4.234   7.296  23.464 -0.0502  0.2941 -0.1697
28960W        W35560   6.308   3.854  19.995 -0.0126 -0.1606  0.3768
28961W        W35561  24.836   5.560  24.772 -0.1741 -0.0649  0.1856
28962W        W35562  21.218   6.330   4.026  0.4546  0.2318  0.0122
28963W        W35563  17.201   1.552   8.504  0.0071  0.1745 -0.2332
28964W        W35564  11.676   4.484  19.459 -0.0469 -0.0283  0.0170
28965W        W35565   1.164   0.921  10.948  0.2450  0.1346 -0.0233
28966W        W35566  16.062   6.743  22.912  0.0738 -0.1053  0.1292
28967W        W35567   8.797   5.503  32.545  0.1075 -0.0667  0.0117
28968W        W35568   5.073   2.903   7.929  0.1640  0.0555 -0.0582
28969W        W35569   3.096   5.729  24.640  0.1997 -0.0901  0.0832
28970W        W35570  10.178   7.855   7.477  0.0266 -0.0532  0.2740
28971W        W35571  19.144   1.773  32.442 -0.2560  0.0799  0.2306
28972W        W35572  15.594   1.616  25.480 -0.0894 -0.2793 -0.0090
28973W        W35573   2.505   3.739  23.999  0.0157  0.1554  0.2717
28974W        W35574   2.722   1.892  22.721  0.1440 -0.2170 -0.0609
28975W        W35575   3.712   4.724   6.180 -0.1230  0.0721 -0.0850
28976W        W35576  20.191   0.740   2.313 -0.2229 -0.1701 -0.2337
28977W        W35577  11.431   0.923   3.547  0.1275 -0.2146 -0.0629
28978W        W35578  20.210   4.137   2.293 -0.0024  0.0743 -0.0795
28979W        W35579  24.096   7.759  12.372 -0.0373 -0.2499  0.1118
28980W        W35580  14.616   7.292   0.936 -0.0855 -0.0844  0.0867
28981W        W35581   7.225   5.863  25.079 -0.0373 -0.0159  0.0558
28982W        W35582  10.686   2.127  21.773  0.0855  0.1137  0.1622
28983W        W35583   8.721   6.663  23.463 -0.0248  0.0733 -0.0506
28984W        W35584  23.797   7.010   5.302 -0.0359  0.0464  0.1561
28985W        W35585  18.470   0.605  14.336  0.2728  0.1281  0.0564
28986W        W35586   6.825   0.692   6.176 -0.2173  0.1141  0.1049
28987W        W35587   8.357   1.032  25.976  0.2273 -0.0407  0.1574
28988W        W35588  18.646   5.696   8.847 -0.0114  0.2857  0.3599
28989W        W35589   7.603   7.769  17.694  0.4127  0.1702  0.0916
28990W        W35590   9.085   0.783   7.882  0.1025  0.3232  0.2492
28991W        W35591   4.905   0.906  22.518  0.0518 -0.4247  0.0013
28992W        W35592  21.094   1.001  22.848  0.1352 -0.1908 -0.0104
28993W        W35593  19.774   5.137  27.709 -0.2488 -0.1862 -0.4165
28994W        W35594   9.715   7.144  31.554  0.1500 -0.0414  0.3699
28995W        W35595   6.456   6.620   0.334 -0.0131  0.0075 -0.1191
28996W        W35596  16.872   0.637  15.326 -0.1590  0.1384  0.1596
28997W        W35597   9.956   6.815   8.723 -0.0237  0.3278 -0.0769
28998W        W35598  22.049   0.689  13.606 -0.0528  0.1524 -0.0401
28999W        W35599  18.269   5.013  28.852  0.3369 -0.0420  0.0129
29000W        W35600  22.421   2.474  10.334  0.0511 -0.2440  0.0031
29001W        W35601   7.247   3.387  18.043  0.0559 -0.1132 -0.2731
29002W        W35602   3.697   5.010  17.687  0.0131 -0.1705 -0.0926
29003W        W35603   2.753   1.285   0.581  0.0208  0.1969  0.0417
29004W        W35604   6.565   6.353  25.691 -0.0484 -0.1006  0.0646
29005W        W35605  15.748   2.981  25.213 -0.1771 -0.0347 -0.1152
29006W        W35606  22.214   7.385  31.033  0.1576 -0.1059 -0.1738
29007W        W35607   6.222   2.529  17.195 -0.1134  0.1806  0.3437
29008W        W35608  17.245   1.072  23.466  0.0591  0.2283 -0.1391
29009W        W35609   9.377   1.516   4.127 -0.1687  0.1898  0.2373
29010W        W35610   0.662   1.164   0.755 -0.2416  0.0266 -0.3703
29011W        W35611  21.212   2.131  29.189 -0.0728 -0.1006 -0.1932
29012W        W35612   2.767   5.689   8.795 -0.0228  0.0266  0.1850
29013W        W35613   1.900   2.230   1.744 -0.1457  0.1234 -0.0020
29014W        W35614  24.947   2.489   9.758 -0.0010  0.0566  0.0051
29015W        W35615   4.764   7.161   0.156  0.1559  0.0627 -0.1215
29016W        W35616  22.216   0.035   0.856  0.0059 -0.1285  0.1262
29017W        W35617  19.379   2.393  31.856 -0.1137 -0.0862  0.1165
29018W        W35618  24.417   5.930   7.388 -0.0938 -0.2065 -0.0248
29019W        W35619  21.356   5.021  15.423 -0.0597  0.1692 -0.0325
29020W        W35620  10.432   2.634   0.164  0.0627  0.1258 -0.0364
29021W        W35621  19.876   7.103  10.390  0.1853 -0.0030  0.0064
29022W        W35622  24.302   0.603  25.742 -0.1629  0.1649  0.1105
29023W        W35623   7.344   0.300   2.484 -0.1104 -0.1801  0.0846
29024W        W35624  12.906   1.861  26.608  0.2714 -0.2835 -0.0243
29025W        W35625   1.424   6.826  23.328 -0.0471 -0.1739  0.1040
29026W        W35626  21.565   6.337   3.089  0.3124  0.1654  0.2808
29027W        W35627   0.442   5.109  11.309 -0.0121  0.0203 -0.0479
29028W        W35628   4.912   1.787   7.502  0.1047 -0.0823  0.1760
29029W        W35629  23.388   4.307  12.205 -0.0180 -0.0609 -0.0870
29030W        W35630  16.417   4.315  29.045 -0.1056  0.2395 -0.0629
29031W        W35631   8.963   0.519   3.105  0.1628  0.0796 -0.1206
29032W        W35632   2.555   4.140   6.510  0.2377 -0.0668  0.0225
29033W        W35633  10.636   5.260   1.734  0.4294 -0.0732  0.1387
29034W        W35634  10.387   4.974  24.365  0.1557  0.0893 -0.0579
29035W        W35635  13.050   3.381  31.831  0.0424  0.0733 -0.0965
29036W        W35636   5.470   6.619   4.832 -0.2201  0.1498 -0.2625
29037W        W35637   6.690   5.248  20.606  0.0423 -0.3447  0.2641
29038W        W35638  24.514   7.269  22.739 -0.0915  0.5455 -0.2106
29039W        W35639   3.176   3.765   7.962  0.0932  0.2045  0.4269
29040W        W35640   9.683   1.531  22.189 -0.2570  0.2958 -0.0360
29041W        W35641  14.065   7.557  32.009 -0.0998 -0.2351 -0.2023
29042W        W35642  11.797   7.609   4.759  0.0598  0.0697  0.2494
29043W        W35643   2.047   5.710  19.868  0.2882 -0.0284  0.3360
29044W        W35644   1.817   0.128  19.856 -0.1449 -0.1210  0.1930
29045W        W35645   6.893   4.942   0.658 -0.0783 -0.2197 -0.1777
29046W        W35646   9.275   1.630   0.298 -0.1987 -0.4046  0.0862
29047W        W35647  12.469   1.797   6.833  0.2960  0.0647  0.0834
29048W        W35648   5.721   0.386  28.211  0.1505 -0.0962 -0.3069
29049W        W35649   0.500   7.039   4.393  0.0972  0.2469  0.2148
29050W        W35650   0.901   2.305  26.066 -0.1220 -0.0187  0.1430
29051W        W35651  15.222   3.279   1.958 -0.2963  0.1775  0.0573
29052W        W35652   1.282   1.481   5.942  0.0374 -0.2442 -0.1440
29053W        W35653  14.590   1.944  22.324  0.0631 -0.3138 -0.0941
29054W        W35654  11.447   6.473  24.724 -0.1488 -0.2351 -0.2103
29055W        W35655   0.425   7.224  26.426  0.4446  0.2317  0.1672
29056W        W35656  20.779   4.474  21.571 -0.0160 -0.2288  0.0364
29057W        W35657  22.850   4.206  11.388  0.2072 -0.0176 -0.0828
29058W        W35658   3.736   6.936  30.398  0.1128  0.0509 -0.3255
29059W        W35659   2.205   6.985  32.008  0.1059 -0.2186  0.3620
29060W        W35660  22.358   3.698  29.595  0.2075 -0.0435  0.1891
29061W        W35661  19.918   0.984   8.413 -0.0357  0.3029 -0.3143
29062W        W35662  22.845   1.354  23.812 -0.0865 -0.0856  0.2727
29063W        W35663   1.718   0.659   9.815  0.0835  0.0973  0.2189
29064W        W35664   2.109   3.249  22.214 -0.1899  0.2052  0.0066
29065W        W35665  19.416   3.375  24.041 -0.1456 -0.2665 -0.2902
29066W        W35666  11.132   2.640  19.506  0.2862 -0.1214  0.1592
29067W        W35667  20.843   0.013  11.834 -0.0040 -0.1578  0.0977
29068W        W35668   4.443   1.186   7.957  0.1983 -0.3360  0.1183
29069W        W35669   3.699   3.293   4.922 -0.3080 -0.2017 -0.0817
29070W        W35670  15.565   0.981   3.758 -0.3079  0.1403 -0.0631
29071W        W35671   8.796   1.510   0.309  0.2146  0.1200  0.0234
29072W        W35672  17.882   1.462   9.863 -0.1518 -0.0481  0.3025
29073W        W35673   5.428   7.190  17.995  0.1964  0.2019 -0.1333
29074W        W35674  13.891   7.470  11.353 -0.2210  0.0683 -0.2077
29075W        W35675  13.999   5.810  29.450  0.0980  0.0053 -0.1676
29076W        W35676  20.298   5.217  10.404 -0.1136 -0.2420  0.2550
29077W        W35677  23.058   7.353  29.884  0.0248 -0.1995 -0.0148
29078W        W35678  18.503   5.726   2.057  0.2638  0.0323  0.0220
29079W        W35679   5.095   4.339  28.945  0.0011  0.2393  0.1678
29080W        W35680  23.878   4.840  29.805  0.2041  0.0393 -0.1986
29081W        W35681  21.040   3.558   8.437 -0.0813  0.0418  0.1466
29082W        W35682   4.981   2.694  22.049  0.0180 -0.0879  0.1312
29083W        W35683  17.112   4.352   4.416  0.1843  0.1744 -0.1143
29084W        W35684   3.890   5.417  26.064  0.0489 -0.0165  0.0998
29085W        W35685  24.322   7.234   1.775 -0.3382  0.2750  0.1266
29086W        W35686   1.315   1.836   7.795 -0.0295 -0.0542  0.0160
29087W        W35687  21.516   1.401   5.829 -0.2321  0.2272  0.3217
29088W        W35688   2.717   5.215  16.375  0.2943 -0.2344 -0.2840
29089W        W35689  12.574   1.784  31.250  0.2513  0.0382  0.1908
29090W        W35690  17.554   6.836  26.908 -0.1210  0.0186  0.1339
29091W        W35691   8.929   3.647  16.134 -0.0343  0.2131  0.2209
29092W        W35692  17.115   4.026  17.335  0.1474 -0.1399  0.1340
29093W        W35693  22.637   1.057   1.613  0.1532 -0.1061 -0.0393
29094W        W35694   6.318   0.394   3.665 -0.0267  0.1321  0.0623
29095W        W35695   0.307   0.238  23.952  0.2039  0.3894 -0.0907
29096W        W35696  20.384   3.298   0.695  0.2104  0.0126  0.1606
29097W        W35697  14.190   4.220  25.646  0.0290 -0.2401 -0.1996
29098W        W35698   4.938   7.178  28.786  0.0636  0.3275  0.1755
29099W        W35699  21.835   0.868   7.996 -0.0012  0.0741  0.1452
29100W        W35700  20.341   6.309   8.674  0.2004  0.4489  0.0914
29101W        W35701  11.307   1.645  29.496 -0.1975 -0.1044 -0.1105
29102W        W35702   2.064   0.371   4.221 -0.1222 -0.1935 -0.1099
29103W        W35703  23.603   2.057   9.009  0.0442  0.0643  0.0881
29104W        W35704  23.934   2.208   3.595  0.0523  0.1531  0.0845
29105W        W35705  16.938   6.933  13.917 -0.1596  0.2844  0.2526
29106W        W35706  18.791   4.397  18.068  0.0621  0.1044 -0.2740
29107W        W35707  11.290   2.434   8.685 -0.1293 -0.3918  0.1066
29108W        W35708  19.517   6.830  29.520 -0.2121  0.0227 -0.1266
29109W        W35709   9.345   7.834   2.163 -0.2688  0.2420 -0.0638
29110W        W35710  18.884   0.242   2.706  0.1290 -0.2444 -0.0426
29111W        W35711  10.394   6.755  24.167 -0.0577 -0.0592  0.0580
29112W        W35712  15.214   6.701   6.746 -0.3485  0.2382 -0.2925
29113W        W35713  17.228   1.039  12.158  0.2156 -0.0753 -0.2896
29114W        W35714   8.415   2.585  27.060 -0.1000 -0.2106  0.3850
29115W        W35715   7.583   3.137  21.647 -0.1830 -0.0458 -0.0652
29116W        W35716  24.953   3.799  11.303  0.0161 -0.1839  0.0905
29117W        W35717   6.975   3.692  27.368 -0.0429  0.2833  0.1576
29118W        W35718   5.673   2.560  32.082 -0.1239 -0.1710  0.1222
29119W        W35719   9.142   6.070   3.188 -0.1389  0.1433 -0.0928
29120W        W35720   3.743   1.501   7.642 -0.0301 -0.0449 -0.3160
29121W        W35721  18.746   5.786  14.422 -0.1475 -0.0519  0.3665
29122W        W35722  22.391   7.418  24.704  0.0208 -0.0272  0.0932
29123W        W35723   3.190   0.891  25.325  0.0301 -0.2312 -0.0940
29124W        W35724   0.290   3.597   3.712 -0.0884 -0.1069 -0.0224
29125W        W35725   7.144   4.739  16.097  0.0040 -0.2033  0.0030
29126W        W35726  14.709   6.132  24.370 -0.2452  0.0654 -0.0606
29127W        W35727  25.076   2.852   0.747 -0.2371  0.1925 -0.0650
29128W        W35728   0.662   7.178   6.375  0.2397  0.1195  0.0628
29129W        W35729   6.679   7.364  32.360  0.0364  0.0797 -0.1173
29130W        W35730  23.034   7.383   0.871 -0.1175  0.2883  0.2769
29131W        W35731   0.988   1.530   9.820  0.0536 -0.1626  0.1794
29132W        W35732  15.829   3.442   7.524 -0.1369  0.1140 -0.1194
29133W        W35733  13.748   0.185   8.008  0.0016 -0.1721 -0.1979
29134W        W35734   1.053   1.253   0.358  0.1904  0.0578  0.0301
29135W        W35735  20.653   5.251   3.786  0.0853 -0.2018 -0.0651
29136W        W35736   2.271   3.645   2.788  0.2118  0.1805  0.0139
29137W        W35737   9.463   3.819   7.837 -0.0871  0.0447  0.1035
29138W        W35738  18.229   0.984   4.342 -0.0961  0.1354  0.0817
29139W        W35739   8.515   0.109  20.935 -0.0372  0.0115 -0.2283
29140W        W35740   3.368   6.461  30.086 -0.2314 -0.2108  0.0418
29141W        W35741   7.000   7.374   8.930 -0.2345  0.3162  0.1853
29142W        W35742  21.903   0.334   2.780  0.1708  0.2215 -0.1203
29143W        W35743   0.422   5.547   4.742 -0.1529 -0.0231 -0.3044
29144W        W35744   4.633   4.256  27.265  0.1490  0.3107  0.0264
29145W        W35745   5.811   3.072  31.890 -0.3638 -0.1006  0.0862
29146W        W35746  24.438   5.858  10.392 -0.0697  0.2750  0.1173
29147W        W35747   7.916   4.703  26.698  0.2477 -0.0041 -0.0361
29148W        W35748  22.042   0.749  13.112 -0.0942  0.2851  0.1805
29149W        W35749  15.233   5.604  31.963  0.0884  0.0313 -0.2214
29150W        W35750  20.077   3.328  30.437 -0.2481  0.2989 -0.1470
29151W        W35751  18.824   7.638  14.016  0.0479  0.1018  0.0381
29152W        W35752   1.324   4.737  20.125  0.1550  0.0939  0.0184
29153W        W35753   4.713   3.584  31.323  0.1139  0.0120  0.1311
29154W        W35754   6.215   2.797   4.391  0.1571 -0.1351  0.1014
29155W        W35755   3.036   2.214  18.832  0.1493 -0.1058  0.0884
29156W        W35756   4.509   5.521   5.442 -0.0615 -0.1090  0.1055
29157W        W35757   2.489   5.919   0.908 -0.0097 -0.0565  0.0722
29158W        W35758  10.045   2.928  16.358  0.1227 -0.1909  0.1640
29159W        W35759   1.714   3.306  21.304  0.0236  0.0911 -0.1163
29160W        W35760   3.473   7.238  25.625 -0.0810 -0.0941  0.1068
29161W        W35761  16.956   0.956  25.417 -0.1543 -0.0296  0.0660
29162W        W35762  24.331   2.173  31.499 -0.0198 -0.3580 -0.1959
29163W        W35763   2.830   0.715  28.797 -0.0924 -0.4014 -0.1837
29164W        W35764   5.070   7.603  22.839 -0.2668 -0.0228 -0.0197
29165W        W35765   5.169   4.353  15.996  0.1126 -0.2806 -0.0195
29166W        W35766   8.078   4.260   1.950 -0.1721  0.1033 -0.1876
29167W        W35767  20.334   0.751   5.975 -0.0207  0.1409 -0.1227
29168W        W35768   4.095   2.155   8.839 -0.0783  0.1927  0.1078
29169W        W35769  17.849   3.253  10.421  0.0375  0.0539  0.0071
29170W        W35770   5.949   2.842  31.499 -0.0182  0.1217 -0.3818
29171W        W35771   4.997   1.520  25.221  0.0133 -0.2266 -0.0347
29172W        W35772  17.873   3.934  14.805  0.1954 -0.1464  0.1519
29173W        W35773   2.019   2.667  26.683 -0.1737  0.4235 -0.1212
29174W        W35774  11.258   5.058  31.578 -0.0340  0.1033  0.2540
29175W        W35775  12.141   7.355   3.065 -0.1669  0.2663 -0.0366
29176W        W35776   1.314   1.429  20.889  0.1325  0.0923  0.0695
29177W        W35777   7.257   5.501   1.480 -0.0903 -0.0212 -0.0848
29178W        W35778  22.895   6.112   5.129 -0.2425 -0.1283 -0.0995
29179W        W35779   9.761   0.805  30.010 -0.2052 -0.1379 -0.0326
29180W        W35780  15.295   2.947   7.482  0.1258 -0.1036 -0.1282
29181W        W35781   4.898   2.464   1.273 -0.1602 -0.1463 -0.1926
29182W        W35782   3.591   5.042  26.091 -0.0371 -0.1733  0.0965
29183W        W35783  19.731   2.618  10.316 -0.0254  0.0011  0.0806
29184W        W35784  18.263   7.035  12.720  0.0808 -0.1659  0.0588
29185W        W35785  21.056   5.649   5.194  0.0284 -0.3392 -0.0345
29186W        W35786   2.217   4.363  19.436 -0.2578  0.0337  0.0303
29187W        W35787  22.076   1.020  29.802  0.1433  0.0558 -0.3627
29188W        W35788  17.360   4.197  30.568  0.0437  0.0270 -0.0011
29189W        W35789   1.957   1.533  24.555  0.0357  0.1890  0.0503
29190W        W35790   9.944   7.776  17.575 -0.0806  0.2005 -0.0173
29191W        W35791  15.900   7.388  14.473  0.0540 -0.0701 -0.0812
29192W        W35792   7.981   4.462   2.432 -0.0234 -0.1600  0.2586
29193W        W35793   6.369   1.278  30.078 -0.0385 -0.2730 -0.4170
29194W        W35794  23.574   1.649   0.468  0.2417 -0.2309 -0.4546
29195W        W35795   4.508   5.107  27.811  0.0750 -0.0641 -0.2203
29196W        W35796  11.370   0.142  27.045  0.0966  0.0026 -0.1320
29197W        W35797  25.138   2.462  29.906  0.1673 -0.1392 -0.0107
29198W        W35798  14.710   5.353  10.900 -0.0147 -0.1859 -0.1283
29199W        W35799  11.110   1.504  30.361 -0.1491  0.0763  0.1766
29200W        W35800   9.429   3.286  16.748 -0.3904 -0.0662 -0.1231
29201W        W35801  23.269   0.682  12.683 -0.1509  0.3442 -0.2192
29202W        W35802  16.315   5.431  11.848 -0.0739 -0.1753 -0.0347
29203W        W35803  24.158   7.227   7.591  0.1026 -0.2841 -0.2212
29204W        W35804   1.448   5.001   5.716  0.0455  0.1463 -0.1014
29205W        W35805  10.708   0.025  22.627  0.1682 -0.1102  0.1256
29206W        W35806  24.575   1.536   3.049 -0.0651  0.0859  0.1705
29207W        W35807   8.647   3.602  22.088  0.0231 -0.2875 -0.2036
29208W        W35808  19.610   0.878  24.779 -0.4110 -0.0466  0.1994
29209W        W35809   1.509   6.606  21.107 -0.0988 -0.0237 -0.0570
29210W        W35810  22.141   0.890   6.377 -0.1396 -0.0525 -0.2480
29211W        W35811  22.157   3.847  10.715  0.1717  0.0249 -0.1209
29212W        W35812   2.609   4.744  17.939  0.0045  0.1342  0.3885
29213W        W35813   4.203   4.204  19.786 -0.0694  0.1151 -0.0240
29214W        W35814   9.893   6.680  17.529 -0.1136 -0.0391 -0.1487
29215W        W35815  16.985   3.561   3.970 -0.0175  0.1670 -0.0110
29216W        W35816  15.907   6.670  31.678 -0.4070 -0.1863  0.0780
29217W        W35817  10.363   0.814  20.558 -0.0984 -0.1515 -0.0465
29218W        W35818  20.276   6.042  16.295  0.0280 -0.0285  0.0124
29219W        W35819  23.841   7.807  30.268  0.0654 -0.0092  0.2309
29220W        W35820  22.092   3.870   9.277 -0.0258 -0.1289  0.0265
29221W        W35821  13.853   2.949   2.926  0.0889 -0.1197 -0.2632
29222W        W35822   9.808   7.152   5.415 -0.0921 -0.2575  0.0662
29223W        W35823   8.767   5.407  31.454 -0.1948 -0.0965  0.0301
29224W        W35824  23.783   1.714  30.137 -0.1037 -0.0896  0.1960
29225W        W35825   1.573   5.762  28.719  0.0909 -0.0196  0.0124
29226W        W35826  13.937   4.493   4.797  0.1362  0.1054 -0.3496
29227W        W35827   6.198   6.383  22.055  0.0517  0.0402 -0.0377
29228W        W35828   4.100   0.939  23.767  0.1945 -0.0488 -0.0031
29229W        W35829  18.083   6.043  28.399  0.0670  0.2796 -0.0005
29230W        W35830   0.665   1.259  23.955  0.0511  0.2365  0.0193
29231W        W35831   8.829   2.961  29.227  0.0822 -0.0779  0.0805
29232W        W35832  10.973   5.290   5.077 -0.0779  0.0188  0.0022
29233W        W35833   2.125   3.776   5.154 -0.1089  0.1594 -0.0081
29234W        W35834  13.108   4.942  23.758 -0.1285  0.2504  0.0275
29235W        W35835  22.598   6.731  10.189 -0.1426  0.3273 -0.1764
29236W        W35836  12.943   6.529  28.015 -0.1036  0.1919 -0.0398
29237W        W35837  19.024   6.863   2.454 -0.5020  0.2415  0.0669
29238W        W35838   2.128   6.951   5.229  0.0614 -0.3303 -0.0259
29239W        W35839  21.608   1.841   8.064  0.1551  0.0451 -0.0769
29240W        W35840  21.347   6.106  23.459  0.0032 -0.1901 -0.1361
29241W        W35841   6.719   1.740  25.472 -0.1621  0.0724 -0.0603
29242W        W35842  19.379   4.176  32.457  0.1787  0.3396 -0.2295
29243W        W35843   1.845   5.447  23.873  0.2436  0.0084  0.1922
29244W        W35844  12.513   2.789   4.444 -0.0087  0.0200 -0.0158
29245W        W35845  13.666   4.153   0.155 -0.1451 -0.2272 -0.4544
29246W        W35846  16.211   1.469   1.487 -0.1893  0.1959 -0.1359
29247W        W35847   8.969   4.732   1.387  0.4125  0.1749  0.0561
29248W        W35848   5.301   4.584  21.807  0.2230  0.1604  0.1142
29249W        W35849   8.580   2.842   3.296  0.3690 -0.1742  0.0487
29250W        W35850   7.637   3.703  28.644 -0.0515 -0.2984  0.0229
29251W        W35851  18.625   4.496  28.929 -0.1155 -0.1972  0.0422
29252W        W35852   7.720   3.632   8.549 -0.1696  0.2411  0.1231
29253W        W35853   6.965   3.215   3.051  0.0315  0.0810  0.0975
29254W        W35854   9.076   6.326  27.992 -0.2285 -0.3203  0.3236
29255W        W35855   2.581   0.255  23.173  0.0336  0.0295 -0.1544
29256W        W35856   0.133   5.729  32.304  0.4815  0.1169 -0.0604
29257W        W35857  12.795   2.335  29.358 -0.0532 -0.0864 -0.2068
29258W        W35858   8.477   4.598   3.276  0.0424  0.1038 -0.2126
29259W        W35859   9.324   0.535  29.137 -0.0923 -0.1547  0.0694
29260W        W35860  19.495   6.367  29.825  0.1914 -0.1622  0.2745
29261W        W35861  20.855   0.333   1.340 -0.1013 -0.0553  0.1742
29262W        W35862  10.103   7.140   9.086  0.2356 -0.2418  0.3609
29263W        W35863   4.079   5.290  15.789 -0.0832  0.1988 -0.2653
29264W        W35864   3.365   1.664  19.120 -0.0215 -0.2983 -0.0231
29265W        W35865  14.100   4.257   3.604  0.1200 -0.3068  0.1868
29266W        W35866  13.095   0.143  30.633 -0.4353  0.0479  0.1607
29267W        W35867   5.302   3.470  23.069  0.2280  0.0556  0.2905
29268W        W35868  13.109   1.345   1.878 -0.1995  0.2563 -0.0028
29269W        W35869  11.643   6.175  31.166 -0.1033  0.2197  0.2625
29270W        W35870  10.426   0.111  23.737 -0.0779 -0.2087 -0.4222
29271W        W35871  20.769   0.524  24.569  0.0680  0.3771  0.1702
29272W        W35872   5.180   7.579  27.052  0.0586  0.0713  0.0379
29273W        W35873  18.402   7.764   4.951 -0.1876  0.2854  0.0002
29274W        W35874   6.241   1.916  24.786 -0.2360 -0.2856 -0.1589
29275W        W35875  15.170   5.056  27.940  0.2946  0.0588  0.0550
29276W        W35876  20.030   7.253   9.720 -0.0664 -0.0205 -0.3851
29277W        W35877   2.339   3.203   0.750  0.0425  0.0604 -0.1325
29278W        W35878   7.943   3.923  15.301  0.0400 -0.0218  0.0543
29279W        W35879  10.913   6.695   9.201 -0.1788 -0.0668 -0.0312
29280W        W35880  22.228   0.325  28.598  0.2929  0.0902  0.1791
29281W        W35881  15.581   4.084   1.101 -0.0085 -0.0410 -0.2402
29282W        W35882  12.710   5.886  28.428 -0.0348 -0.3117  0.0680
29283W        W35883   3.847   1.370   9.281  0.0604 -0.2999  0.0192
29284W        W35884   0.755   3.045  26.294  0.0019 -0.3942 -0.2735
29285W        W35885   6.382   1.267   0.370  0.1034 -0.1391  0.1177
29286W        W35886  16.051   2.192  25.474 -0.0958 -0.1039 -0.1817
29287W        W35887  21.664   7.740   3.023  0.1007 -0.1110  0.1054
29288W        W35888   3.929   2.843  24.493 -0.0366 -0.1487 -0.1506
29289W        W35889   5.576   2.641  29.154  0.0526 -0.0922 -0.1972
29290W        W35890   2.562   3.684  10.096 -0.1210 -0.1311  0.3945
29291W        W35891   4.924   2.251  24.486 -0.0311  0.2390 -0.0346
29292W        W35892   6.855   6.111  17.212 -0.3460  0.1094  0.1627
29293W        W35893  20.511   1.961   8.011  0.1904  0.1438  0.3188
29294W        W35894  15.461   5.974  22.963  0.2223  0.0804  0.3138
29295W        W35895   2.990   5.006  21.782  0.0887  0.0567 -0.1116
29296W        W35896   0.132   1.160  28.241 -0.1555 -0.2878  0.2589
29297W        W35897  10.107   4.298  21.423  0.4444  0.1444 -0.0942
29298W        W35898   4.580   0.877  21.149 -0.0251 -0.2621  0.1377
29299W        W35899  17.929   1.317  31.675  0.0627 -0.0096  0.1213
29300W        W35900  18.496   4.350   5.286 -0.0272  0.0746 -0.1685
29301W        W35901  15.400   5.634   7.094  0.3196  0.0441  0.1588
29302W        W35902  15.152   2.084   5.368 -0.0596 -0.2060 -0.0769
29303W        W35903   4.836   2.113   8.291 -0.3136 -0.0517  0.2996
29304W        W35904   2.483   7.001  24.621 -0.0749  0.1234 -0.2102
29305W        W35905  12.986   3.130  23.808  0.3474  0.0704 -0.0233
29306W        W35906  20.083   1.173  16.213  0.0650  0.3112 -0.0529
29307W        W35907  17.078   4.380  18.278  0.1376 -0.0773  0.0646
29308W        W35908  12.902   4.080  25.960  0.1551 -0.0857 -0.1555
29309W        W35909   3.490   2.838  21.157  0.0386 -0.0470 -0.0425
29310W        W35910  12.870   2.330  27.845  0.0896  0.0272  0.0009
29311W        W35911  22.446   2.971  27.946  0.1135  0.0587 -0.0870
29312W        W35912  10.402   2.722  18.081 -0.0046  0.1903  0.1337
29313W        W35913  19.754   4.004   5.189 -0.1197 -0.0787 -0.1218
29314W        W35914  11.315   0.885   9.626  0.1117  0.1674  0.0192
29315W        W35915   4.274   0.203  18.361 -0.1228  0.2896  0.1406
29316W        W35916  24.314   7.005  23.637  0.0009 -0.0501 -0.0595
29317W        W35917   2.329   7.697  20.598 -0.0877  0.0453 -0.1240
29318W        W35918   5.806   5.614  21.529  0.1127 -0.2439  0.1884
29319W        W35919   9.662   6.461  32.133  0.0816 -0.0287 -0.3205
29320W        W35920  21.768   1.170  27.722 -0.1561  0.1795  0.0771
29321W        W35921  11.373   0.088  25.283 -0.3157  0.1070  0.0750
29322W        W35922   2.180   5.887  19.384 -0.2558  0.2649 -0.0424
29323W        W35923  11.847   3.805  31.586  0.0342  0.0748  0.3369
29324W        W35924   4.862   6.713  28.943  0.0512  0.0872  0.2540
29325W        W35925  18.245   7.552   8.758 -0.4583 -0.5222 -0.0621
29326W        W35926   0.158   7.612   7.754 -0.2765  0.0350  0.2664
29327W        W35927   1.199   4.463  27.433  0.3480 -0.1206  0.1690
29328W        W35928  10.532   7.083  21.435  0.2526 -0.0450 -0.1790
29329W        W35929   4.705   2.195  30.002 -0.0423  0.1816 -0.1391
29330W        W35930   6.581   2.855  30.065  0.1677 -0.2601 -0.0685
29331W        W35931   6.564   0.694  26.346  0.2123  0.3949 -0.1325
29332W        W35932   9.643   7.830  26.362 -0.0623  0.0281 -0.0462
29333W        W35933  16.900   3.805  24.315 -0.1384 -0.0745 -0.3183
29334W        W35934  11.564   6.927  32.380  0.3628  0.1688  0.0047
29335W        W35935  21.192   1.700  29.479  0.3202 -0.0037 -0.1212
29336W        W35936   7.598   2.048  24.525  0.0017  0.1376  0.0057
29337W        W35937   7.911   7.761  20.227  0.2059  0.0441  0.0977
29338W        W35938  21.045   5.425  29.655 -0.1652  0.0441 -0.4651
29339W        W35939  12.515   0.154  25.234  0.2970  0.0854 -0.2069
29340W        W35940  13.720   7.519   2.861 -0.0062 -0.1738  0.0312
29341W        W35941   8.357   5.517   4.826  0.1534 -0.0781 -0.0084
29342W        W35942   5.488   1.665  17.400 -0.0410  0.3664  0.2378
29343W        W35943  23.130   2.995  23.260 -0.1913 -0.2705  0.2956
29344W        W35944   6.033   3.434   7.261  0.0029 -0.1051 -0.2037
29345W        W35945  23.516   2.783   8.816 -0.0868  0.0260  0.0245
29346W        W35946  16.418   6.479  29.385 -0.0515 -0.3296  0.0777
29347W        W35947  19.610   7.806   5.104 -0.0434 -0.1138  0.0993
29348W        W35948   7.840   5.248  18.006 -0.3918 -0.0226 -0.0075
29349W        W35949   7.500   4.504  29.045 -0.2912  0.1518 -0.0639
29350W        W35950   7.762   6.259  28.305 -0.2376  0.2620  0.1388
29351W        W35951  24.080   3.511   4.154  0.0606  0.1115  0.0501
29352W        W35952  24.495   3.048  27.875  0.0644  0.0558  0.2014
29353W        W35953   3.241   1.279  19.850  0.4632  0.2721 -0.1082
29354W        W35954  16.760   2.586  17.030 -0.0414 -0.5003  0.0759
29355W        W35955  21.464   2.230  16.939 -0.1836 -0.0425 -0.2810
29356W        W35956  10.816   7.824   5.486 -0.0230 -0.1335  0.4024
29357W        W35957   2.307   1.882  31.503  0.1677 -0.3520  0.0957
29358W        W35958  11.633   1.176  21.075 -0.1585 -0.0048 -0.0767
29359W        W35959  22.960   1.428   1.257 -0.1074 -0.0771  0.3457
29360W        W35960  23.525   4.163   3.661 -0.1613  0.0822  0.0206
29361W        W35961   9.110   3.104  30.661  0.0768 -0.1564 -0.1135
29362W        W35962  10.131   0.180  19.968 -0.0494 -0.2935  0.2338
29363W        W35963  21.060   3.295  30.399 -0.1603  0.0417 -0.0091
29364W        W35964  19.755   2.888  25.472  0.1699  0.1599 -0.2753
29365W        W35965   1.830   5.180   8.199  0.2473 -0.2375  0.3973
29366W        W35966   6.625   6.198  15.248  0.1181 -0.0163  0.1988
29367W        W35967  23.206   6.745  14.282 -0.2104 -0.3975  0.1380
29368W        W35968  19.554   5.851  10.622 -0.1202 -0.0728  0.1117
29369W        W35969  11.735   4.816  26.815  0.2776 -0.2048  0.0452
29370W        W35970   8.507   5.665   2.453 -0.0879 -0.2311  0.0859
29371W        W35971  18.994   5.288  24.534  0.1934 -0.0708 -0.2249
29372W        W35972  10.007   5.796   5.314  0.1870  0.0327 -0.0262
29373W        W35973   4.675   1.061  18.218 -0.0598 -0.0765 -0.3192
29374W        W35974   0.198   2.726   7.697  0.1141 -0.0805  0.0808
29375W        W35975  11.205   2.641  17.720 -0.2117  0.1332  0.1333
29376W        W35976  22.460   7.363   0.758  0.1657 -0.0718 -0.1752
29377W        W35977   6.182   7.568   4.906  0.2559  0.1675 -0.2068
29378W        W35978   8.582   1.079   1.250  0.1690 -0.1431 -0.3579
29379W        W35979  11.033   1.063  31.670 -0.0275  0.4405 -0.0271
29380W        W35980  19.916   5.193  25.726  0.0206 -0.0263 -0.1452
29381W        W35981   8.376   0.014  15.707 -0.0876 -0.4005 -0.0162
29382W        W35982   9.819   6.824  32.463  0.0599  0.2879  0.0827
29383W        W35983   3.368   0.521   4.681 -0.4158 -0.0035  0.0843
29384W        W35984  21.018   0.072  13.359  0.1376  0.0141 -0.1879
29385W        W35985   8.241   7.283   1.837 -0.1256 -0.2277 -0.1004
29386W        W35986  16.515   2.551   3.849  0.4193  0.1000  0.2392
29387W        W35987  10.043   6.490  23.810  0.0095 -0.0172  0.1954
29388W        W35988   2.471   1.664  20.681 -0.1052 -0.1407 -0.1684
29389W        W35989   9.964   4.900   0.227 -0.1872 -0.2537 -0.0729
29390W        W35990  22.862   2.665  28.733 -0.0913  0.0594 -0.2620
29391W        W35991  19.153   1.746  28.109 -0.1666  0.2179  0.0232
29392W        W35992   5.316   2.138  27.420  0.1579 -0.0440 -0.1795
29393W        W35993  22.646   2.639   0.216  0.1834 -0.4142  0.2663
29394W        W35994   7.636   1.748  19.240 -0.0016 -0.0159 -0.4045
29395W        W35995   4.915   5.908   7.741 -0.1808 -0.0610  0.4629
29396W        W35996  10.571   1.599  21.695  0.0934  0.0816 -0.0066
29397W        W35997  14.576   5.059   9.705 -0.2257 -0.0804 -0.1245
29398W        W35998  15.850   1.572  24.247  0.1633  0.3507  0.1157
29399W        W35999   5.806   3.563   0.587  0.2073  0.0081  0.0308
29400W        W36000  20.777   4.259   3.282 -0.0535  0.1774  0.0560
29401W        W36001  20.820   5.370  31.140 -0.1197  0.2783  0.0500
29402W        W36002   7.339   2.089  18.819 -0.0090  0.1215  0.0336
29403W        W36003  22.590   4.645  10.505  0.2284  0.1360 -0.2330
29404W        W36004  22.767   0.367  31.755 -0.3343  0.0698 -0.1690
29405W        W36005   2.720   1.167  29.702 -0.0865  0.2167 -0.2163
29406W        W36006   3.610   6.209  26.789  0.1849  0.0731  0.0536
29407W        W36007  18.843   0.651   2.294 -0.0017 -0.1171  0.2351
29408W        W36008  18.542   7.050  28.598 -0.0005  0.2369  0.0924
29409W        W36009  10.011   7.413  21.536  0.1649  0.0629  0.0071
29410W        W36010  11.146   7.015   2.737 -0.2358 -0.0676  0.2174
29411W        W36011  17.048   5.917   9.685  0.0188  0.1960  0.0688
29412W        W36012   8.793   4.608  15.423 -0.0133  0.1760  0.3199
29413W        W36013  16.395   5.564  29.793 -0.1882  0.0954  0.0568
29414W        W36014  14.556   3.651  27.118 -0.3858 -0.0275 -0.3404
29415W        W36015   3.101   6.629   7.386  0.0190 -0.4343  0.2322
29416W        W36016   4.661   3.824  24.211  0.1163 -0.1631 -0.1055
29417W        W36017  11.064   4.695  31.327 -0.0694 -0.0996 -0.0734
29418W        W36018   0.208   1.040   8.660 -0.1433  0.1066 -0.0145
29419W        W36019   5.968   2.609   0.835 -0.2822 -0.0601  0.1451
29420W        W36020  17.784   2.753   8.517  0.1812  0.1327 -0.0513
29421W        W36021  24.357   4.043   4.487 -0.1019 -0.3892 -0.0778
29422W        W36022  15.348   5.728  10.529  0.1164  0.1788  0.1294
29423W        W36023   8.521   0.423  15.425 -0.1845  0.2818 -0.1634
29424W        W36024   3.511   5.612  31.678  0.0480 -0.1456  0.3717
29425W        W36025  11.101   4.059   5.479  0.1461  0.0717 -0.0521
29426W        W36026   4.676   1.310   4.361  0.2061  0.1877  0.0832
29427W        W36027   2.553   5.419  20.034  0.0516  0.1573  0.1087
29428W        W36028  19.994   4.272  32.058 -0.1357  0.3675 -0.0033
29429W        W36029   2.159   0.619   6.555 -0.0759 -0.0928  0.3081
29430W        W36030  14.599   6.779  13.522  0.1436  0.0471  0.2479
29431W        W36031  20.130   4.582   2.014 -0.1909  0.2968 -0.0942
29432W        W36032   8.303   2.002  31.300  0.4753  0.2456  0.0612
29433W        W36033   8.995   3.363  24.136 -0.0202 -0.0441  0.0963
29434W        W36034  14.179   7.294   3.813  0.3513  0.1045 -0.2894
29435W        W36035   4.345   6.515  29.755 -0.1137  0.1170 -0.0725
29436W        W36036  13.592   4.163  11.815 -0.3821  0.0986  0.0418
29437W        W36037  22.397   3.463   6.221  0.0838  0.0415 -0.1497
29438W        W36038  10.815   0.506  23.998 -0.0576 -0.0967 -0.0057
29439W        W36039  23.663   0.166  31.932 -0.1896 -0.4145  0.0110
29440W        W36040   3.942   5.720   3.718  0.1979 -0.1613  0.0474
29441W        W36041  23.464   7.662  10.093 -0.0130  0.0329 -0.1319
29442W        W36042  16.439   0.356   2.945 -0.0757 -0.1759 -0.1117
29443W        W36043  20.944   4.683   3.564  0.0895  0.2420 -0.2984
29444W        W36044   0.774   3.863   6.956 -0.2137 -0.2591 -0.2722
29445W        W36045  20.229   2.697  29.760  0.0008 -0.6666 -0.3071
29446W        W36046   1.029   6.579   3.555 -0.0902 -0.1492  0.4565
29447W        W36047   7.974   2.949   2.650 -0.1676  0.1853  0.0545
29448W        W36048   6.810   1.135  30.797 -0.0132  0.1591 -0.1669
29449W        W36049   2.497   2.533  16.394  0.0939  0.1638 -0.0851
29450W        W36050   7.944   1.092  16.437  0.1719  0.1367 -0.1190
29451W        W36051  24.236   6.382  10.859 -0.2355 -0.1082  0.1705
29452W        W36052  10.644   4.781   9.172 -0.1188  0.1081 -0.0757
29453W        W36053  21.005   0.730   3.027 -0.0772  0.3897 -0.0985
29454W        W36054  21.070   5.548   1.988  0.0121 -0.1013  0.0849
29455W        W36055   5.226   7.642  24.921  0.1738 -0.0477 -0.1378
29456W        W36056  17.614   2.702  25.029  0.2391 -0.0763 -0.0466
29457W        W36057  23.128   5.452   3.471  0.0699  0.0060 -0.1586
29458W        W36058  16.113   0.144  22.908  0.0968  0.1893 -0.0006
29459W        W36059   4.078   4.881  22.513  0.1327 -0.0816 -0.1504
29460W        W36060  23.225   0.149  31.545 -0.0027  0.0595  0.0691
29461W        W36061   2.989   7.025  16.585  0.0983  0.3802 -0.0763
29462W        W36062   0.737   0.044  28.440  0.1353  0.1839 -0.0684
29463W        W36063  15.589   3.580  28.321  0.1560  0.5586 -0.1901
29464W        W36064   1.464   4.581   1.793  0.3105 -0.2562 -0.0863
29465W        W36065   3.576   3.836  24.676  0.1099  0.3100  0.2503
29466W        W36066  12.350   1.391   2.297 -0.2733 -0.0246 -0.1382
29467W        W36067  19.674   6.122   2.623 -0.0742  0.0089 -0.0619
29468W        W36068  20.222   5.214  16.457 -0.1171 -0.0241  0.0436
29469W        W36069  10.701   2.538  28.059 -0.3743  0.3005 -0.0339
29470W        W36070   8.341   5.946   3.926  0.0506  0.0349 -0.3257
29471W        W36071   3.489   3.611   8.868  0.0483 -0.0011 -0.2279
29472W        W36072   2.077   2.198  19.378 -0.0877  0.0297  0.0424
29473W        W36073   0.311   1.170   4.269 -0.0150  0.0648 -0.1978
29474W        W36074  18.111   2.824  10.399  0.0838 -0.1333  0.3678
29475W        W36075  11.860   4.951  28.927  0.1575  0.1284 -0.2088
29476W        W36076  13.793   6.225  22.423  0.1589 -0.1988 -0.1079
29477W        W36077  20.410   2.095  28.146 -0.2060 -0.0255 -0.2315
29478W        W36078   0.969   4.173   7.511 -0.0111  0.1106 -0.2351
29479W        W36079  18.289   7.115  22.415  0.3320  0.0345 -0.2683
29480W        W36080  22.171   3.692  31.241 -0.2514  0.4245 -0.0026
29481W        W36081   1.123   2.048  20.471 -0.0409 -0.2289 -0.0308
29482W        W36082  17.036   0.003  27.280  0.2876  0.1859  0.0330
29483W        W36083  11.557   4.859  20.482  0.4368 -0.3041 -0.1439
29484W        W36084  10.211   6.504  24.757  0.0598  0.0956 -0.0166
29485W        W36085   0.314   3.831   2.536 -0.3216 -0.1208 -0.0602
29486W        W36086   6.153   6.865  16.856 -0.0191  0.1754  0.1118
29487W        W36087   2.006   3.146   2.122  0.2839  0.0545 -0.1075
29488W        W36088   4.914   4.883  21.633 -0.0656  0.2631  0.0204
29489W        W36089  14.904   0.090  25.538  0.4739  0.3305  0.0996
29490W        W36090  21.157   2.486   6.108  0.2511 -0.0730 -0.0251
29491W        W36091   9.554   0.223  20.019 -0.2385 -0.0036 -0.0265
29492W        W36092  12.140   2.504  22.317  0.2253  0.0047 -0.1037
29493W        W36093  16.486   6.603  14.057  0.1470 -0.1171 -0.2222
29494W        W36094   5.502   6.073  17.147 -0.0750  0.1473  0.2689
29495W        W36095  24.919   1.307   8.157  0.4909  0.2993  0.2448
29496W        W36096   4.941   4.855  28.010  0.1140 -0.1462  0.1463
29497W        W36097  13.773   0.575   9.316 -0.2220  0.2606  0.1292
29498W        W36098  13.072   1.913  22.554  0.2639 -0.1985 -0.2164
29499W        W36099   5.922   5.891  27.812 -0.0945  0.1136  0.1129
29500W        W36100  17.040   4.679   6.785  0.1669  0.0494  0.3310
29501W        W36101  18.608   7.608  24.201 -0.0520  0.0636  0.2710
29502W        W36102  21.783   2.973   6.823 -0.3189  0.1191  0.1327
29503W        W36103  24.246   2.836  26.472  0.1704 -0.0802  0.0755
29504W        W36104  21.315   2.073   5.202  0.0324  0.2765  0.0415
29505W        W36105   1.811   5.213   4.291  0.1284  0.1941 -0.2574
29506W        W36106   0.537   3.111   3.142  0.4144 -0.2159  0.0738
29507W        W36107   2.145   6.865  22.252  0.0940  0.2866 -0.1774
29508W        W36108  19.173   2.554  24.876 -0.3269 -0.2940 -0.2516
29509W        W36109  14.778   3.834  28.757 -0.2364  0.0851  0.0965
29510W        W36110  18.862   7.220   3.883  0.0513  0.0476  0.1381
29511W        W36111  22.236   5.287  28.089  0.0096  0.0189 -0.0982
29512W        W36112  23.185   3.739   2.454  0.0184 -0.0970  0.0337
29513W        W36113   8.201   5.902   8.227  0.0924  0.1868 -0.2095
29514W        W36114   9.990   3.903  23.243 -0.0929 -0.3450 -0.0044
29515W        W36115   3.507   0.722   6.103  0.0738  0.1539 -0.0397
29516W        W36116   2.139   6.029  25.410 -0.4712 -0.1197  0.0740
29517W        W36117   6.996   1.047  16.969 -0.0127 -0.0418 -0.1374
29518W        W36118   5.983   4.503  25.727  0.2159 -0.1333 -0.0708
29519W        W36119  24.670   6.291  13.473 -0.0597 -0.1263  0.3026
29520W        W36120  19.206   2.388  12.510  0.1478  0.0503  0.2789
29521W        W36121  21.613   3.666   1.544 -0.2111 -0.0216 -0.0752
29522W        W36122  17.676   3.290  32.119  0.0393 -0.2818 -0.0258
29523W        W36123  24.978   6.792   8.941  0.2562 -0.1777  0.2846
29524W        W36124   5.422   2.849   3.636 -0.1559 -0.1545 -0.4371
29525W        W36125   2.881   7.399  32.565  0.2070 -0.0314 -0.2180
29526W        W36126  17.994   2.580   8.064  0.0687  0.2376 -0.1085
29527W        W36127  15.269   5.570  14.505  0.3080 -0.0050 -0.0267
29528W        W36128   4.724   4.425  17.199  0.1953 -0.1766  0.2183
29529W        W36129  24.558   7.523  28.920  0.0085  0.2474  0.3809
29530W        W36130  24.924   1.408  31.479  0.1636  0.1224  0.2616
29531W        W36131  24.698   7.363  24.311  0.0357 -0.0455  0.2154
29532W        W36132  23.822   7.703  26.632 -0.0305  0.0184 -0.1552
29533W        W36133  21.372   7.273   6.928  0.2039 -0.1465  0.0115
29534W        W36134   6.415   1.882   3.676 -0.3532 -0.0957 -0.0715
29535W        W36135  14.597   7.644  24.383  0.1566  0.1030 -0.2332
29536W        W36136   2.777   6.337   1.101  0.1442  0.1113  0.2072
29537W        W36137   4.375   1.074  31.055  0.0601 -0.2728 -0.3564
29538W        W36138   6.053   4.230  20.464 -0.2268 -0.0337  0.1195
29539W        W36139   1.551   3.984  29.635  0.0345 -0.0303 -0.0421
29540W        W36140  17.489   6.651   6.321 -0.4230  0.1208  0.1582
29541W        W36141  16.723   5.501  16.039 -0.1039  0.3145 -0.1555
29542W        W36142  11.436   1.885  20.100  0.2269  0.2096 -0.1022
29543W        W36143  22.007   2.277  23.879  0.1769  0.0470 -0.0658
29544W        W36144   2.995   5.209  20.001 -0.1474 -0.1553  0.0588
29545W        W36145   1.716   0.063   4.609  0.0507  0.1631 -0.0683
29546W        W36146  16.090   1.196   4.560  0.1950 -0.1934 -0.4824
29547W        W36147   6.359   5.873  21.315  0.0831 -0.0281 -0.0605
29548W        W36148   2.019   4.465   0.882 -0.0133  0.3564 -0.1888
29549W        W36149  23.870   4.450  23.530 -0.0760 -0.0409  0.1768
29550W        W36150  19.499   0.870  30.964 -0.0110 -0.2429  0.0212
29551W        W36151  13.141   6.526   2.095  0.0304 -0.0197 -0.1117
29552W        W36152  23.878   6.697  15.015  0.1574 -0.3842 -0.1053
29553W        W36153  12.788   6.319  26.224  0.0111  0.0574  0.1778
29554W        W36154  11.131   5.488  26.032  0.0240 -0.1361  0.2905
29555W        W36155  13.215   6.238   4.529  0.2048 -0.1613 -0.0395
29556W        W36156   0.355   0.652  30.699 -0.0407  0.1443 -0.3751
29557W        W36157   0.949   1.724  20.114 -0.5947  0.3073 -0.1539
29558W        W36158  18.105   2.298  11.776  0.2892 -0.0804  0.0220
29559W        W36159   0.439   3.041  20.299  0.2175  0.0131 -0.0162
29560W        W36160  15.392   3.767  10.711  0.4266 -0.1130 -0.2972
29561W        W36161   5.923   1.116  18.714 -0.1644 -0.2036 -0.3967
29562W        W36162  15.996   2.369  29.077 -0.1674 -0.0258  0.0031
29563W        W36163  23.377   3.786   3.329  0.1006 -0.0646  0.2200
29564W        W36164   4.908   6.968   1.781 -0.0310 -0.1352 -0.1145
29565W        W36165   4.038   0.723   3.823 -0.0884  0.1256 -0.1845
29566W        W36166   4.642   5.796  17.086  0.0558  0.3076 -0.1115
29567W        W36167   9.749   1.934  28.884 -0.3004 -0.0064  0.2666
29568W        W36168  22.505   1.605  21.885  0.0515 -0.1028 -0.2196
29569W        W36169   8.825   2.875  23.152 -0.1147  0.2146 -0.0302
29570W        W36170  24.151   4.332  22.589 -0.1124  0.1725 -0.0318
29571W        W36171  17.235   2.825  27.915  0.0289  0.2358 -0.2021
29572W        W36172  24.437   2.525  10.018  0.2374 -0.2342 -0.4891
29573W        W36173  19.811   2.865  16.853  0.1819  0.0531 -0.0088
29574W        W36174  21.481   5.219   4.570 -0.1218  0.0757 -0.1994
29575W        W36175  13.857   3.510  29.687 -0.0304  0.1451  0.2666
29576W        W36176   8.036   3.491   7.669  0.1206 -0.3723  0.0879
29577W        W36177  24.685   5.268   5.851 -0.0154 -0.0045 -0.1337
29578W        W36178  20.444   3.996  28.277 -0.1057  0.3272  0.1565
29579W        W36179   4.482   0.326  23.791  0.0777 -0.0612 -0.3363
29580W        W36180  24.903   0.721   0.110  0.0954 -0.0541 -0.3781
29581W        W36181  18.735   1.385   1.225  0.3080 -0.3956 -0.0387
29582W        W36182   4.245   6.093   1.056 -0.0401  0.2550  0.0354
29583W        W36183  11.398   4.683  20.032  0.3199 -0.3633 -0.2234
29584W        W36184  22.106   5.184   9.510  0.0538 -0.1006 -0.2016
29585W        W36185  14.517   0.628  26.907  0.1489  0.0817  0.3078
29586W        W36186  13.109   3.489  29.064  0.3048 -0.0039 -0.1992
29587W        W36187   8.146   0.995  24.562 -0.0378  0.0253  0.0992
29588W        W36188   5.819   3.008  18.904  0.0110  0.1285 -0.1702
29589W        W36189   8.792   2.692   7.702  0.0696  0.0639 -0.2242
29590W        W36190   1.685   1.159  25.293 -0.0123 -0.1144 -0.0017
29591W        W36191  15.180   7.649  31.080  0.2171 -0.2037  0.0627
29592W        W36192   9.587   4.043   8.222  0.0334  0.0462  0.2834
29593W        W36193   9.426   1.080  29.720 -0.0461  0.0061  0.0456
29594W        W36194  14.085   5.205   2.660  0.1899 -0.0522  0.1685
29595W        W36195  13.068   0.065  27.367  0.0157  0.0490 -0.1088
29596W        W36196  20.193   6.281   0.042  0.0434 -0.1717  0.1008
29597W        W36197   1.554   0.936   9.299 -0.1048 -0.3600  0.0376
29598W        W36198  20.355   4.160  26.495 -0.1429  0.1450  0.2807
29599W        W36199  20.347   4.888  28.635 -0.0722 -0.0104 -0.2899
29600W        W36200   4.820   3.797  25.996  0.3086 -0.0458  0.2886
29601W        W36201  15.526   7.649  13.218  0.1270 -0.1879 -0.1797
29602W        W36202  20.413   6.615   1.309 -0.1268  0.2892  0.0621
29603W        W36203   3.439   2.315   2.810 -0.0557 -0.1541 -0.0436
29604W        W36204   1.399   2.151   3.881  0.1737 -0.0927  0.0707
29605W        W36205  19.905   0.361   3.781 -0.2079 -0.0570  0.1578
29606W        W36206  18.319   7.512   1.860  0.1139  0.0942  0.2496
29607W        W36207   8.090   0.486  23.039  0.0199 -0.0532  0.2684
29608W        W36208  17.473   5.515  30.583 -0.1220  0.0954 -0.0821
29609W        W36209  13.775   2.013   1.125  0.2538 -0.2659 -0.1849
29610W        W36210  21.052   6.556  23.304 -0.0193  0.0661  0.1970
29611W        W36211   1.579   4.366  28.321  0.1270  0.3121  0.0593
29612W        W36212   7.011   1.837   2.414 -0.1336 -0.0273 -0.1031
29613W        W36213  18.162   6.714   8.363 -0.1346 -0.0464  0.2731
29614W        W36214   2.557   1.762  27.382  0.3314  0.1770  0.0634
29615W        W36215   8.633   1.766  22.333 -0.1748 -0.0291  0.3233
29616W        W36216   6.020   5.425   2.979 -0.1244  0.2137  0.1260
29617W        W36217  12.565   3.871   9.008 -0.1332  0.3121 -0.0328
29618W        W36218   5.553   4.573  20.222 -0.2515  0.0051  0.1367
29619W        W36219   7.454   4.583  24.910 -0.3215 -0.1377  0.1344
29620W        W36220   6.405   2.334   9.386 -0.0132  0.1910 -0.1715
29621W        W36221  16.808   1.304  15.940 -0.0667  0.1233 -0.0234
29622W        W36222  23.972   4.595   0.888  0.1423  0.3679 -0.0509
29623W        W36223  12.382   1.282  12.012 -0.0394 -0.1596  0.0694
29624W        W36224  13.911   4.310   5.821  0.0120 -0.0119 -0.1496
29625W        W36225   8.387   4.899   6.214 -0.2597 -0.1545 -0.1229
29626W        W36226  21.344   5.530   0.444  0.0863  0.0728  0.2623
29627W        W36227   8.066   6.424  15.977 -0.1209 -0.0434 -0.0692
29628W        W36228  23.376   6.042   7.184 -0.1940  0.2858  0.2158
29629W        W36229  22.244   0.228  13.502 -0.0054 -0.2335  0.0489
29630W        W36230  19.088   4.120  24.321 -0.3158 -0.4127  0.1330
29631W        W36231  12.833   4.671  26.851 -0.2948  0.0527  0.1218
29632W        W36232   1.347   5.179  23.126  0.0922 -0.0150 -0.2667
29633W        W36233  13.162   5.705   3.162 -0.0213 -0.1292 -0.2444
29634W        W36234  17.877   5.086  23.623  0.1331  0.2032  0.1128
29635W        W36235  20.455   7.798  22.706  0.1349  0.0612  0.1993
29636W        W36236  14.893   3.432   3.969  0.3200  0.1156  0.0055
29637W        W36237  11.429   5.280  24.118  0.2422  0.2162  0.1435
29638W        W36238   5.386   6.020  27.988 -0.0865  0.1404  0.0838
29639W        W36239   3.167   0.536  24.837 -0.1462  0.0344 -0.0206
29640W        W36240   4.293   6.015   7.066 -0.0561 -0.0797 -0.2069
29641W        W36241  16.516   7.775  25.015 -0.0455  0.0909  0.0288
29642W        W36242   1.927   2.712  27.191 -0.1970  0.0202  0.4052
29643W        W36243  21.710   0.515  14.070 -0.3841 -0.1165 -0.0100
29644W        W36244   9.370   3.207   9.781 -0.0110  0.2547  0.1123
29645W        W36245   6.280   6.337   1.729  0.2972 -0.0097  0.3081
29646W        W36246   1.328   4.887  22.496  0.0566 -0.2391 -0.1061
29647W        W36247  16.069   0.626   9.855 -0.0154  0.1085  0.0000
29648W        W36248  19.611   0.446  10.967  0.0966 -0.0939 -0.0186
29649W        W36249  13.540   3.070  20.327  0.1156 -0.4483  0.0367
29650W        W36250  15.725   4.659   6.934 -0.1001  0.1678  0.0770
29651W        W36251   9.039   0.740  18.555 -0.0632 -0.0921  0.0062
29652W        W36252   1.613   4.518   3.547 -0.3044  0.3021  0.2495
29653W        W36253  22.354   3.210   5.657  0.1179  0.1739  0.0283
29654W        W36254  22.994   6.287  29.820 -0.0300 -0.2917  0.1212
29655W        W36255  23.702   2.433   5.834  0.0883 -0.1596 -0.3210
29656W        W36256   2.125   7.393  19.056 -0.0749 -0.0435  0.1299
29657W        W36257  21.347   6.321   0.344  0.1807  0.0402  0.3066
29658W        W36258   7.600   6.341  26.307  0.1112  0.1375 -0.0823
29659W        W36259  11.478   1.388  10.442  0.1107  0.1265 -0.1386
29660W        W36260  10.028   6.354  29.591  0.0201 -0.2277 -0.2405
29661W        W36261  17.247   4.931  15.363 -0.0932 -0.0233 -0.2491
29662W        W36262   6.667   1.318   9.780  0.2508  0.2786 -0.4416
29663W        W36263   2.825   1.060  20.027  0.2917 -0.2419  0.5045
29664W        W36264  21.822   0.693   1.355  0.0618  0.4853 -0.1348
29665W        W36265  14.276   0.002  24.721 -0.1031  0.0524 -0.0111
29666W        W36266   2.394   7.214  25.444  0.1175 -0.0170 -0.1502
29667W        W36267  10.176   0.795  20.062  0.1714 -0.1674 -0.0706
29668W        W36268   7.369   3.904  23.404 -0.2271 -0.1299 -0.1841
29669W        W36269  22.757   3.421  31.972 -0.0877  0.5142  0.2801
29670W        W36270  17.539   5.648   7.922 -0.1652 -0.1190  0.1004
29671W        W36271   4.667   5.884   3.732  0.0124 -0.0119 -0.0857
29672W        W36272   7.924   0.754   0.603  0.3692 -0.0605  0.0051
29673W        W36273  16.176   5.099   6.522 -0.4248  0.0834 -0.2620
29674W        W36274  12.085   5.604   0.481  0.1914 -0.3438 -0.2778
29675W        W36275   6.543   0.579  24.483  0.0822 -0.2946 -0.1156
29676W        W36276   5.410   2.630  20.974 -0.2336  0.1155 -0.2444
29677W        W36277  14.784   6.593   7.076  0.0547 -0.2462 -0.0486
29678W        W36278   8.339   2.620   0.046 -0.0887  0.3127 -0.1686
29679W        W36279  15.543   5.397  11.304 -0.2445  0.1716 -0.1861
29680W        W36280   3.033   4.088  19.318 -0.0191  0.0678 -0.0806
29681W        W36281  16.825   3.618  24.900 -0.1530  0.2445 -0.2941
29682W        W36282  20.471   6.951   9.619  0.0373 -0.1120 -0.0116
29683W        W36283  10.135   5.046   1.822 -0.3722  0.1299  0.2281
29684W        W36284   0.229   6.230  30.270 -0.0060  0.1424 -0.3684
29685W        W36285   9.911   7.537  28.900 -0.2684 -0.1232 -0.1329
29686W        W36286  10.711   5.761   1.840  0.1559  0.1124  0.1609
29687W        W36287   5.828   1.072  27.928  0.1734 -0.4673 -0.0345
29688W        W36288  14.127   2.263  30.619 -0.1175  0.2341  0.0092
29689W        W36289  18.645   4.646  31.178  0.0267  0.3488  0.0929
29690W        W36290  18.412   3.856  22.914  0.0765  0.1502 -0.0056
29691W        W36291   4.913   2.590  10.127 -0.1467 -0.0497  0.0467
29692W        W36292   7.474   0.534  25.452 -0.2496  0.2653  0.1166
29693W        W36293   7.120   2.811  31.058 -0.2987  0.1306 -0.0232
29694W        W36294  16.151   6.742  10.916  0.1295 -0.0500  0.0231
29695W        W36295   3.629   0.776  26.421  0.0156  0.0845  0.1449
29696W        W36296  10.303   0.965   9.793 -0.2116 -0.2865 -0.0220
29697W        W36297  19.842   5.913  25.334  0.2401  0.0119  0.1411
29698W        W36298  19.726   3.227  27.408 -0.1422 -0.1843 -0.1012
29699W        W36299  18.104   4.460   6.830  0.1230 -0.0737 -0.2536
29700W        W36300  12.601   4.779  10.102 -0.0065 -0.0921 -0.2245
29701W        W36301  16.939   5.367  13.829  0.0283 -0.1029 -0.1354
29702W        W36302   2.042   4.254  28.569 -0.0699 -0.0519 -0.0408
29703W        W36303   8.360   5.007  31.957 -0.1747  0.1273  0.3102
29704W        W36304  13.581   2.845  21.508  0.1416  0.1093  0.1621
29705W        W36305   5.416   5.963  20.210  0.1126  0.0893  0.0048
29706W        W36306  12.327   3.437   3.132 -0.0445  0.2246 -0.0430
29707W        W36307   1.246   7.094  10.382 -0.2510 -0.1077 -0.3541
29708W        W36308   5.915   6.987  26.462 -0.4147 -0.1393  0.1272
29709W        W36309   8.730   0.304   6.075  0.0074 -0.2095 -0.2353
29710W        W36310   6.304   6.038  24.784  0.1380 -0.0001 -0.0478
29711W        W36311   3.781   2.556  23.240 -0.2354  0.0305 -0.1342
29712W        W36312  10.974   4.986  19.089 -0.0179  0.0255  0.3492
29713W        W36313   7.181   3.851   8.764  0.1809  0.0341  0.1006
29714W        W36314  20.336   3.145   0.147 -0.1400  0.1047  0.0563
29715W        W36315  24.618   2.802   9.454  0.1456  0.2143 -0.0343
29716W        W36316  14.816   2.875  23.804 -0.0876  0.1241 -0.0622
29717W        W36317   4.069   5.591  19.592 -0.3059  0.2149  0.2726
29718W        W36318  19.585   2.694   2.984 -0.0214  0.1196 -0.2064
29719W        W36319  19.173   4.326  23.783 -0.0082 -0.0505  0.0667
29720W        W36320  21.734   0.862  29.202 -0.4091 -0.1639 -0.3296
29721W        W36321   4.814   1.833   0.083 -0.0696 -0.0021  0.1972
29722W        W36322  10.600   0.949  29.506 -0.1387 -0.2497 -0.0859
29723W        W36323   8.534   6.842  20.917  0.1078  0.1233 -0.0113
29724W        W36324   2.863   4.097  24.106 -0.0156 -0.2168 -0.0826
29725W        W36325  15.794   4.551   9.229  0.0992 -0.1424  0.1193
29726W        W36326   6.267   3.375  19.875  0.2167  0.0358 -0.0702
29727W        W36327   6.520   6.656  27.551 -0.0794  0.0398 -0.0404
29728W        W36328   3.477   2.633   9.771  0.0888  0.1619  0.2219
29729W        W36329  20.839   3.987  13.127 -0.4096 -0.2312 -0.1690
29730W        W36330  14.952   4.272  30.958 -0.1420  0.0507 -0.0441
29731W        W36331  17.039   5.482  27.881 -0.1424  0.3170  0.2579
29732W        W36332   4.879   6.277  29.248  0.0682  0.0478 -0.0440
29733W        W36333   6.169   3.976   4.748  0.1616  0.1029  0.2940
29734W        W36334  14.338   6.347   3.145 -0.1572  0.3201  0.1542
29735W        W36335   1.812   5.937   9.409  0.1216 -0.2047 -0.1474
29736W        W36336  10.281   2.011   4.749  0.1009 -0.0839 -0.1000
29737W        W36337  10.589   6.953  27.465 -0.1839  0.1993 -0.0364
29738W        W36338  21.881   2.134   9.267 -0.1329  0.4290 -0.0928
29739W        W36339  14.729   7.316   4.352 -0.0295 -0.0095 -0.0851
29740W        W36340   8.921   2.330   6.061 -0.2048  0.4306 -0.3140
29741W        W36341  18.793   5.847  29.435 -0.1899 -0.0429 -0.1717
29742W        W36342   7.399   4.659   2.739  0.1216  0.1483  0.0954
29743W        W36343  14.572   4.331   0.089  0.0445  0.2086  0.0746
29744W        W36344  16.742   7.060   6.947 -0.0113  0.2376  0.0326
29745W        W36345   6.679   5.572   9.214 -0.0688 -0.0297 -0.0442
29746W        W36346   2.693   5.268   1.720 -0.1887 -0.3568  0.2485
29747W        W36347   1.510   7.042   2.895 -0.0167 -0.0718  0.1144
29748W        W36348   4.117   4.670   2.813  0.0518 -0.1659  0.1916
29749W        W36349  24.572   4.588  24.622  0.5165 -0.1174 -0.0164
29750W        W36350   8.345   1.131   0.445  0.3766  0.3422 -0.0675
29751W        W36351  19.024   7.023  11.469 -0.0381 -0.5130  0.0458
29752W        W36352  15.732   3.570  13.889 -0.0204 -0.0864 -0.0760
29753W        W36353  21.022   3.678  24.840  0.1658  0.0036 -0.0439
29754W        W36354  14.199   7.001  26.736 -0.2349 -0.0034 -0.1661
29755W        W36355  16.493   3.567  31.086 -0.0355 -0.1322 -0.1138
29756W        W36356  10.061   0.914   4.530 -0.3808 -0.4249 -0.2397
29757W        W36357  13.979   7.371   2.079  0.0527  0.2162 -0.2673
29758W        W36358  21.695   1.755  29.426  0.2050  0.0646  0.2748
29759W        W36359  11.089   1.295   6.094 -0.1178  0.2106  0.2298
29760W        W36360   7.690   0.211  22.878  0.2243 -0.1488 -0.0307
29761W        W36361  16.745   4.493   3.697 -0.2143 -0.2790  0.2295
29762W        W36362  16.802   4.351  31.177 -0.1958 -0.0959 -0.2696
29763W        W36363   3.942   7.594  29.002 -0.0138  0.1013 -0.2310
29764W        W36364   5.452   2.077   1.958  0.2902  0.1563  0.2528
29765W        W36365   4.672   2.584  24.765  0.2639 -0.0732  0.2955
29766W        W36366  21.546   3.310  22.402 -0.1366 -0.1348 -0.0405
29767W        W36367  19.349   3.139  32.449  0.0018 -0.2562  0.0660
29768W        W36368  14.185   1.345   6.702  0.0634 -0.3009 -0.1435
29769W        W36369  19.953   2.262   0.299 -0.1054  0.0614 -0.1308
29770W        W36370   1.508   2.816  26.853  0.2093 -0.0334 -0.1385
29771W        W36371  15.470   2.568   8.414  0.1081 -0.2035 -0.2197
29772W        W36372  23.711   2.862  13.987 -0.0502  0.1734 -0.0010
29773W        W36373  23.958   5.584   7.202 -0.2550  0.1546  0.1218
29774W        W36374  21.799   0.758  31.960  0.1208  0.0612  0.0692
29775W        W36375   4.346   2.599  25.557 -0.0906  0.0989 -0.0413
29776W        W36376  19.485   6.240   4.865 -0.1509  0.0101  0.2426
29777W        W36377   8.570   7.153   3.383  0.0785 -0.0786  0.3547
29778W        W36378  20.758   2.468  10.415  0.0368 -0.2115  0.1496
29779W        W36379  11.559   5.718  25.052 -0.2232 -0.0074  0.2930
29780W        W36380   7.393   4.790   7.000 -0.2839  0.0580 -0.1657
29781W        W36381  19.201   6.835  29.178  0.0869  0.1293 -0.2696
29782W        W36382  15.728   0.383   4.997 -0.1573  0.2262  0.2069
29783W        W36383   3.787   3.170  18.047  0.0092  0.1876  0.2336
29784W        W36384   3.509   4.528   5.362 -0.3166  0.0115  0.3094
29785W        W36385   2.760   0.530  23.584 -0.0723  0.1966 -0.0459
29786W        W36386   6.348   2.913   6.290  0.0783  0.2627  0.0428
29787W        W36387  20.269   7.824  27.395  0.0644 -0.1591  0.5535
29788W        W36388  24.980   5.987  10.426  0.1970  0.1761  0.1452
29789W        W36389  16.301   3.274   1.699 -0.3386 -0.0584 -0.3107
29790W        W36390  18.946   5.374  22.345  0.0386  0.0835 -0.0359
29791W        W36391  12.953   6.483   6.121  0.2591  0.2010  0.4040
29792W        W36392  10.102   6.251  18.283  0.1208 -0.1986  0.0709
29793W        W36393  16.332   0.202   4.187 -0.0040  0.0835 -0.0376
29794W        W36394   9.731   0.054  24.491  0.1569  0.1242 -0.1314
29795W        W36395  13.129   5.192  19.638  0.0980 -0.2315  0.1256
29796W        W36396   9.395   2.625   9.002 -0.1480 -0.0699 -0.2606
29797W        W36397  13.290   5.935  31.785  0.3774  0.2040 -0.2155
29798W        W36398  22.594   0.055   7.152  0.0531  0.0245  0.1724
29799W        W36399  12.524   0.670   3.609 -0.1028 -0.0930  0.2228
29800W        W36400  11.679   7.114   3.080 -0.3145 -0.3966  0.0833
29801W        W36401  10.459   7.282  21.906 -0.0609  0.1182  0.0553
29802W        W36402   3.789   2.533  22.403  0.1597 -0.1750 -0.0933
29803W        W36403   3.240   0.228  22.721  0.0848 -0.0470 -0.1385
29804W        W36404  10.440   1.478  29.732  0.2546 -0.2229 -0.0247
29805W        W36405  18.145   1.418  15.954 -0.2278  0.3543  0.1167
29806W        W36406   8.577   7.497  24.521 -0.2583  0.3120 -0.2861
29807W        W36407  11.403   1.830  18.790  0.2098  0.0117 -0.0164
29808W        W36408  24.689   1.739   2.236  0.4910 -0.1231 -0.4205
29809W        W36409  15.654   5.865  13.323  0.2179 -0.2377  0.0238
29810W        W36410   0.120   5.648  28.230  0.3625 -0.1910  0.0233
29811W        W36411  13.370   0.641  12.081  0.0813 -0.0627  0.1805
29812W        W36412   9.195   1.996  31.851 -0.0672 -0.0820 -0.1140
29813W        W36413   9.601   3.328  32.231 -0.1050  0.2941  0.1962
29814W        W36414   4.264   2.019  19.940 -0.2851  0.0621 -0.0460
29815W        W36415  21.951   3.059  15.198  0.0553 -0.0609  0.1030
29816W        W36416   6.684   5.993  27.094  0.0863 -0.1728 -0.0877
29817W        W36417  15.007   0.412  26.817  0.3951  0.1935 -0.0675
29818W        W36418  21.987   6.808   5.658 -0.1118 -0.3309 -0.2697
29819W        W36419   8.537   7.820  17.578 -0.3237 -0.0855 -0.0117
29820W        W36420  20.372   7.193   7.048  0.0468  0.0965 -0.0746
29821W        W36421  19.627   1.719  23.189 -0.0571  0.0217 -0.0129
29822W        W36422   2.668   5.262  31.882  0.1143  0.1198  0.2775
29823W        W36423  14.288   3.768  28.650 -0.3895  0.1261 -0.2824
29824W        W36424  18.684   3.248   6.764  0.0701 -0.1615  0.3883
29825W        W36425   4.469   5.715  16.104  0.0265  0.0783 -0.1865
29826W        W36426   7.446   4.277  15.131  0.1651 -0.0171  0.3301
29827W        W36427   4.897   6.578  17.857  0.2095  0.0088 -0.2282
29828W        W36428  10.213   5.891   1.376 -0.2307  0.0388  0.0156
29829W        W36429   3.298   6.418  17.931  0.1693  0.0080  0.2569
29830W        W36430   8.982   3.057   4.351 -0.3802  0.2361  0.1106
29831W        W36431  15.963   2.232   3.072 -0.1645  0.0404  0.1033
29832W        W36432   3.267   1.357  31.925  0.0916 -0.0423  0.0158
29833W        W36433  12.602   0.817   5.483  0.0868 -0.1051 -0.0228
29834W        W36434   6.305   4.121  27.272 -0.0127 -0.0258 -0.0251
29835W        W36435  16.607   0.844  23.448 -0.0791  0.3206 -0.0928
29836W        W36436   8.211   1.048  29.924  0.2249  0.3032 -0.3518
29837W        W36437  21.735   0.204   7.997  0.3871 -0.4475 -0.1136
29838W        W36438  19.199   5.597  28.030  0.1909  0.1451 -0.0316
29839W        W36439   4.513   0.174   4.424  0.3830  0.1103 -0.0784
29840W        W36440   6.882   6.814  28.112  0.0886 -0.4779  0.1155
29841W        W36441   3.449   7.726  24.537  0.0175 -0.1665 -0.0509
29842W        W36442   2.769   6.848   0.195  0.0907 -0.0639 -0.2648
29843W        W36443  18.382   5.371  28.581 -0.0743 -0.0839  0.0672
29844W        W36444  12.003   5.658  27.958  0.1713 -0.0866 -0.1931
29845W        W36445   2.954   6.511  18.336  0.2931  0.0669 -0.3510
29846W        W36446   6.774   1.673  20.743 -0.0677  0.3200  0.0913
29847W        W36447  24.288   0.700   7.808  0.0646 -0.0553 -0.1040
29848W        W36448  17.088   4.197   1.115 -0.1430  0.1312 -0.0923
29849W        W36449   9.900   4.355  25.084  0.0624  0.0013  0.0117
29850W        W36450   2.089   2.332  24.707 -0.1315  0.1806  0.1788
29851W        W36451  12.594   7.143  30.388 -0.0812  0.2765  0.0120
29852W        W36452   9.166   1.196  27.124  0.0258 -0.3733 -0.0472
29853W        W36453  18.675   5.139  13.992 -0.0703  0.3576 -0.0342
29854W        W36454   7.404   3.268  28.692 -0.0038 -0.0633  0.1779
29855W        W36455  16.736   6.510  14.862 -0.0066  0.0974  0.2881
29856W        W36456  11.305   2.291  10.544  0.1226 -0.4450  0.0052
29857W        W36457  23.290   5.611  26.754  0.2612 -0.1032 -0.0324
29858W        W36458  18.970   3.351  27.063  0.1884 -0.2263 -0.3515
29859W        W36459   4.639   1.524   6.445  0.0110 -0.1259 -0.1334
29860W        W36460  12.444   4.933  23.495  0.1364 -0.0697  0.1669
29861W        W36461  17.229   3.892  11.273  0.1876 -0.1401 -0.1558
29862W        W36462  16.619   1.199  10.660 -0.1312 -0.0282  0.1948
29863W        W36463  20.155   4.500   2.755  0.1780  0.1822  0.0632
29864W        W36464  16.555   3.247  29.906 -0.3748  0.1232  0.0763
29865W        W36465   7.109   7.225  17.270  0.2232 -0.0383 -0.1055
29866W        W36466  10.537   6.590   2.213  0.0308  0.0184  0.0930
29867W        W36467   8.665   6.994  28.661  0.3010  0.0940 -0.2576
29868W        W36468  19.090   3.854   7.318  0.0545 -0.1416  0.0628
29869W        W36469  22.326   4.901  10.835  0.0607  0.2032 -0.0902
29870W        W36470   2.550   0.087  20.194 -0.1089 -0.0549 -0.4153
29871W        W36471  23.202   4.872  26.910  0.2651  0.0132  0.0513
29872W        W36472  19.166   4.538  27.891  0.0707  0.0285 -0.0798
29873W        W36473   2.121   1.000   8.561 -0.1173  0.1064  0.1309
29874W        W36474  22.501   6.919   5.758 -0.0625  0.0883 -0.1838
29875W        W36475  18.269   3.057  31.515  0.2688  0.1741 -0.0355
29876W        W36476   0.476   6.379   8.766 -0.2022 -0.0677 -0.0134
29877W        W36477  24.477   0.927   1.015 -0.0953  0.0999 -0.1567
29878W        W36478  10.756   6.604  26.745 -0.1583  0.3070  0.0972
29879W        W36479  22.795   3.684   3.473  0.1047 -0.2057  0.1595
29880W        W36480  10.773   1.563   9.476 -0.1161  0.0839  0.0402
29881W        W36481  24.373   5.368   0.531  0.1019  0.1253  0.1389
29882W        W36482  11.916   2.088  23.245  0.1727 -0.0411 -0.0583
29883W        W36483  18.089   2.199  12.833 -0.0370 -0.0372 -0.1951
29884W        W36484  15.587   5.982   9.740 -0.0472 -0.0592  0.0667
29885W        W36485   6.235   2.068  19.859  0.1017  0.0944 -0.1278
29886W        W36486  16.477   3.500  11.576  0.3535  0.0115 -0.0020
29887W        W36487  20.750   3.683   0.668  0.2344  0.0631  0.1635
29888W        W36488  15.400   3.230  11.035 -0.1030  0.0795 -0.2655
29889W        W36489   8.035   4.218  21.828  0.1309  0.0917 -0.2763
29890W        W36490   0.094   5.953  11.652 -0.0571  0.0087  0.1022
29891W        W36491  10.272   1.781  23.844  0.3359  0.2112 -0.1149
29892W        W36492  22.168   4.613   7.225 -0.0859  0.1340 -0.2150
29893W        W36493  11.187   6.948  27.864  0.1848  0.1384 -0.0737
29894W        W36494   8.685   0.854  17.546  0.4057 -0.1747 -0.0557
29895W        W36495  14.525   3.554   8.053 -0.0516  0.3414 -0.0449
29896W        W36496   2.627   5.623  19.349  0.2688 -0.0233  0.2526
29897W        W36497   5.140   3.398  29.993  0.2611  0.0738 -0.0685
29898W        W36498  10.514   0.666  16.968 -0.1594 -0.0233  0.2566
29899W        W36499  21.203   3.694  24.246 -0.1222  0.2292 -0.1428
29900W        W36500   6.298   6.965   1.307 -0.0757 -0.0679  0.2291
29901W        W36501   9.858   6.525  25.517 -0.1393 -0.0384  0.2425
29902W        W36502   2.729   0.698   3.585 -0.1342 -0.0776 -0.1625
29903W        W36503   9.574   3.850  27.706 -0.3223  0.0370 -0.1303
29904W        W36504  21.580   1.793  28.082 -0.2883 -0.2113  0.0012
29905W        W36505  22.230   3.697  24.480 -0.1699 -0.0948  0.0484
29906W        W36506   1.770   2.873  19.889 -0.0107  0.2739 -0.2837
29907W        W36507   5.762   3.682  27.013 -0.2209  0.0403  0.1743
29908W        W36508  25.090   0.801  30.279  0.0481  0.0429  0.0906
29909W        W36509  16.928   2.730  11.738 -0.1651  0.0835 -0.1503
29910W        W36510   7.010   3.509  21.000 -0.0787 -0.0802  0.0978
29911W        W36511   7.603   2.404  20.092 -0.0817  0.0335  0.2517
29912W        W36512  17.068   0.290  29.311  0.0843  0.4221  0.2461
29913W        W36513   2.428   3.580  29.713 -0.0998 -0.0090  0.1094
29914W        W36514  15.142   2.448  30.909 -0.2985 -0.2125 -0.1619
29915W        W36515  23.049   7.073   1.365  0.1020  0.0641  0.0172
29916W        W36516  10.175   7.847  27.127  0.1656  0.2222 -0.2123
29917W        W36517   4.517   5.346  24.313 -0.1120 -0.0611 -0.1073
29918W        W36518  24.608   1.015   2.518  0.0698  0.4963 -0.2520
29919W        W36519  12.457   0.304  32.320  0.2384 -0.2079 -0.0420
29920W        W36520   6.984   3.556  17.638 -0.1464 -0.0200 -0.0968
29921W        W36521   7.968   1.049  26.394  0.2977 -0.0654 -0.1133
29922W        W36522  14.581   0.845   4.337 -0.0334 -0.2035 -0.2021
29923W        W36523  14.732   2.199  24.532 -0.3162  0.1556  0.0839
29924W        W36524   5.630   4.480  30.381  0.4821 -0.1107  0.0762
29925W        W36525  21.904   6.079  24.361 -0.0845  0.4316  0.0052
29926W        W36526  14.033   4.747   9.694 -0.1558  0.1007  0.0339
29927W        W36527   5.642   7.197  22.454 -0.0546 -0.0656  0.0899
29928W        W36528   8.399   4.987  16.251  0.3031 -0.0442  0.2825
29929W        W36529   8.976   6.016   2.239 -0.2029 -0.2147 -0.2123
29930W        W36530   7.511   0.528   1.382  0.1307  0.0832  0.0561
29931W        W36531  13.753   0.084  20.783 -0.3413  0.3713 -0.2143
29932W        W36532  22.046   4.992   1.279  0.2004 -0.1141  0.1513
29933W        W36533  20.265   7.831   4.067  0.1797 -0.1867  0.3493
29934W        W36534  22.573   1.838  30.233  0.1517 -0.1146 -0.0630
29935W        W36535  14.994   5.867   7.700  0.0654  0.4211 -0.3719
29936W        W36536  24.291   0.827  13.377  0.2577 -0.2027 -0.0574
29937W        W36537  20.036   1.232   2.139 -0.2771 -0.1584  0.4629
29938W        W36538  13.857   1.677  21.995 -0.1312  0.2153  0.0309
29939W        W36539   7.075   7.683  24.004 -0.0965 -0.0859  0.1968
29940W        W36540   8.057   6.371  26.517  0.3694 -0.3025  0.1136
29941W        W36541   1.758   6.571   1.280  0.0236 -0.2929  0.0294
29942W        W36542  21.695   1.929   7.014  0.0603  0.2330 -0.0195
29943W        W36543  21.185   5.206  26.049 -0.0890 -0.1608 -0.1961
29944W        W36544   4.462   0.544   4.725 -0.0320 -0.2179  0.1168
29945W        W36545   9.695   3.352   2.440  0.1495  0.0008 -0.0470
29946W        W36546  24.306   2.526   3.416 -0.0601  0.0656  0.0057
29947W        W36547   2.452   3.100   8.461 -0.0092 -0.1160 -0.0372
29948W        W36548   1.428   1.579  31.942  0.3456  0.0118  0.1276
29949W        W36549  22.324   4.102  29.218 -0.2459  0.1502 -0.0713
29950W        W36550  20.492   7.831  31.460 -0.3231  0.2297  0.0844
29951W        W36551  17.258   5.495  32.142 -0.1552  0.1099 -0.0548
29952W        W36552   8.005   6.624  18.691  0.0707  0.0653 -0.1457
29953W        W36553  15.838   7.666  23.272 -0.0712  0.2722  0.2523
29954W        W36554   8.008   4.292  31.344 -0.1142 -0.0840 -0.3193
29955W        W36555  24.135   1.441   1.644 -0.3288 -0.2959 -0.0294
29956W        W36556   0.280   1.004  22.020 -0.0191  0.0105  0.1735
29957W        W36557   4.581   0.089  26.033  0.0132  0.3072  0.1272
29958W        W36558   2.807   5.420  27.534  0.1954 -0.1020 -0.2820
29959W        W36559   6.755   6.976   2.134  0.0169  0.3212  0.1682
29960W        W36560   7.370   5.432  24.681 -0.2893 -0.0943  0.2102
29961W        W36561  20.880   3.704  12.012  0.0509 -0.0786 -0.4818
29962W        W36562   4.800   3.836  29.256  0.1512 -0.1221 -0.0699
29963W        W36563  16.820   3.891   0.853  0.1139  0.0573 -0.0984
29964W        W36564   3.681   5.592  28.578  0.0864 -0.2123 -0.0794
29965W        W36565  16.917   4.141  25.780  0.2661 -0.0631 -0.0483
29966W        W36566   1.976   2.067  25.193  0.0959 -0.0348  0.1893
29967W        W36567  14.540   0.144  21.750 -0.0100  0.1207 -0.2028
29968W        W36568  18.400   1.055  10.956  0.0102  0.4632 -0.0635
29969W        W36569  24.477   2.177   8.847  0.0984  0.0677 -0.0802
29970W        W36570   7.375   4.683   8.101 -0.0512  0.2724  0.0661
29971W        W36571   7.720   0.003   1.122 -0.0436  0.3232 -0.1305
29972W        W36572   1.787   0.609  19.820  0.2625 -0.1326 -0.1725
29973W        W36573  10.787   5.914  22.180 -0.5076  0.1510  0.0514
29974W        W36574   6.813   5.313  28.089  0.1781  0.2824 -0.1448
29975W        W36575   8.416   5.074   9.024 -0.0386  0.3101 -0.2586
29976W        W36576   4.170   3.723   3.813 -0.0104  0.0256  0.2368
29977W        W36577   3.028   4.311  31.821  0.0470 -0.3138  0.1131
29978W        W36578  13.343   5.316  23.226  0.1116  0.1797 -0.1021
29979W        W36579  10.910   7.009   0.724 -0.1527 -0.1823  0.1978
29980W        W36580  13.648   3.510   2.237  0.2418  0.0822 -0.1288
29981W        W36581  14.003   2.100   3.547  0.0059 -0.2287  0.1163
29982W        W36582   9.183   3.827   0.494 -0.0931  0.0706  0.0207
29983W        W36583  15.165   4.649  21.724 -0.0438 -0.2701  0.1148
29984W        W36584  12.837   6.601  31.374 -0.1377 -0.0910  0.1156
29985W        W36585  16.779   5.020   2.349  0.3152 -0.1084  0.4791
29986W        W36586   7.559   4.249  25.338  0.0799 -0.1114 -0.1683
29987W        W36587   9.527   7.518  15.657  0.2420  0.2306 -0.0791
29988W        W36588   2.020   0.741   4.911 -0.0670  0.0398 -0.6076
29989W        W36589  21.456   2.724   4.660  0.0943  0.0924  0.0307
29990W        W36590   2.251   4.938  25.818 -0.0578  0.2664 -0.0719
29991W        W36591  10.928   0.348  27.362  0.4217 -0.1463  0.1649
29992W        W36592  16.441   5.109  30.422 -0.0762 -0.4182  0.0805
29993W        W36593  22.520   6.904  26.894  0.1107 -0.0726  0.0168
29994W        W36594  13.288   1.302  27.251  0.0693  0.1064 -0.1508
29995W        W36595  23.008   3.656  12.958  0.0412  0.0898 -0.2890
29996W        W36596  13.386   2.798  22.403 -0.2486  0.0343 -0.0385
29997W        W36597  20.494   7.470  25.946  0.1263  0.3872 -0.1051
29998W        W36598  24.334   0.279  32.091  0.3978 -0.0445 -0.0964
29999W        W36599  15.709   1.158   2.335 -0.0579  0.0457  0.1229
30000W        W36600  10.920   4.636   6.468 -0.0072 -0.1915 -0.0559
30001W        W36601  19.585   4.084   7.299 -0.1423 -0.1933  0.1442
30002W        W36602  20.072   6.309  13.370  0.0650 -0.1700 -0.0725
30003W        W36603  23.232   2.345  25.587  0.0272 -0.0252 -0.1152
30004W        W36604  21.325   7.793  29.347 -0.0859 -0.0893  0.1851
30005W        W36605   9.806   3.008  24.271  0.0021 -0.0910  0.1778
30006W        W36606   3.461   3.002  10.064 -0.2306  0.0271  0.4852
30007W        W36607  13.805   0.893  21.035  0.0808 -0.1287  0.2381
30008W        W36608   5.249   3.879   6.964  0.0905 -0.1426  0.1821
30009W        W36609  16.410   5.502   2.063 -0.1914  0.3375 -0.2612
30010W        W36610  13.490   2.248   5.381 -0.2164  0.2255  0.0494
30011W        W36611  15.198   5.548   6.548  0.0686 -0.1872 -0.2254
30012W        W36612  16.896   7.644  12.606  0.1389  0.0487  0.1243
30013W        W36613   0.696   6.597  31.363 -0.1897  0.2214  0.0953
30014W        W36614  10.870   4.701   5.107 -0.0464  0.0300 -0.2003
30015W        W36615   5.368   3.556  32.013  0.2286 -0.1723 -0.2531
30016W        W36616  17.800   2.893  27.963  0.1218 -0.2291 -0.0360
30017W        W36617   5.496   1.607   4.121 -0.1018 -0.0218 -0.4253
30018W        W36618   5.287   6.147   1.594 -0.2106  0.0533  0.0882
30019W        W36619  10.197   5.873  23.133 -0.0316 -0.1344 -0.0071
30020W        W36620   8.428   5.437   5.964  0.0254  0.2052  0.1584
30021W        W36621  22.786   0.959  22.576  0.0320  0.3118 -0.2886
30022W        W36622  16.909   2.560   1.232  0.0185 -0.1598  0.2743
30023W        W36623   4.148   0.710  19.583  0.3231 -0.0439  0.0093
30024W        W36624   7.014   6.688  30.121 -0.1349 -0.0615  0.2550
30025W        W36625   9.391   3.043  23.966  0.0513  0.0824  0.0902
30026W        W36626   0.457   7.174  22.453  0.1315  0.1605  0.4019
30027W        W36627  20.438   4.764  12.182 -0.0797 -0.1722  0.3597
30028W        W36628  17.836   3.506  18.291  0.0470 -0.1385  0.1597
30029W        W36629  24.658   3.419  28.211 -0.3325 -0.2961  0.2702
30030W        W36630  21.785   5.156  28.173  0.2081 -0.2250 -0.0481
30031W        W36631  15.259   0.982   6.408  0.1825 -0.5185  0.0053
30032W        W36632   5.523   3.442  19.506 -0.1443 -0.1905 -0.1166
30033W        W36633  25.111   3.740  30.345  0.1322 -0.1102  0.1663
30034W        W36634   7.568   0.673  18.726 -0.0036  0.3007 -0.1087
30035W        W36635   7.803   7.130   2.032  0.1635 -0.1155  0.0377
30036W        W36636   4.370   4.859  23.451 -0.0499 -0.3325 -0.0081
30037W        W36637  14.206   7.448  12.201 -0.0182  0.1351 -0.1118
30038W        W36638   2.719   2.212   0.736 -0.0815  0.2180 -0.1315
30039W        W36639   5.851   5.796  24.492  0.0002  0.0556 -0.0535
30040W        W36640  23.767   6.706  25.065  0.2517  0.1570  0.2303
30041W        W36641   1.697   1.646  21.748  0.3804 -0.1802  0.2023
30042W        W36642   2.747   0.285   4.881  0.0238 -0.0066 -0.0906
30043W        W36643   2.043   0.391   3.238  0.1820  0.1076 -0.2659
30044W        W36644   1.922   7.736  22.383 -0.0098  0.1010 -0.0460
30045W        W36645  19.118   3.464  23.588  0.0352 -0.2905 -0.4230
30046W        W36646   9.513   0.110  18.564  0.0334 -0.0978 -0.1599
30047W        W36647   4.148   6.338  18.972 -0.1313 -0.0612 -0.0719
30048W        W36648   4.991   4.005  25.515 -0.1079  0.0073 -0.0418
30049W        W36649   3.392   3.180   4.512 -0.3007 -0.3108 -0.0384
30050W        W36650   0.097   1.423   7.793 -0.1038  0.3184 -0.0074
30051W        W36651   2.640   3.432  29.233  0.4503 -0.4134 -0.1396
30052W        W36652   1.038   3.076  22.354  0.0272  0.2942  0.0953
30053W        W36653   9.240   1.406  16.379 -0.1920 -0.0686  0.0617
30054W        W36654  13.617   3.597   7.191 -0.3122 -0.2903  0.1674
30055W        W36655  11.578   7.297  28.232  0.0809 -0.0081  0.1248
30056W        W36656   5.456   6.274   0.222 -0.1328 -0.0935 -0.4976
30057W        W36657  25.149   2.560   9.236  0.0157 -0.0574  0.1995
30058W        W36658  19.442   6.821   9.614  0.1047 -0.0333 -0.0900
30059W        W36659  16.756   3.788  25.375  0.0958 -0.0140 -0.0211
30060W        W36660  18.591   4.263   0.540 -0.1939  0.1009  0.1151
30061W        W36661  15.967   2.383   0.334 -0.1029 -0.3336 -0.1082
30062W        W36662  12.042   7.453   0.370 -0.0102  0.0037 -0.0963
30063W        W36663  18.025   7.664   9.230 -0.0203  0.2196 -0.0443
30064W        W36664  18.902   4.472   8.244  0.0396  0.0726 -0.2707
30065W        W36665  13.379   2.142  26.624  0.2184  0.1437  0.3538
30066W        W36666   2.269   2.489   5.593 -0.0541  0.4453  0.0921
30067W        W36667  14.668   3.891   6.603  0.2268  0.1511 -0.1695
30068W        W36668  17.995   7.130  26.880  0.0980 -0.1876  0.3448
30069W        W36669  15.507   4.836  15.445 -0.0122 -0.1918  0.2824
30070W        W36670   1.173   1.059   7.001  0.0212  0.0983  0.0372
30071W        W36671  16.127   2.527   4.425  0.1631 -0.2847  0.2581
30072W        W36672   5.911   3.424  24.373  0.1506 -0.0180  0.1336
30073W        W36673   5.659   3.691   8.150  0.2061  0.1506  0.2005
30074W        W36674  18.034   4.642   9.162 -0.0297 -0.0518  0.1544
30075W        W36675  11.651   1.719  24.572  0.0207  0.2325 -0.2474
30076W        W36676   9.770   1.475  29.119 -0.1667  0.3055 -0.2335
30077W        W36677  21.316   0.849  17.911  0.0995 -0.1928 -0.3491
30078W        W36678  14.891   5.065  24.012 -0.1222 -0.2598 -0.0505
30079W        W36679  22.815   0.725  23.039  0.2738  0.0247  0.1406
30080W        W36680  24.578   6.158   0.687  0.4167  0.0966 -0.1786
30081W        W36681   9.908   0.625  19.275  0.0288 -0.1706  0.1744
30082W        W36682  13.692   7.834  23.950 -0.0871  0.0318  0.1930
30083W        W36683   2.725   1.044  30.548 -0.0177 -0.1145  0.1671
30084W        W36684   3.253   0.660   0.378  0.1268  0.0344 -0.1251
30085W        W36685  18.734   4.106  17.700 -0.0918  0.2248 -0.3698
30086W        W36686   3.328   4.529   5.877 -0.0545 -0.1298  0.1122
30087W        W36687   9.954   0.881   7.226  0.1899 -0.0925  0.1136
30088W        W36688  17.918   1.896  10.809  0.3274  0.0386  0.1950
30089W        W36689  19.972   0.200  15.335  0.2242  0.0223 -0.2050
30090W        W36690  21.549   4.917  31.361 -0.1902 -0.0881  0.0763
30091W        W36691  16.758   7.823   9.755 -0.3351 -0.1025 -0.0464
30092W        W36692   3.069   3.714  10.058 -0.2204  0.2010 -0.2075
30093W        W36693  12.103   2.526  26.271  0.0146  0.0995 -0.0971
30094W        W36694  12.648   5.093   7.601 -0.0257 -0.1886 -0.0193
30095W        W36695   9.291   3.743  29.236 -0.0103  0.1939 -0.1143
30096W        W36696  23.750   1.892   4.540  0.1898 -0.2215 -0.0251
30097W        W36697  24.567   1.318   1.312  0.1180 -0.1494  0.0865
30098W        W36698   3.689   0.384  20.634 -0.1420 -0.1066 -0.1839
30099W        W36699   5.954   3.730   3.440  0.1488 -0.0734  0.1508
30100W        W36700  16.693   7.364  31.505 -0.1264 -0.0089 -0.0074
30101W        W36701  22.995   5.277  22.612 -0.1528 -0.3286  0.0459
30102W        W36702  21.701   7.629   9.129  0.1098 -0.4030  0.2903
30103W        W36703  22.436   2.452  27.895  0.0280  0.2730  0.0921
30104W        W36704   5.923   4.256   6.275 -0.0196 -0.0737  0.1686
30105W        W36705  22.565   7.269   1.241  0.1298  0.0765 -0.2024
30106W        W36706  24.951   5.811   7.708  0.0769  0.1967  0.2098
30107W        W36707   1.305   4.831   2.175  0.2332 -0.1405 -0.4687
30108W        W36708   5.810   2.159  22.832 -0.2422  0.1860 -0.0167
30109W        W36709  22.597   5.882  24.963  0.0221  0.0899  0.0294
30110W        W36710  23.147   6.021   7.812 -0.1033 -0.3136  0.1565
30111W        W36711  20.165   5.791   2.607 -0.1907 -0.0068 -0.1233
30112W        W36712  20.309   7.074   3.549 -0.3984  0.2122  0.2170
30113W        W36713   6.574   1.141  14.513 -0.3679 -0.2773  0.2398
30114W        W36714  22.312   7.805  16.255  0.4115 -0.1399  0.0942
30115W        W36715   3.404   4.441   4.684 -0.0504  0.1018 -0.0414
30116W        W36716  19.635   6.527  11.838 -0.0744 -0.0738 -0.0333
30117W        W36717  21.424   3.986  14.370  0.0678  0.0592  0.0404
30118W        W36718   6.984   5.246  10.144 -0.2296  0.0441 -0.0069
30119W        W36719  24.634   5.572  20.629  0.1115  0.0781  0.0614
30120W        W36720   7.455   1.260  17.946  0.0454  0.0924  0.0515
30121W        W36721   7.915   2.446  26.695 -0.0231 -0.1237 -0.1784
30122W        W36722   9.344   3.363   2.831 -0.3130  0.0004 -0.1006
30123W        W36723   4.896   3.670   4.544  0.5114  0.1533  0.1185
30124W        W36724  21.583   6.783  28.517  0.2374  0.1230 -0.0563
30125W        W36725   7.028   1.176   2.861  0.1065 -0.1234 -0.0594
30126W        W36726  23.233   4.657  14.969  0.1221 -0.3119  0.2318
30127W        W36727   6.279   5.088  23.368 -0.0934 -0.0502 -0.1065
30128W        W36728   5.306   7.587  31.985 -0.0878  0.7364 -0.3632
30129W        W36729  23.120   5.625  30.435 -0.2125 -0.1597 -0.1630
30130W        W36730  19.395   5.164   9.121  0.2530  0.2100 -0.2327
30131W        W36731  12.901   5.021  12.338  0.1521  0.1157  0.3391
30132W        W36732  15.039   3.186  25.457  0.1042 -0.0929 -0.0958
30133W        W36733  18.190   3.142   2.933  0.1951 -0.1313  0.0704
30134W        W36734  16.283   1.079  23.897  0.3421  0.2439 -0.0538
30135W        W36735   0.472   7.600  26.856 -0.0159  0.0310  0.0084
30136W        W36736  14.673   0.820  27.590  0.1070 -0.0217  0.3490
30137W        W36737  16.057   5.160  31.262 -0.1380  0.1073 -0.1415
30138W        W36738   6.335   5.975  15.698  0.0530 -0.2311 -0.0589
30139W        W36739   6.364   0.931   6.354  0.0510  0.6743 -0.0410
30140W        W36740   3.211   0.524   5.696 -0.2734  0.0389 -0.1582
30141W        W36741  12.010   0.211  28.356 -0.1306 -0.0027  0.0694
30142W        W36742   1.416   2.894   8.428  0.4015  0.0411 -0.0928
30143W        W36743  12.055   5.864   8.648 -0.0065 -0.1280 -0.0141
30144W        W36744   2.824   1.489  19.638 -0.0037  0.0326  0.0174
30145W        W36745  12.635   2.066  24.712 -0.0927  0.3340  0.1923
30146W        W36746   0.375   1.578  31.518 -0.0123 -0.0244 -0.1326
30147W        W36747  24.057   5.803  13.974 -0.0955  0.0268 -0.0987
30148W        W36748  13.653   6.259  13.556 -0.1414  0.2023 -0.1368
30149W        W36749  12.432   6.291  29.073 -0.2802  0.1941  0.0965
30150W        W36750  24.394   5.385  27.954  0.0014 -0.0926  0.0180
30151W        W36751   1.426   7.512   2.995  0.2656 -0.2634  0.1934
30152W        W36752   8.892   3.735  26.470 -0.1163 -0.1111 -0.2698
30153W        W36753  13.208   3.826  31.739  0.0674  0.0528  0.3732
30154W        W36754   6.570   0.214  29.918 -0.2451  0.3063 -0.1385
30155W        W36755  24.373   5.226   9.248 -0.0713 -0.0831  0.3016
30156W        W36756   9.653   1.670  16.069  0.0405  0.2049 -0.0389
30157W        W36757  13.430   1.381  22.260  0.0792  0.0101 -0.1478
30158W        W36758   4.235   4.629  27.376 -0.1330  0.2511 -0.1773
30159W        W36759  18.716   3.476   4.460  0.0204  0.1441  0.0587
30160W        W36760   7.786   5.033   6.307 -0.0139 -0.0269 -0.0720
30161W        W36761   8.335   2.523  22.361  0.0088  0.3739  0.1929
30162W        W36762   2.343   3.236  10.326  0.2083  0.0822  0.2820
30163W        W36763   8.878   7.660   6.181  0.0756 -0.0543  0.0767
30164W        W36764   1.947   1.425  27.818 -0.3364  0.1537  0.1563
30165W        W36765  24.142   7.253  28.745 -0.0446 -0.0322  0.2163
30166W        W36766   8.671   2.938  32.050 -0.0327  0.0423  0.0918
30167W        W36767  11.447   0.658  21.022 -0.0392  0.2272 -0.0732
30168W        W36768  14.788   4.487   1.122 -0.1338 -0.0356  0.2770
30169W        W36769   8.402   3.477  30.001  0.0430 -0.4239 -0.0275
30170W        W36770  23.622   7.170  24.264  0.0198 -0.1512  0.1318
30171W        W36771  15.676   3.397  15.542 -0.2696 -0.2714  0.1167
30172W        W36772  10.867   1.143  19.705 -0.1111  0.1340  0.0111
30173W        W36773  16.259   6.463  27.581 -0.1257  0.1495  0.1679
30174W        W36774  18.100   3.390   9.719  0.0246 -0.5649  0.0718
30175W        W36775  13.374   1.264  28.883 -0.0409 -0.0377  0.1950
30176W        W36776   2.211   1.425   5.625  0.2838  0.0907  0.2546
30177W        W36777  10.001   1.008   0.579 -0.0371 -0.0507  0.1683
30178W        W36778  21.058   6.604   2.247  0.4708  0.1538  0.0487
30179W        W36779   0.744   7.124   7.090  0.0361  0.2347  0.2168
30180W        W36780  10.966   0.603   4.769 -0.3154  0.1483 -0.1644
30181W        W36781   6.484   1.002  14.015  0.0464  0.1935 -0.1073
30182W        W36782  20.301   6.297   7.004 -0.0388  0.0475  0.0303
30183W        W36783   6.225   3.430  14.113  0.0574  0.1414  0.0046
30184W        W36784   8.775   4.594  19.684 -0.0613  0.1672  0.0259
30185W        W36785  10.741   5.534  25.724  0.1767 -0.0052  0.0393
30186W        W36786   4.410   6.609  17.524 -0.1340 -0.0516 -0.0835
30187W        W36787  22.316   1.268  30.171 -0.2643  0.0830 -0.0406
30188W        W36788  19.101   2.090  13.687  0.0276  0.3035 -0.0764
30189W        W36789  21.904   3.672  30.633  0.2136 -0.0483 -0.3839
30190W        W36790  13.977   5.221   6.312  0.3078  0.2050 -0.0719
30191W        W36791  13.816   0.959   2.506 -0.0580 -0.2185  0.0898
30192W        W36792   1.834   4.317  29.400 -0.1751 -0.0205 -0.2956
30193W        W36793   4.364   2.410   0.616  0.0474 -0.2735 -0.0826
30194W        W36794   9.952   4.972   8.996 -0.0344  0.1066 -0.2752
30195W        W36795  12.594   6.418  24.677 -0.0770  0.0492 -0.2837
30196W        W36796   1.849   7.198  26.243  0.2668  0.3328 -0.2738
30197W        W36797  23.059   3.454   5.344  0.1983  0.2354  0.1662
30198W        W36798  17.427   2.278  29.811  0.0684 -0.0962 -0.0154
30199W        W36799  22.700   4.280  14.347  0.1205  0.1427 -0.2559
30200W        W36800  15.791   3.869  25.990 -0.1638 -0.0621  0.1107
30201W        W36801   3.229   5.682  20.032  0.3101  0.2198  0.1889
30202W        W36802  24.820   7.303   9.809 -0.2146  0.0859  0.0702
30203W        W36803  19.936   0.104  30.887  0.0330 -0.3583 -0.0196
30204W        W36804   5.843   3.598  23.952  0.1394  0.2803  0.1251
30205W        W36805   7.043   6.504   3.895  0.0869  0.0062 -0.0818
30206W        W36806  13.683   3.637  21.591 -0.1386 -0.1569  0.1868
30207W        W36807  10.651   1.647  28.659  0.0848 -0.2167 -0.0769
30208W        W36808  18.405   1.729   7.207 -0.0384 -0.0452 -0.0864
30209W        W36809   9.211   6.848   2.091 -0.1413  0.1493  0.0725
30210W        W36810  14.494   4.069   7.830 -0.2199  0.0032  0.0358
30211W        W36811  12.308   1.939  22.389  0.0572 -0.0151  0.0805
30212W        W36812   8.182   4.417  14.575  0.0484 -0.0520  0.1477
30213W        W36813  13.923   1.004  10.944 -0.1868  0.3342 -0.0831
30214W        W36814  25.034   5.759  13.588 -0.1080  0.0124  0.2948
30215W        W36815  10.257   0.136  22.809 -0.0277  0.0457 -0.2279
30216W        W36816  20.748   1.443  23.922  0.2813  0.0466  0.2502
30217W        W36817  19.103   1.907  23.300  0.1083 -0.0847 -0.3252
30218W        W36818  24.744   0.580   9.328 -0.0263  0.0014 -0.1113
30219W        W36819  19.762   3.962  16.675  0.0168  0.1130  0.2128
30220W        W36820  21.445   0.914  15.736  0.0496  0.1408 -0.1109
30221W        W36821  24.283   1.794   1.004  0.0571 -0.1134  0.0064
30222W        W36822  16.080   6.677   6.934  0.2355 -0.1094 -0.1207
30223W        W36823   8.398   5.104  18.973 -0.0501  0.0771  0.1151
30224W        W36824   3.389   0.188  31.399  0.0817 -0.2863  0.1451
30225W        W36825   0.770   1.297  10.863 -0.1817  0.1218 -0.0980
30226W        W36826  22.775   2.111  25.129 -0.0683  0.0676 -0.0078
30227W        W36827  21.715   4.741  25.074 -0.0344  0.2416 -0.0721
30228W        W36828  18.414   6.399   0.353 -0.1818  0.1168  0.2926
30229W        W36829   5.090   0.519  17.648 -0.2736 -0.0311  0.0065
30230W        W36830  12.361   4.720  22.660  0.3897  0.0026  0.0629
30231W        W36831   3.409   1.148  24.625  0.0229 -0.4651  0.1279
30232W        W36832  13.400   1.544  20.359  0.0970 -0.0694  0.2227
30233W        W36833  13.708   7.139   7.495 -0.2700  0.2606 -0.2296
30234W        W36834   9.807   1.802  27.115  0.0271 -0.1870  0.0136
30235W        W36835   3.703   1.407  17.068  0.1456  0.0736 -0.1500
30236W        W36836   5.542   3.888  19.672  0.1240  0.1022  0.1901
30237W        W36837  11.019   5.477  21.940 -0.2568  0.0635  0.2237
30238W        W36838  11.728   6.424  11.492 -0.1270 -0.0590  0.0248
30239W        W36839  14.100   2.010  14.007  0.2145 -0.2034 -0.3763
30240W        W36840   7.553   2.646   8.669  0.0608  0.3193 -0.2410
30241W        W36841   0.107   3.975  31.576 -0.1710  0.2836  0.2020
30242W        W36842  11.463   5.507  29.771  0.0602  0.0591  0.0287
30243W        W36843  23.008   5.678  13.683 -0.0585 -0.0343  0.0354
30244W        W36844   0.376   7.845  30.301 -0.1627 -0.2765 -0.1839
30245W        W36845  20.291   0.974   4.256  0.3483  0.0905 -0.1446
30246W        W36846  19.959   6.783   9.645 -0.0091  0.1896  0.0327
30247W        W36847  18.391   6.737  16.472 -0.1731 -0.1146  0.1165
30248W        W36848   3.644   5.366  27.701 -0.1704  0.3952 -0.1104
30249W        W36849  11.667   6.928  11.464  0.2477  0.1025  0.2973
30250W        W36850   5.449   0.077  22.796 -0.2181  0.2214 -0.2092
30251W        W36851   4.703   4.290  19.716 -0.0209  0.2022 -0.1587
30252W        W36852   2.311   5.681   5.055  0.1961  0.1910 -0.1407
30253W        W36853   9.347   4.602   6.314 -0.0515 -0.1342 -0.0855
30254W        W36854  25.040   4.879  27.388  0.2827  0.1148 -0.1724
30255W        W36855  21.084   3.333   5.443 -0.1586 -0.0626  0.2377
30256W        W36856  13.541   5.902   2.879  0.2072  0.2563  0.2322
30257W        W36857   4.525   2.202  27.439 -0.1355 -0.0375 -0.1105
30258W        W36858  23.070   0.426  27.655  0.0579 -0.1663 -0.0525
30259W        W36859   1.176   1.034  31.175 -0.1454 -0.0718  0.2755
30260W        W36860  18.947   5.520   7.909 -0.1613  0.2312 -0.0825
30261W        W36861  18.257   5.079  25.078  0.2703  0.2417 -0.0634
30262W        W36862  13.227   0.336   1.477 -0.2094  0.0798  0.1880
30263W        W36863   0.122   0.664  25.979 -0.2562 -0.2284  0.0338
30264W        W36864   5.011   4.223   6.711 -0.0437 -0.0736 -0.2258
30265W        W36865  13.009   1.566  20.717 -0.1400  0.1968  0.0017
30266W        W36866  15.780   6.399   9.041 -0.2970  0.1137  0.1031
30267W        W36867  18.134   4.197  13.247  0.1049  0.0309  0.1410
30268W        W36868   4.044   0.475  24.589 -0.1141 -0.1042  0.0736
30269W        W36869  23.439   5.630   7.983  0.2357  0.0749 -0.2680
30270W        W36870   2.067   5.753  29.734  0.2102 -0.1283  0.0018
30271W        W36871  14.845   2.259   0.405 -0.1347 -0.0993  0.0761
30272W        W36872  16.899   5.041  31.836 -0.1449 -0.3017 -0.0436
30273W        W36873  22.569   4.385   6.120  0.1956 -0.3218  0.2332
30274W        W36874   5.502   6.222  25.017  0.1131 -0.1061  0.0871
30275W        W36875   0.322   2.211  21.217 -0.3514  0.2040 -0.1382
30276W        W36876  24.890   1.247   0.230 -0.3593 -0.0902 -0.0888
30277W        W36877  12.690   1.563   6.421  0.2386  0.0173 -0.0821
30278W        W36878   3.583   6.976   2.565  0.0781 -0.1577  0.1352
30279W        W36879  16.449   2.894   6.352 -0.0714  0.0212  0.1116
30280W        W36880  19.997   0.245   2.981 -0.1254  0.1214 -0.0906
30281W        W36881   9.754   1.293  31.231 -0.1878 -0.2005  0.1784
30282W        W36882  17.170   0.533  28.363 -0.0384  0.1113  0.1099
30283W        W36883   4.625   0.439  24.322  0.2904  0.1124  0.0663
30284W        W36884   3.886   7.377  10.771  0.1211  0.1243  0.2449
30285W        W36885   4.781   3.222  26.939  0.1423  0.1118  0.2226
30286W        W36886   1.420   0.845  24.901 -0.3296  0.0358  0.1449
30287W        W36887   3.970   2.391  22.801  0.1323 -0.3006 -0.0965
30288W        W36888  10.763   4.668  29.051 -0.0792  0.1590 -0.1588
30289W        W36889   8.029   4.005   4.283  0.0267  0.4217  0.0366
30290W        W36890  10.398   5.149  28.455 -0.0460  0.5067  0.0437
30291W        W36891   5.867   5.342   5.037 -0.0415  0.1953  0.2795
30292W        W36892  13.437   7.683  10.680 -0.1545  0.0171  0.1622
30293W        W36893   5.759   2.986  26.333  0.2090  0.0653  0.0789
30294W        W36894  15.852   4.061   6.211  0.0365  0.1764 -0.2881
30295W        W36895  21.606   7.442   4.289 -0.2617 -0.0397  0.0206
30296W        W36896  17.069   2.906  11.265  0.1689 -0.2817 -0.3622
30297W        W36897  14.138   3.049  30.354 -0.2355  0.1305 -0.0322
30298W        W36898   7.786   4.119   1.372  0.1307  0.0597 -0.1017
30299W        W36899   8.341   0.737   2.547  0.1029 -0.1638 -0.2692
30300W        W36900  18.907   4.388  24.746  0.2221 -0.2860 -0.2015
30301W        W36901   0.762   6.996   3.328 -0.0558 -0.1135  0.1161
30302W        W36902   5.411   7.812  19.745  0.0329 -0.0529  0.2873
30303W        W36903  17.951   6.228  31.797  0.2450  0.2770 -0.1625
30304W        W36904  11.923   3.259   1.620 -0.0796 -0.2532 -0.0369
30305W        W36905  21.816   1.979   5.153 -0.1091  0.0715  0.0957
30306W        W36906  14.650   1.262  31.819 -0.3425  0.1593  0.3164
30307W        W36907  17.111   2.010  25.799 -0.0987  0.1461  0.3337
30308W        W36908   5.436   2.010   6.380  0.1276  0.0512  0.0260
30309W        W36909  21.488   1.782   0.502 -0.0020 -0.4134 -0.2152
30310W        W36910  22.906   5.287  31.325  0.1275  0.2039 -0.0407
30311W        W36911   8.917   4.470  27.589 -0.0033  0.1561  0.2048
30312W        W36912   1.871   1.238  21.277 -0.0744 -0.4255 -0.1067
30313W        W36913  14.086   4.355   7.914  0.2564  0.1088 -0.1396
30314W        W36914   8.169   1.425  30.221 -0.0273  0.2704 -0.0067
30315W        W36915   3.061   4.971  10.270  0.1048 -0.0577 -0.4025
30316W        W36916  16.656   3.089   4.780  0.2420  0.0246  0.2045
30317W        W36917  24.546   0.754   4.180 -0.1254  0.0400  0.0291
30318W        W36918  25.132   6.233  19.719 -0.2655 -0.0119 -0.1032
30319W        W36919   2.890   4.178  28.152  0.2360  0.1136 -0.0399
30320W        W36920   8.669   0.837  21.520  0.0066 -0.1433 -0.2411
30321W        W36921   6.367   5.563   0.703 -0.1289  0.0656 -0.0847
30322W        W36922   5.668   3.827   3.073  0.1126  0.0977 -0.0116
30323W        W36923  16.327   0.706  25.891 -0.1194 -0.1171  0.0882
30324W        W36924  10.274   2.104   3.816 -0.1098 -0.1069  0.5507
30325W        W36925  21.436   4.233  28.602  0.0100 -0.4476 -0.0908
30326W        W36926  13.981   1.004  11.397  0.2902 -0.0594  0.2205
30327W        W36927   5.629   0.926   0.068  0.0535 -0.1501  0.0470
30328W        W36928  22.242   7.807  12.120 -0.0247 -0.2014  0.0104
30329W        W36929  14.655   5.856  11.193 -0.0315 -0.0159 -0.0578
30330W        W36930   7.819   6.868  20.240 -0.0245  0.1479 -0.0430
30331W        W36931   0.690   4.721   8.764 -0.4318  0.2276 -0.0719
30332W        W36932  19.909   1.585  10.454 -0.0440 -0.2071  0.0344
30333W        W36933   9.620   5.525  32.330 -0.1647  0.2385 -0.0373
30334W        W36934  10.682   4.719  16.588 -0.1965  0.0240  0.0262
30335W        W36935   0.347   1.118   3.138 -0.0482  0.0401  0.1821
30336W        W36936   4.992   0.896  27.924 -0.4475 -0.3797  0.0629
30337W        W36937   7.290   0.252  29.216 -0.0510 -0.1159 -0.0286
30338W        W36938  10.616   7.836   3.847 -0.1033  0.0100  0.1179
30339W        W36939   0.455   1.193  21.179 -0.0098 -0.0658  0.0633
30340W        W36940  12.550   5.447   4.664  0.0724  0.0131  0.0008
30341W        W36941  15.167   6.959   1.600 -0.2804 -0.0154  0.2267
30342W        W36942   4.572   7.258  23.895 -0.0766  0.4482  0.1439
30343W        W36943   4.964   6.561  22.254  0.2545  0.2018  0.0943
30344W        W36944  23.471   3.930  10.221 -0.4804  0.1893 -0.1137
30345W        W36945  20.153   0.285   6.744  0.0813 -0.0457  0.0246
30346W        W36946  18.191   1.421  13.345  0.2509  0.1335  0.1330
30347W        W36947  22.984   7.178   3.141 -0.2366  0.2610  0.2144
30348W        W36948   4.166   5.553  25.648 -0.1423 -0.0277 -0.2864
30349W        W36949   2.090   1.705   9.626 -0.2684  0.4385  0.0504
30350W        W36950  14.570   1.695  15.486  0.3555 -0.1974  0.1521
30351W        W36951  15.682   5.926  10.221 -0.1881 -0.0522 -0.2924
30352W        W36952   4.888   5.336  16.982 -0.0525 -0.2428 -0.3397
30353W        W36953   0.770   1.983  32.320  0.1758 -0.0388 -0.1866
30354W        W36954   9.644   7.222  28.512  0.0922  0.1173 -0.2996
30355W        W36955  23.978   4.500   1.694  0.1008  0.1465 -0.0141
30356W        W36956  15.289   6.711   3.180  0.3235 -0.0721 -0.0461
30357W        W36957   2.230   5.133   0.488  0.1744  0.1563 -0.1445
30358W        W36958  14.707   6.872  15.684 -0.0926  0.0116  0.0293
30359W        W36959   7.794   0.049   9.314  0.2444 -0.0458  0.0467
30360W        W36960  18.219   5.987   1.738 -0.2630  0.0252 -0.3607
30361W        W36961  22.830   3.373  29.925  0.0240  0.2650 -0.1566
30362W        W36962   3.451   4.363   1.775 -0.0632 -0.0472 -0.2298
30363W        W36963  19.642   4.169   9.792 -0.0066  0.2148  0.0961
30364W        W36964   9.507   3.163   6.716 -0.0052  0.0314 -0.0659
30365W        W36965   2.989   0.020  31.183  0.1932 -0.1489 -0.3645
30366W        W36966   4.026   4.860   7.299  0.0022 -0.0581 -0.0443
30367W        W36967   0.819   2.702  25.287 -0.0930 -0.0399 -0.1541
30368W        W36968  14.713   3.457   3.427 -0.0937 -0.2717 -0.0361
30369W        W36969   2.542   2.649  26.874 -0.1317  0.2961  0.2192
30370W        W36970   7.527   5.910  16.741  0.2976  0.1677 -0.0714
30371W        W36971  21.826   1.338  17.176 -0.0266 -0.1973 -0.1832
30372W        W36972   3.770   1.555  25.590 -0.3569 -0.0679  0.3533
30373W        W36973  23.612   0.478   8.637  0.1585  0.1632  0.2014
30374W        W36974  12.963   5.626  31.435  0.3082  0.1396 -0.0640
30375W        W36975   6.234   5.097   4.337  0.0210  0.2229  0.1952
30376W        W36976   7.113   7.407  31.766 -0.1246 -0.0516  0.0120
30377W        W36977   9.702   6.704   5.553  0.2828 -0.1058 -0.0833
30378W        W36978   1.642   4.867   7.921 -0.0482  0.1206 -0.0743
30379W        W36979   4.451   1.751  22.593 -0.0168 -0.0794 -0.1201
30380W        W36980  22.788   3.021   9.824  0.0415 -0.0310  0.1831
30381W        W36981  21.291   4.340  28.140  0.3629 -0.2929  0.0731
30382W        W36982  19.309   3.925  16.932  0.0067  0.0075  0.2604
30383W        W36983   5.075   6.973  21.967  0.1479 -0.0330  0.0627
30384W        W36984  15.657   2.326  31.936  0.0813  0.0031  0.3083
30385W        W36985  10.953   7.579  11.654 -0.4085  0.1809  0.1561
30386W        W36986   0.955   0.726   4.727 -0.0468  0.0634 -0.1799
30387W        W36987  19.596   7.216   1.296  0.0306 -0.1381 -0.1093
30388W        W36988   5.182   6.763  21.267 -0.2101 -0.1505  0.1827
30389W        W36989   0.121   0.871   0.366  0.1404  0.0217  0.0604
30390W        W36990  23.489   3.486   4.970 -0.1463 -0.0688 -0.0723
30391W        W36991   0.717   6.053   5.800 -0.2139 -0.0209  0.0763
30392W        W36992  18.626   2.257   3.915 -0.2944 -0.1390 -0.3656
30393W        W36993  22.481   6.881   0.505  0.0024  0.1020 -0.1463
30394W        W36994   0.114   6.109  10.807  0.0471 -0.3515  0.3802
30395W        W36995   7.291   7.769   5.605 -0.1722 -0.0837  0.1716
30396W        W36996   1.201   0.373   9.751  0.1887 -0.1094  0.0829
30397W        W36997  22.598   4.125  10.576 -0.0270 -0.0785  0.3718
30398W        W36998  24.976   1.682   4.874 -0.1028  0.0949 -0.1600
30399W        W36999  23.512   1.490  13.916 -0.0635  0.1238  0.2084
30400W        W37000  12.345   1.165  26.850  0.0587 -0.0284  0.2114
30401W        W37001  24.250   1.333  32.246  0.1558  0.2266  0.0967
30402W        W37002   5.270   6.221   0.841  0.0946  0.0657  0.0266
30403W        W37003  22.409   7.271  10.387 -0.1184 -0.2020 -0.1938
30404W        W37004  17.452   7.230  24.874  0.0014  0.0426 -0.1564
30405W        W37005   2.800   2.814   8.617  0.1350  0.6428 -0.1130
30406W        W37006  13.094   4.264   4.976  0.0709 -0.1183 -0.0783
30407W        W37007   6.353   6.047  28.149  0.3144  0.0601  0.2650
30408W        W37008  22.902   1.949  26.909 -0.1188 -0.1758 -0.1324
30409W        W37009  16.682   1.710  10.700 -0.0926 -0.2029  0.0325
30410W        W37010   5.817   4.880   3.776 -0.0811 -0.1564  0.3274
30411W        W37011  12.280   7.323  28.385 -0.2618  0.1405  0.0192
30412W        W37012   2.286   1.177  21.561  0.2505  0.0069 -0.2336
30413W        W37013   9.150   1.152   7.490 -0.1496  0.1744  0.2426
30414W        W37014  18.444   0.229   9.725  0.4459  0.2738 -0.1723
30415W        W37015   2.841   4.527   9.521  0.2582 -0.1996 -0.1075
30416W        W37016  15.480   1.612  23.940  0.1849 -0.0319  0.1014
30417W        W37017   9.235   5.367  28.698  0.3749  0.2378 -0.0655
30418W        W37018   1.002   6.932  31.073 -0.0324  0.1553 -0.2086
30419W        W37019   1.916   6.845  28.060 -0.0051 -0.0199  0.0434
30420W        W37020  15.778   2.318   9.821  0.0412 -0.3301  0.1255
30421W        W37021   3.092   4.056   2.727 -0.0730  0.0388 -0.2858
30422W        W37022  10.317   0.910  27.154 -0.0367  0.0528  0.1186
30423W        W37023  13.934   2.216  20.441  0.1573 -0.2307 -0.0544
30424W        W37024  25.135   7.488  26.266  0.2388  0.1372  0.1450
30425W        W37025  20.128   1.296  10.059 -0.1740 -0.2331 -0.0927
30426W        W37026   5.177   2.158   8.666 -0.2214 -0.0189 -0.0567
30427W        W37027   5.852   5.639   5.433  0.0012  0.0256 -0.0846
30428W        W37028  15.673   0.195  12.825 -0.4081 -0.0367 -0.0278
30429W        W37029   6.176   6.820  17.412 -0.1567 -0.0250 -0.0762
30430W        W37030  24.433   3.538  27.730  0.2187  0.2041  0.1387
30431W        W37031  13.404   3.087  29.314 -0.0686 -0.1437 -0.0938
30432W        W37032   6.017   1.108  21.920 -0.0219  0.2269  0.1097
30433W        W37033   0.440   3.774  12.758  0.0474  0.1694 -0.3319
30434W        W37034   7.095   5.224   0.129 -0.0699  0.1776 -0.1895
30435W        W37035  13.411   1.824  28.078 -0.1039 -0.1406  0.2038
30436W        W37036  10.601   0.203  31.711 -0.0818 -0.1554  0.0842
30437W        W37037  24.841   2.874  24.679 -0.1563 -0.0809 -0.0294
30438W        W37038   0.940   3.688  24.174  0.1704 -0.1869  0.3163
30439W        W37039   3.493   0.360   3.121 -0.2464 -0.0368  0.1291
30440W        W37040   9.411   3.356  22.144 -0.0065  0.1046 -0.3363
30441W        W37041   3.674   0.804  29.855  0.2419 -0.2295 -0.1798
30442W        W37042  23.598   6.171  13.441  0.1674 -0.0980  0.0966
30443W        W37043  11.344   7.009   8.839  0.2001  0.0495  0.0332
30444W        W37044  22.820   1.117  15.743  0.1037  0.1086 -0.1483
30445W        W37045   3.463   3.288   2.405 -0.2579 -0.0802 -0.0094
30446W        W37046   2.120   5.117  18.309  0.0100  0.0228 -0.1951
30447W        W37047  11.414   6.117  18.265  0.0747 -0.0099  0.0120
30448W        W37048  19.053   1.296  15.243  0.1141 -0.1206  0.1070
30449W        W37049   5.549   5.724   8.796  0.1034  0.1436 -0.0286
30450W        W37050  23.120   3.325  25.929 -0.1002  0.0142 -0.2536
30451W        W37051  11.139   3.803   3.900  0.1799 -0.4604  0.0801
30452W        W37052  12.037   7.224  22.205  0.1013  0.1517 -0.1995
30453W        W37053   4.775   0.955  24.396  0.0144 -0.0771  0.0926
30454W        W37054   3.750   2.678  27.666  0.1347 -0.1018  0.0133
30455W        W37055  23.263   7.397  29.006  0.1025  0.1534  0.4661
30456W        W37056   8.137   4.653   3.831 -0.0519 -0.3022  0.1202
30457W        W37057   7.247   1.458  23.277 -0.1852 -0.2705 -0.0158
30458W        W37058  13.309   4.065  27.649  0.2644  0.0877 -0.0928
30459W        W37059  14.897   4.683  28.186  0.1907  0.3471 -0.0055
30460W        W37060  21.507   4.240  22.161  0.0591  0.2076 -0.1729
30461W        W37061  15.349   3.102  10.075 -0.0916  0.2159 -0.2166
30462W        W37062   6.008   5.978  22.584 -0.3484 -0.3449 -0.0395
30463W        W37063  12.388   6.421  21.926 -0.3364 -0.1157 -0.0059
30464W        W37064   0.578   1.441  22.218  0.0281  0.0207  0.0191
30465W        W37065  13.984   1.810   0.508 -0.1482 -0.3401  0.0249
30466W        W37066  17.716   5.253   0.392  0.3057 -0.0605  0.2028
30467W        W37067   6.983   4.309   7.280  0.0922 -0.3395  0.2032
30468W        W37068   0.637   5.580  22.671  0.0517  0.1056 -0.1324
30469W        W37069   0.562   2.316  26.455 -0.2087  0.1458 -0.0138
30470W        W37070   6.149   5.027  20.970  0.2753 -0.1922  0.0944
30471W        W37071  15.865   5.225  16.166  0.2842 -0.0482  0.2305
30472W        W37072   9.628   3.335   1.749 -0.0294  0.1190  0.3470
30473W        W37073  20.825   5.934  13.235  0.1059 -0.0554  0.0793
30474W        W37074   6.170   7.224   5.821 -0.0168 -0.1114  0.0073
30475W        W37075   4.635   6.032  28.328  0.0338 -0.0774  0.1870
30476W        W37076  13.831   4.443   7.465 -0.1548  0.2699 -0.0524
30477W        W37077  20.920   6.154  30.829 -0.1895  0.1436  0.2159
30478W        W37078  12.300   6.154  28.108 -0.2844  0.3532 -0.1578
30479W        W37079   9.265   2.808  30.187 -0.0420  0.0725 -0.2771
30480W        W37080  22.778   4.585  14.738 -0.2072 -0.1528 -0.1013
30481W        W37081   2.150   4.525   5.363  0.1991  0.1330 -0.3802
30482W        W37082  22.722   4.563  23.091  0.1142 -0.0750 -0.0259
30483W        W37083  16.485   5.149  31.469  0.0840  0.1231 -0.0491
30484W        W37084   2.538   3.455  22.032  0.1243 -0.2490 -0.3517
30485W        W37085  11.508   4.688  10.153 -0.1998 -0.1878  0.0125
30486W        W37086  22.468   3.230  31.092  0.2466  0.2575 -0.3572
30487W        W37087   3.489   1.069  29.410  0.2261 -0.0250 -0.0225
30488W        W37088   7.855   5.990   5.825  0.4868  0.1338  0.0023
30489W        W37089  16.555   3.903   2.402 -0.0248 -0.0343  0.0773
30490W        W37090   0.245   5.211  23.905 -0.2194 -0.1656  0.1432
30491W        W37091  16.894   6.065  15.124 -0.1048 -0.0510  0.0584
30492W        W37092  18.859   2.192  17.623 -0.1087  0.2053 -0.0367
30493W        W37093  11.544   7.200  10.992 -0.0757  0.0483 -0.3153
30494W        W37094  13.061   0.036  24.533  0.1229  0.0050  0.2599
30495W        W37095  12.795   7.155  21.773  0.0672  0.0743  0.1471
30496W        W37096   8.021   5.088   5.785  0.0987 -0.4134 -0.0188
30497W        W37097  18.615   3.954  24.372 -0.0671 -0.0575  0.0851
30498W        W37098  15.885   2.010  23.100  0.1946  0.3906 -0.0905
30499W        W37099  14.018   1.336  24.882  0.4057  0.3944 -0.0762
30500W        W37100   5.496   4.410  25.068 -0.0790  0.0944 -0.3176
30501W        W37101   0.934   7.327  24.613  0.1824  0.1044 -0.0976
30502W        W37102   7.377   5.958  28.270 -0.0739  0.2722  0.2168
30503W        W37103   2.314   7.784  25.369 -0.1512  0.1686 -0.0835
30504W        W37104  22.623   1.403  24.657 -0.0044  0.0077 -0.0378
30505W        W37105  13.991   7.365   6.166  0.1154  0.1245  0.2485
30506W        W37106   2.287   4.143  20.794  0.0234 -0.0786 -0.0940
30507W        W37107   4.234   0.942  28.497  0.0387 -0.4533 -0.2194
30508W        W37108   1.458   1.502  27.691 -0.0656 -0.0335 -0.3852
30509W        W37109  14.476   1.127  27.945  0.1497  0.2012  0.0651
30510W        W37110   3.196   5.603  22.469  0.3211  0.0122  0.0842
30511W        W37111  23.393   2.515  26.454  0.0525  0.1534  0.2057
30512W        W37112   0.407   2.986   0.918  0.1249 -0.0565  0.0673
30513W        W37113   1.564   7.192   6.550  0.3042 -0.2266  0.1426
30514W        W37114   0.281   2.834  13.163 -0.0876 -0.1667 -0.0763
30515W        W37115  20.181   5.502  11.139 -0.0832  0.0248  0.2297
30516W        W37116  11.936   4.361  29.766  0.0433 -0.1443 -0.0834
30517W        W37117   9.231   1.414  20.829 -0.2960 -0.0514 -0.2245
30518W        W37118  15.458   6.015   3.426  0.0369 -0.0704 -0.1250
30519W        W37119  16.311   2.339   9.406 -0.0171 -0.1075 -0.0748
30520W        W37120  19.442   3.460  16.759  0.2340 -0.0063  0.1403
30521W        W37121   8.721   0.405  29.176  0.0489 -0.2931  0.1376
30522W        W37122  21.902   2.409  30.005  0.1828  0.3022  0.0815
30523W        W37123   4.273   2.436  20.295  0.0986 -0.1866 -0.0309
30524W        W37124   2.544   6.623   7.246  0.2204 -0.1526  0.0478
30525W        W37125  14.404   6.636  12.455 -0.2656 -0.0406  0.1178
30526W        W37126  18.036   3.864  28.010  0.0887  0.2561 -0.0036
30527W        W37127  18.306   2.872   1.293 -0.0903 -0.0825 -0.0882
30528W        W37128  21.411   4.404  32.321  0.0951  0.0062  0.0564
30529W        W37129  17.714   6.505   8.293  0.2354 -0.2532  0.2223
30530W        W37130  11.608   6.595  20.847  0.1780 -0.0868 -0.1293
30531W        W37131   7.829   7.035   6.033  0.2168 -0.1470  0.1871
30532W        W37132  14.564   0.990   9.716 -0.2206  0.0144  0.0574
30533W        W37133  24.351   1.078  10.251  0.1721  0.2245 -0.0747
30534W        W37134   6.105   4.638   3.004  0.1475  0.0312  0.0500
30535W        W37135   6.767   0.475   3.018 -0.2313  0.0544  0.0657
30536W        W37136   7.016   0.153  16.979  0.1795  0.0807  0.0664
30537W        W37137  23.184   5.234   1.856  0.1952 -0.1640  0.0621
30538W        W37138  18.935   3.618  16.799  0.1726  0.1528  0.0488
30539W        W37139  11.054   6.226   9.277  0.0758  0.0828  0.2642
30540W        W37140   1.268   6.748  32.099  0.2840  0.1952  0.0225
30541W        W37141  21.927   5.382  27.576  0.3024  0.3475  0.0742
30542W        W37142   7.514   2.952  29.674 -0.1642  0.1951  0.0791
30543W        W37143   1.395   7.046  30.019  0.2802  0.0366 -0.1118
30544W        W37144  16.045   1.326  25.636  0.1288 -0.0047 -0.1147
30545W        W37145   0.103   6.890  24.678  0.4221  0.0447  0.1516
30546W        W37146   8.028   0.997  10.274 -0.0674 -0.1825  0.0683
30547W        W37147  11.717   4.388   1.158  0.0326  0.0594 -0.2349
30548W        W37148  21.214   4.878  17.040  0.4666 -0.0657  0.0787
30549W        W37149  13.740   5.850   7.080  0.1040  0.2032  0.1041
30550W        W37150  24.226   3.462   8.840 -0.0911  0.2730 -0.1591
30551W        W37151   7.799   6.504  28.718 -0.0443 -0.0904  0.1026
30552W        W37152   7.705   3.813  21.056 -0.2554  0.1664 -0.1230
30553W        W37153  12.661   7.698  19.513  0.3013  0.0939  0.0436
30554W        W37154  13.466   4.243  25.249  0.1695  0.4178  0.0011
30555W        W37155  12.229   7.232  19.692 -0.1234 -0.0841  0.1302
30556W        W37156   1.855   4.027  27.345  0.2580 -0.0132  0.0240
30557W        W37157   3.682   3.631  23.204 -0.1739  0.0943  0.1006
30558W        W37158  13.670   1.416  23.468 -0.0757 -0.1506 -0.0991
30559W        W37159   5.333   0.354  24.101 -0.3844 -0.0464 -0.3563
30560W        W37160  13.504   3.340  28.814 -0.2860 -0.1346 -0.0177
30561W        W37161   0.009   7.854   1.990 -0.0796  0.2402 -0.2791
30562W        W37162   2.256   7.444  26.980  0.0073 -0.1708  0.0043
30563W        W37163   5.060   0.116  31.801  0.2973 -0.1583 -0.0155
30564W        W37164  12.153   1.463   6.286 -0.2947  0.3664  0.1862
30565W        W37165  23.130   3.655  31.642 -0.0041 -0.0769  0.0143
30566W        W37166  16.315   7.492   6.325 -0.1823  0.1603 -0.0976
30567W        W37167  10.689   3.214  21.104 -0.0711 -0.1006  0.2338
30568W        W37168   6.512   7.467   8.734  0.1131  0.2854  0.1139
30569W        W37169   0.243   4.087  30.668 -0.1373 -0.0680  0.3329
30570W        W37170  21.150   5.610  27.025 -0.0637 -0.0111  0.2831
30571W        W37171   2.693   0.587  27.840 -0.0880 -0.0664 -0.0429
30572W        W37172   6.378   4.170   1.125 -0.0908 -0.0565  0.0771
30573W        W37173  11.637   0.755   6.346  0.1907  0.2199 -0.0424
30574W        W37174  21.934   6.195   3.380 -0.0544  0.1110 -0.1366
30575W        W37175  19.021   0.129  27.850 -0.1708  0.0589  0.0518
30576W        W37176   3.366   4.119  22.410 -0.0167 -0.1369 -0.0384
30577W        W37177  20.768   6.010   8.376  0.2110  0.1995 -0.2865
30578W        W37178   5.696   6.314  23.705  0.0255  0.2374  0.2579
30579W        W37179   2.843   6.569   1.556 -0.1489  0.0493 -0.0924
30580W        W37180   8.375   1.405  23.220  0.1373  0.0035  0.2328
30581W        W37181  18.014   5.696   0.183 -0.2928 -0.0283 -0.0628
30582W        W37182   6.820   1.039  21.508 -0.1296  0.4762 -0.4181
30583W        W37183  19.800   7.298  30.253 -0.1200  0.0126  0.2428
30584W        W37184   7.024   2.988  30.418  0.0286  0.0935 -0.0409
30585W        W37185   8.017   6.581   3.350  0.3234  0.0026 -0.1094
30586W        W37186  23.940   6.379  12.215  0.1136  0.0048 -0.0988
30587W        W37187  16.911   5.326  12.360  0.1622 -0.1449 -0.1767
30588W        W37188   7.446   0.299   0.723  0.0556 -0.3635 -0.0655
30589W        W37189   0.668   7.334  23.349  0.4668 -0.0726 -0.2432
30590W        W37190   7.861   2.869  17.037  0.2446 -0.1157  0.2663
30591W        W37191   2.349   6.703  24.200 -0.0087 -0.3333  0.1412
30592W        W37192   1.949   0.569   0.646 -0.3756  0.0842  0.2383
30593W        W37193   9.269   7.291  10.262 -0.0923  0.1749  0.3078
30594W        W37194  22.971   0.700  10.207  0.1460  0.1250  0.1237
30595W        W37195   5.662   6.836  32.041 -0.3500 -0.0580 -0.5949
30596W        W37196  12.727   4.583  18.865  0.1658 -0.0294 -0.0683
30597W        W37197  16.933   5.967  22.522  0.1316 -0.2876  0.1953
30598W        W37198  12.111   6.802  12.150 -0.0141 -0.0414 -0.3057
30599W        W37199   5.207   4.014  15.368  0.3168 -0.1782 -0.0782
30600W        W37200  17.700   0.558   3.249 -0.2776  0.3261 -0.3567
30601W        W37201   2.328   3.990  19.862  0.3158  0.1633  0.1155
30602W        W37202  17.577   1.486   1.410 -0.1293 -0.0017 -0.3865
30603W        W37203  17.629   6.355  30.780  0.0978  0.2896 -0.1107
30604W        W37204   1.824   6.795  24.170  0.0086 -0.0146 -0.1691
30605W        W37205   9.355   7.066   5.736 -0.1924 -0.0810  0.0912
30606W        W37206  14.705   3.737   9.486  0.2228  0.0461  0.0493
30607W        W37207   6.854   0.781   9.675  0.2185 -0.5166  0.3409
30608W        W37208   0.090   7.415   1.498 -0.1764  0.1070 -0.1354
30609W        W37209  22.467   3.145   2.997  0.1192 -0.2521 -0.3218
30610W        W37210   9.088   2.439   6.514 -0.0381 -0.1338 -0.0123
30611W        W37211  24.533   2.111  27.581  0.5065  0.1818  0.1540
30612W        W37212  24.823   5.260   7.879  0.2566 -0.0199 -0.1330
30613W        W37213  23.108   3.104  30.253  0.0665 -0.4150  0.7155
30614W        W37214  17.670   7.151  11.138 -0.1197 -0.0145 -0.0395
30615W        W37215  24.809   3.234  20.208  0.1815 -0.1653  0.2410
30616W        W37216  13.977   4.720   6.177 -0.1766  0.1544  0.2043
30617W        W37217  24.341   2.755  11.624  0.0538  0.0618  0.3170
30618W        W37218   4.909   6.825  25.605  0.1155  0.0803  0.2692
30619W        W37219  12.379   0.433   8.523 -0.3957 -0.0208 -0.2322
30620W        W37220   6.160   0.520  31.489  0.0221 -0.0392  0.1163
30621W        W37221  15.262   2.064   2.155 -0.0135 -0.4561 -0.0422
30622W        W37222  12.223   5.031   6.773 -0.2328 -0.1646  0.3614
30623W        W37223  18.524   3.443  22.669 -0.2193 -0.0792 -0.0068
30624W        W37224  10.600   2.854   4.667  0.0251 -0.0584  0.0390
30625W        W37225  11.065   3.159  30.030  0.0105  0.0331  0.1379
30626W        W37226   3.430   0.810   7.283  0.0603  0.0705 -0.2030
30627W        W37227  10.521   1.279  10.557  0.0949 -0.2926 -0.0442
30628W        W37228  22.006   3.474   5.887 -0.0894 -0.1728 -0.1334
30629W        W37229   3.621   1.418  30.699 -0.1872 -0.0215 -0.6155
30630W        W37230  15.219   7.493  20.983 -0.0118  0.1989  0.1334
30631W        W37231   4.485   2.066   9.163  0.0602 -0.2212  0.0356
30632W        W37232  24.814   1.971  25.532 -0.1065 -0.3041 -0.2144
30633W        W37233  12.608   6.134   1.968  0.1709  0.3196 -0.0153
30634W        W37234   5.441   5.155   4.718  0.3443 -0.2816 -0.1167
30635W        W37235   3.449   3.868  21.180  0.0494 -0.0879  0.1429
30636W        W37236   4.977   5.711  31.750  0.0694 -0.0377  0.1390
30637W        W37237  21.838   5.419  30.355  0.0011 -0.0324  0.1627
30638W        W37238  13.362   5.527   5.112  0.3284  0.0236  0.0024
30639W        W37239   6.273   1.403  30.608  0.2996  0.0760  0.0747
30640W        W37240  19.622   0.487   5.496  0.1261 -0.3251  0.3891
30641W        W37241   0.296   0.045   9.363 -0.2325  0.0520 -0.0734
30642W        W37242  11.516   1.072  19.742  0.1754 -0.0255  0.3849
30643W        W37243  18.280   0.312   5.242 -0.0149  0.1042 -0.0523
30644W        W37244  23.217   2.882  13.901 -0.0396 -0.3190 -0.0112
30645W        W37245   7.075   2.219  14.239  0.1779 -0.1047  0.1769
30646W        W37246  12.771   2.412  21.459 -0.1442  0.3032 -0.0292
30647W        W37247  20.570   1.094  16.091  0.1295  0.0217  0.1382
30648W        W37248  23.760   2.933  27.244  0.0038 -0.1170 -0.3182
30649W        W37249   4.043   2.910  30.913 -0.2293  0.2126 -0.0592
30650W        W37250  17.774   2.733  14.123  0.0255 -0.0501 -0.2445
30651W        W37251  15.814   3.247  30.365  0.1466 -0.0127 -0.0756
30652W        W37252  11.301   5.067  26.214  0.1385 -0.0442  0.1765
30653W        W37253   6.398   0.050  17.341 -0.2595  0.1613  0.2212
30654W        W37254   5.555   5.772   0.508 -0.0704  0.1383 -0.0614
30655W        W37255   2.233   5.224  26.569 -0.1244 -0.0405 -0.0119
30656W        W37256   7.625   4.114   8.697  0.0590 -0.1029 -0.0728
30657W        W37257   0.969   6.373   0.993  0.1937 -0.0832 -0.0156
30658W        W37258  19.681   7.103  31.506  0.0014  0.2176 -0.1005
30659W        W37259  20.866   0.973   5.925  0.1369 -0.0146  0.2794
30660W        W37260  11.730   6.654   6.078 -0.0279 -0.0341  0.1556
30661W        W37261  14.135   6.541  13.452  0.0457  0.0194 -0.1721
30662W        W37262  17.237   3.653   9.973 -0.1766 -0.0262 -0.0014
30663W        W37263  23.703   6.166   3.865 -0.0846 -0.0201  0.0798
30664W        W37264   2.060   0.900  25.534  0.0483  0.0840  0.2056
30665W        W37265  16.422   6.524   8.718 -0.0621 -0.2433 -0.0295
30666W        W37266   9.757   3.636  19.628 -0.0555 -0.0943 -0.1835
30667W        W37267   1.888   3.620  23.401 -0.1187 -0.1662  0.1462
30668W        W37268  21.579   5.707  21.714  0.2678 -0.0664  0.1881
30669W        W37269   5.897   5.885  23.825 -0.0092 -0.0763  0.0169
30670W        W37270  19.655   7.459  16.226  0.1751 -0.3918 -0.0553
30671W        W37271   8.092   1.184  14.954 -0.3296  0.0644  0.0013
30672W        W37272   9.052   2.378   5.145 -0.2020 -0.1295  0.2010
30673W        W37273  13.744   6.259  13.089  0.1382  0.1139  0.0650
30674W        W37274   3.209   6.367  21.991  0.0311  0.2320 -0.3292
30675W        W37275  23.811   4.961  23.443 -0.3591  0.2288  0.4211
30676W        W37276  22.221   5.122   7.498 -0.2920 -0.0914 -0.4543
30677W        W37277  10.072   1.489   7.748  0.0012 -0.0579 -0.1782
30678W        W37278  11.008   2.778   1.706 -0.0692 -0.0606 -0.0053
30679W        W37279  14.230   4.417  12.265  0.2131  0.0521 -0.0035
30680W        W37280   5.278   0.078  23.305 -0.3649  0.1678  0.2625
30681W        W37281  15.363   2.606   5.071 -0.0054  0.4263 -0.0900
30682W        W37282  13.906   0.962  32.108 -0.1655 -0.0596  0.2093
30683W        W37283  16.688   4.257  29.655  0.0077  0.0021  0.0560
30684W        W37284  20.056   2.708   4.135 -0.1010 -0.2238 -0.1280
30685W        W37285  18.132   1.895  16.228  0.2694  0.1969 -0.0865
30686W        W37286   5.895   1.162   9.299  0.0288  0.3609  0.2204
30687W        W37287  17.668   2.326  10.670  0.2191  0.2912 -0.1895
30688W        W37288  17.353   6.123  17.548 -0.2174  0.1958  0.2819
30689W        W37289   5.276   7.159  30.113  0.1589 -0.1279 -0.0188
30690W        W37290  24.266   7.832  26.423  0.0474  0.1676 -0.0131
30691W        W37291  20.255   5.566   7.667 -0.3857 -0.1049 -0.1778
30692W        W37292  17.971   6.724   9.616  0.1903 -0.2523 -0.0063
30693W        W37293  18.221   2.466   3.574 -0.0640  0.0443 -0.0121
30694W        W37294  10.947   2.827   5.915  0.0181 -0.3182  0.0213
30695W        W37295  12.934   7.403  22.726  0.3147 -0.0335  0.3244
30696W        W37296   2.814   5.289   3.378 -0.2018  0.1729  0.1716
30697W        W37297  19.821   0.043   6.346 -0.0945  0.0022  0.1182
30698W        W37298   3.583   5.891  23.486 -0.1613 -0.0296 -0.1585
30699W        W37299   4.165   7.306   7.488  0.0705  0.2323  0.0520
30700W        W37300   7.192   0.759  20.579  0.0687  0.0662 -0.1154
30701W        W37301  12.478   3.855  22.656 -0.0548  0.0853 -0.2999
30702W        W37302  21.071   5.052  27.439 -0.1691 -0.2295  0.1144
30703W        W37303  23.737   2.172   9.492  0.1378  0.0565 -0.1732
30704W        W37304   7.274   1.531  14.945  0.1347  0.1449 -0.0003
30705W        W37305  11.639   4.242  28.444 -0.0730  0.1082 -0.1091
30706W        W37306  24.234   5.820   5.388  0.2260 -0.0446 -0.1285
30707W        W37307   9.130   4.154  29.506  0.3877 -0.3213  0.0577
30708W        W37308  21.689   0.723  10.002  0.0496 -0.1532  0.1372
30709W        W37309  13.654   6.950   0.556  0.1817  0.1019 -0.0049
30710W        W37310  15.605   0.124  30.972  0.3108  0.0455  0.0971
30711W        W37311   0.125   4.980   1.542 -0.2802 -0.1597  0.0700
30712W        W37312   7.236   6.308  25.310 -0.1903 -0.0641 -0.2461
30713W        W37313  14.942   1.658  29.679  0.0551 -0.2588 -0.1244
30714W        W37314  20.481   3.758   6.412  0.0892 -0.0658  0.0086
30715W        W37315   4.520   6.634   4.663 -0.0073 -0.1527 -0.3107
30716W        W37316  22.265   7.082  22.406  0.2276 -0.0970  0.0074
30717W        W37317  17.975   6.646  29.123  0.2145 -0.0269  0.0902
30718W        W37318  16.035   7.753  24.092  0.0398 -0.0930  0.1191
30719W        W37319  22.873   2.903   3.678 -0.1809  0.2664 -0.0450
30720W        W37320  16.785   1.726   3.346 -0.0777 -0.0302 -0.2098
30721W        W37321   5.771   4.861  16.032 -0.1576 -0.0890  0.0986
30722W        W37322   5.325   2.495   6.322  0.0586 -0.3313  0.0341
30723W        W37323  10.004   2.846  26.279  0.0496 -0.3457  0.0824
30724W        W37324  24.196   6.594  26.351  0.2036 -0.0205 -0.2537
30725W        W37325  13.734   7.386  22.367 -0.0421  0.1326 -0.1235
30726W        W37326  19.970   1.782  14.453 -0.0578  0.2114  0.2278
30727W        W37327  16.458   3.551  30.363  0.0347 -0.0389  0.1197
30728W        W37328  21.324   7.577  26.700  0.1515  0.0331  0.0263
30729W        W37329   5.881   5.956  21.993  0.2056 -0.0855  0.0158
30730W        W37330  25.097   4.328  20.386 -0.1587 -0.2603 -0.0876
30731W        W37331  16.012   3.479  16.619  0.0197  0.1965  0.2266
30732W        W37332  21.858   7.018  12.441  0.0059 -0.2055  0.1853
30733W        W37333   8.184   0.663  18.547 -0.0101 -0.1552 -0.0088
30734W        W37334  21.132   4.740   5.928 -0.0301  0.0598 -0.1189
30735W        W37335   1.712   1.703  28.173  0.0152  0.0060 -0.0627
30736W        W37336   0.882   5.003  29.944 -0.2676 -0.1843  0.0592
30737W        W37337  15.043   7.472  29.032 -0.2483  0.0972  0.3525
30738W        W37338   0.980   2.251   6.285 -0.0412  0.0976  0.1385
30739W        W37339  19.835   7.680   1.287 -0.1367 -0.0476  0.0665
30740W        W37340   6.723   6.061   2.697  0.0445  0.1469  0.1622
30741W        W37341   9.178   2.742  18.878  0.0745 -0.1609  0.1510
30742W        W37342  22.074   6.623  27.542  0.2018 -0.2479 -0.0227
30743W        W37343  16.613   0.853   8.212 -0.2219 -0.2199  0.2663
30744W        W37344  18.839   7.004   0.007  0.3170  0.3058  0.0252
30745W        W37345   9.803   3.838  17.311  0.0000  0.0731 -0.0605
30746W        W37346  10.114   4.958  29.451 -0.1729  0.1013  0.3017
30747W        W37347   3.616   1.670  28.063 -0.4574  0.1264 -0.1578
30748W        W37348   1.839   3.225  10.350  0.0070 -0.0712  0.1764
30749W        W37349  21.585   1.028  16.205  0.1783 -0.0127  0.2453
30750W        W37350  19.568   0.563  10.024  0.1474 -0.0364 -0.1232
30751W        W37351   4.743   2.961  28.927 -0.0558  0.1623  0.2545
30752W        W37352   9.243   3.541  26.179  0.1323  0.1872  0.0547
30753W        W37353  20.806   4.406  10.559  0.1045 -0.0604  0.1971
30754W        W37354  23.287   6.052   4.748 -0.2847  0.0260  0.0777
30755W        W37355  20.594   6.187   6.111  0.1509  0.1568  0.1122
30756W        W37356  19.915   0.881  29.623  0.4597  0.2642 -0.2160
30757W        W37357  16.284   3.709  14.436 -0.1746  0.2462 -0.2310
30758W        W37358  18.726   3.368   7.827  0.0577 -0.1003  0.1300
30759W        W37359  24.922   4.797  27.865 -0.2050 -0.1483 -0.1029
30760W        W37360   6.693   0.257   0.466 -0.1317  0.0265  0.0205
30761W        W37361   6.052   7.384   3.604 -0.0290 -0.3699 -0.2254
30762W        W37362   2.915   7.476  18.335 -0.0771 -0.0698 -0.1764
30763W        W37363  21.828   1.390  30.071  0.0285  0.1211  0.0818
30764W        W37364   6.022   5.196  29.150 -0.0236  0.3252  0.2370
30765W        W37365   2.789   4.659  23.811 -0.0011 -0.1541 -0.3183
30766W        W37366   1.829   6.587  10.516 -0.0110  0.2170  0.1042
30767W        W37367   0.393   6.831   5.726 -0.0191 -0.3685 -0.1616
30768W        W37368   6.651   4.303   2.286 -0.0225 -0.1699  0.3299
30769W        W37369  11.751   7.689  18.003 -0.1372 -0.0166 -0.0368
30770W        W37370   1.298   0.158  32.509  0.3721 -0.2221  0.0118
30771W        W37371   1.095   6.537   0.171  0.0144  0.0829  0.1791
30772W        W37372   0.747   6.755  22.601 -0.4052  0.1986 -0.0033
30773W        W37373  21.456   7.744  30.472  0.2449 -0.1461  0.0767
30774W        W37374  10.911   0.209  25.744  0.1548 -0.2973 -0.1337
30775W        W37375  19.559   2.696  26.744 -0.1820 -0.0705 -0.0670
30776W        W37376  11.751   0.200  27.343  0.0691  0.1549  0.1455
30777W        W37377  15.338   2.863  29.676 -0.1048  0.0286 -0.2770
30778W        W37378   1.310   5.402   6.798  0.4535  0.1504  0.0973
30779W        W37379  13.705   6.486   3.461  0.0257  0.1594 -0.1545
30780W        W37380   1.514   3.402   0.778 -0.2479  0.1224  0.2788
30781W        W37381   4.608   3.238   1.990 -0.1717  0.0340 -0.2656
30782W        W37382  15.893   2.640  11.846  0.3090 -0.1282 -0.1639
30783W        W37383   6.984   0.540  17.784 -0.0674  0.0954  0.0362
30784W        W37384  12.036   4.489  10.820 -0.1998  0.0928  0.0744
30785W        W37385  11.751   2.487  31.824  0.0316  0.0353 -0.0275
30786W        W37386  20.867   2.593  13.873 -0.0016  0.1656 -0.2192
30787W        W37387  24.431   4.724   2.928  0.2639 -0.0176 -0.1614
30788W        W37388  17.617   0.196   6.533  0.2707 -0.1039  0.3506
30789W        W37389  17.428   2.535   3.350 -0.2968  0.1268  0.1207
30790W        W37390  10.267   1.338   3.091 -0.1091 -0.1601  0.0575
30791W        W37391  18.921   3.400  23.088  0.0835  0.0876  0.1918
30792W        W37392  13.975   2.667  25.000 -0.1075  0.0880  0.4101
30793W        W37393  17.519   0.258  29.602  0.1482 -0.0393 -0.3967
30794W        W37394   2.920   2.110  29.422 -0.2953  0.2454  0.2041
30795W        W37395  17.204   2.621   5.451  0.1629 -0.1347  0.0025
30796W        W37396  13.132   1.762   8.782 -0.0284  0.1306  0.0027
30797W        W37397  11.813   1.139   8.932  0.0269 -0.0341 -0.0829
30798W        W37398   3.895   0.689   3.274  0.0227 -0.0963 -0.1216
30799W        W37399  20.158   1.209   0.255 -0.0605  0.0529  0.0139
30800W        W37400  21.123   6.635  10.958 -0.1480 -0.1585 -0.1138
30801W        W37401   6.657   7.128  27.765  0.0876  0.1239 -0.0742
30802W        W37402  24.009   3.984  25.113 -0.0533 -0.0840  0.3238
30803W        W37403   6.257   6.069  32.454  0.0553 -0.3627 -0.0988
30804W        W37404  17.524   6.745  24.776  0.0243  0.0233 -0.1357
30805W        W37405   6.291   4.457  21.651  0.0010 -0.2233  0.0396
30806W        W37406  10.138   4.276   6.405  0.3752  0.1105  0.2547
30807W        W37407  22.972   0.679  15.979  0.1366  0.1166 -0.2737
30808W        W37408   9.245   7.257  19.070 -0.1393  0.0849 -0.3295
30809W        W37409  23.043   7.320  28.071 -0.1781  0.2008  0.0852
30810W        W37410   8.411   1.732   0.570 -0.0681 -0.1582  0.2491
30811W        W37411  19.579   5.023  28.942  0.1783  0.0397 -0.2717
30812W        W37412  21.150   7.361  12.454  0.0107  0.1841  0.1327
30813W        W37413   7.954   6.920   2.521  0.1229  0.0980  0.1680
30814W        W37414  18.229   6.216   8.236  0.5021 -0.2584  0.0172
30815W        W37415  12.122   3.728  31.005 -0.0607 -0.0147  0.1427
30816W        W37416   1.360   3.235  11.927  0.1530  0.1589 -0.2561
30817W        W37417  18.380   4.297  30.772  0.0956 -0.0378 -0.2326
30818W        W37418  14.863   7.095  25.915 -0.1806 -0.0368 -0.2342
30819W        W37419   8.048   2.842  23.813  0.2379  0.0810  0.0542
30820W        W37420  18.005   2.051  32.500  0.0004 -0.0005  0.1549
30821W        W37421  13.938   7.574   3.303 -0.2719 -0.2353  0.1086
30822W        W37422   2.531   7.510  22.326 -0.1498  0.0832 -0.1047
30823W        W37423   1.593   7.813   0.241  0.1625 -0.0474  0.3010
30824W        W37424   5.159   1.562   6.312 -0.2819 -0.0155  0.0503
30825W        W37425  10.865   7.346   5.029 -0.2532 -0.0881  0.0570
30826W        W37426  20.098   2.550   9.220 -0.0225  0.3261 -0.1488
30827W        W37427   3.991   2.653   4.076  0.2491  0.1899  0.5342
30828W        W37428  19.985   4.933  30.916 -0.0613  0.0927  0.0963
30829W        W37429  18.504   3.436   5.459 -0.0055 -0.0226 -0.0509
30830W        W37430   1.545   0.773  31.804  0.3392 -0.2633  0.4657
30831W        W37431  16.910   7.327   9.069 -0.0381  0.0114 -0.0852
30832W        W37432  22.987   4.574  29.588 -0.1302  0.1430 -0.3088
30833W        W37433   4.763   2.289  19.254  0.1702 -0.0770  0.1904
30834W        W37434   0.050   4.595  10.764  0.3824 -0.6987 -0.0998
30835W        W37435  23.558   5.778  22.714 -0.0707 -0.1857  0.2043
30836W        W37436  16.961   0.151  13.831  0.1092  0.0958  0.2157
30837W        W37437   6.824   3.765  30.087 -0.0186  0.1989 -0.0256
30838W        W37438  17.008   0.034  16.006  0.0852 -0.1467 -0.3575
30839W        W37439  17.777   6.404   1.899 -0.1725  0.0539 -0.3513
30840W        W37440  13.721   7.229  30.935 -0.0049 -0.2598 -0.0666
30841W        W37441  20.896   3.517  16.042  0.1023 -0.0604  0.0533
30842W        W37442   3.016   0.107  11.501 -0.1225  0.2484  0.1187
30843W        W37443  18.151   7.569  28.095 -0.2596 -0.1357 -0.0013
30844W        W37444  22.976   4.478  12.612  0.0723 -0.5321 -0.1055
30845W        W37445   3.593   1.971  27.114  0.4283 -0.0006  0.1451
30846W        W37446  21.679   2.704  11.560 -0.0089 -0.2604  0.3771
30847W        W37447  21.669   5.475  22.927  0.1097  0.0413 -0.3877
30848W        W37448  20.577   2.610   2.377 -0.3432 -0.1081 -0.1844
30849W        W37449   6.220   4.028   3.088 -0.1293  0.2108 -0.2497
30850W        W37450  19.243   6.499   7.831 -0.3610 -0.0967 -0.0032
30851W        W37451   5.690   0.090  21.183  0.2239  0.1457 -0.0145
30852W        W37452  18.283   7.049  26.465 -0.1075 -0.0338 -0.0697
30853W        W37453   6.099   5.042  25.561  0.0330  0.0220  0.1953
30854W        W37454   6.498   6.465  20.633 -0.0666  0.1273  0.2001
30855W        W37455   7.925   4.072   9.131  0.0441  0.2810  0.1299
30856W        W37456  12.046   3.523   2.121 -0.0011 -0.1112 -0.0447
30857W        W37457  12.934   4.392  30.108  0.1818  0.0493 -0.0656
30858W        W37458  21.220   3.362  25.191  0.0675 -0.3238 -0.1205
30859W        W37459   9.096   6.701  28.618  0.0778 -0.0113  0.3232
30860W        W37460   6.464   6.142   9.482  0.2532  0.0112 -0.2784
30861W        W37461  16.441   1.993  31.629  0.2547  0.0839 -0.0335
30862W        W37462   0.848   0.494   1.501 -0.1685 -0.0236 -0.0725
30863W        W37463   6.601   6.927  29.033 -0.0843 -0.0521 -0.2077
30864W        W37464  18.286   4.444  24.305 -0.0016 -0.0053  0.5878
30865W        W37465   3.919   5.360  25.187  0.0105  0.2458 -0.2300
30866W        W37466   7.530   0.374  20.337 -0.3468 -0.0301 -0.2528
30867W        W37467  22.567   0.704  27.199 -0.1443  0.0930  0.1124
30868W        W37468  16.283   4.593   8.976 -0.3361 -0.1677 -0.4312
30869W        W37469   0.516   2.430  11.628 -0.2549  0.0228 -0.0710
30870W        W37470  24.164   6.544  12.680  0.0455 -0.0020  0.0855
30871W        W37471  10.773   2.679  19.128  0.0120 -0.3270  0.0608
30872W        W37472  18.113   3.033  12.372  0.1949 -0.0744 -0.1095
30873W        W37473  10.780   3.137   0.811 -0.3248 -0.0990  0.1897
30874W        W37474  14.732   7.808  29.224 -0.3290  0.0404 -0.1457
30875W        W37475  25.078   1.879  31.362  0.0581 -0.0124 -0.1189
30876W        W37476  13.264   1.506   4.030 -0.0127  0.1230 -0.0650
30877W        W37477  20.124   3.702  15.598  0.1967 -0.2598 -0.0810
30878W        W37478   3.093   6.256  26.678 -0.1824  0.0984  0.0973
30879W        W37479  10.010   5.965  22.582 -0.0770  0.0053 -0.0486
30880W        W37480  22.532   2.790  21.868 -0.3336  0.0901 -0.0118
30881W        W37481  24.736   6.977  27.337  0.0869  0.2153 -0.0674
30882W        W37482  11.331   4.382  31.056  0.1715 -0.1079  0.1048
30883W        W37483  13.334   0.359  25.135  0.0423  0.0090 -0.0156
30884W        W37484   7.015   0.275   8.244 -0.3568  0.1568  0.1707
30885W        W37485   1.640   7.018  21.450  0.1038 -0.1417 -0.1096
30886W        W37486   8.731   3.314  25.574  0.0626  0.2876  0.1847
30887W        W37487   9.465   3.196  18.937  0.2649  0.0795  0.0256
30888W        W37488   5.872   7.152  22.918 -0.0229 -0.0368 -0.0080
30889W        W37489  15.413   3.806  14.519 -0.0276 -0.0038  0.0042
30890W        W37490   1.716   1.177  27.380 -0.0355 -0.2612 -0.0808
30891W        W37491   4.796   7.796  29.622  0.2272 -0.1587 -0.1896
30892W        W37492   5.591   5.583  25.745 -0.0667 -0.2268  0.0162
30893W        W37493  23.915   1.540   3.243  0.4226  0.0356 -0.1793
30894W        W37494  23.280   2.623   4.814 -0.3218  0.0786  0.0866
30895W        W37495   4.949   0.593  15.937  0.0111  0.1486  0.0050
30896W        W37496   9.094   7.342  24.579 -0.1595  0.0283 -0.0573
30897W        W37497  11.259   4.868  24.931 -0.0151 -0.3988  0.3225
30898W        W37498   5.408   1.065  19.417  0.2684  0.1435  0.1427
30899W        W37499   4.221   4.912   0.504 -0.2399  0.1082  0.2647
30900W        W37500  24.982   0.209  24.465  0.1207 -0.2076  0.2387
30901W        W37501  23.297   1.341   2.041  0.0920  0.1071 -0.0785
30902W        W37502   1.180   0.579  26.841  0.1368  0.0270  0.0060
30903W        W37503  23.765   5.906   6.881 -0.3245 -0.2002  0.1174
30904W        W37504  22.833   3.522  22.690 -0.1221  0.0541  0.0109
30905W        W37505   4.958   4.929  32.259 -0.0557  0.2749 -0.2889
30906W        W37506  17.824   6.001  10.364  0.0596  0.3082 -0.0920
30907W        W37507  19.032   0.786   7.277  0.2274  0.1343 -0.0416
30908W        W37508  15.208   5.806   1.680 -0.0514 -0.0561 -0.3070
30909W        W37509   2.710   4.493  21.891  0.2044 -0.1924  0.3206
30910W        W37510   8.161   3.427  16.726  0.0976  0.1806 -0.1191
30911W        W37511  10.841   1.999  30.304 -0.0169  0.0228 -0.3592
30912W        W37512  16.606   7.168   0.173 -0.0191 -0.2851  0.0271
30913W        W37513   6.975   3.037  23.579  0.1937  0.2370  0.0674
30914W        W37514  11.125   2.895   8.984 -0.2007  0.3497 -0.1002
30915W        W37515  19.195   7.479  14.497  0.0252  0.0878  0.0011
30916W        W37516  24.131   1.938  27.353 -0.1435 -0.1074 -0.0974
30917W        W37517   3.891   1.038   4.279  0.2727  0.1950 -0.0368
30918W        W37518  18.003   2.339  29.653  0.0754 -0.1479  0.2146
30919W        W37519  21.325   4.312  13.016  0.1713 -0.0918  0.3749
30920W        W37520  21.287   7.255  13.707 -0.2573  0.1103 -0.2845
30921W        W37521  17.955   0.820  12.495  0.1491  0.0002 -0.0372
30922W        W37522  14.480   1.144  21.503  0.4174  0.1478  0.0604
30923W        W37523   4.557   7.663   1.256  0.1073 -0.1042 -0.1339
30924W        W37524  18.872   5.541  25.829 -0.2492  0.0566 -0.1447
30925W        W37525  21.116   1.305  25.595 -0.1392 -0.1030 -0.2334
30926W        W37526  20.607   1.567   9.471  0.0872 -0.1359  0.2899
30927W        W37527   7.427   4.722   4.308 -0.0126 -0.1518  0.0511
30928W        W37528  22.209   1.140  13.294 -0.1830 -0.2527  0.2002
30929W        W37529  21.132   6.988  24.756 -0.1954 -0.3769  0.1669
30930W        W37530  15.298   0.155  22.232  0.0507 -0.3279 -0.1099
30931W        W37531  22.258   4.040  13.510  0.0309 -0.2688  0.1342
30932W        W37532  15.770   5.431   4.917  0.1629 -0.0196  0.0495
30933W        W37533   6.284   1.136  20.562 -0.2722  0.1119  0.0345
30934W        W37534   2.687   6.051  21.262  0.0326 -0.0806  0.1773
30935W        W37535  22.461   3.039  31.791  0.0081  0.3490 -0.1218
30936W        W37536  21.609   2.956  28.019 -0.4187 -0.2605  0.2617
30937W        W37537  19.901   2.901   3.635 -0.0375  0.1718  0.2849
30938W        W37538  18.074   2.952  32.358 -0.1025  0.0493 -0.0500
30939W        W37539  16.966   3.203  11.666  0.2413 -0.0788 -0.1469
30940W        W37540   9.903   7.149   0.951 -0.3990  0.0832  0.2080
30941W        W37541   7.618   5.677  14.291 -0.1275  0.1696 -0.0928
30942W        W37542   1.317   6.643  28.361  0.0330  0.2367 -0.0531
30943W        W37543   3.501   5.242  32.193 -0.1427 -0.1441  0.1172
30944W        W37544   4.965   6.308   0.055  0.0734 -0.4531  0.2108
30945W        W37545   3.362   6.240  19.555  0.0086 -0.1235  0.1296
30946W        W37546   4.070   6.606  23.385  0.3138  0.1695 -0.0877
30947W        W37547  12.375   4.023  26.042 -0.1364 -0.2087 -0.0391
30948W        W37548  18.726   6.022  31.578 -0.3065  0.0275  0.1688
30949W        W37549  14.442   4.360  25.259 -0.0429 -0.0258 -0.1742
30950W        W37550   1.987   7.826  30.225  0.1392  0.0270 -0.3105
30951W        W37551  23.124   1.772   7.144  0.1825 -0.1314 -0.2211
30952W        W37552  11.095   2.644  18.684  0.2088  0.2915  0.1143
30953W        W37553   0.724   0.318   9.857  0.0875  0.1673 -0.1797
30954W        W37554  13.146   1.508  14.037 -0.0040 -0.0395 -0.1523
30955W        W37555  17.610   2.386   2.953  0.2955 -0.0804  0.0173
30956W        W37556  25.009   3.345  21.136  0.0293 -0.0893 -0.0743
30957W        W37557  20.987   3.611  12.531 -0.0188 -0.0630 -0.0873
30958W        W37558  10.377   6.102  10.277  0.1923 -0.1596  0.3964
30959W        W37559   6.840   0.230   3.536  0.0914  0.0285  0.0657
30960W        W37560   8.649   2.315   5.444  0.0367 -0.2842 -0.0770
30961W        W37561   7.018   0.102   6.912 -0.1067 -0.0017  0.2721
30962W        W37562  19.696   6.454   1.672 -0.2421  0.0667  0.0336
30963W        W37563  24.086   4.153  13.397  0.0948 -0.1524  0.0025
30964W        W37564  20.117   0.770  14.563 -0.2339 -0.0445 -0.0521
30965W        W37565   4.459   6.263   5.401 -0.0731  0.1333 -0.0398
30966W        W37566  20.213   0.251  16.734 -0.1506  0.1552 -0.1056
30967W        W37567  23.435   6.542  14.715 -0.0333  0.2274  0.0065
30968W        W37568  12.779   2.773  11.019 -0.1780  0.1166  0.0663
30969W        W37569  13.466   3.757  12.111  0.1324  0.2047  0.1472
30970W        W37570  14.779   6.120   6.108  0.0140  0.2250  0.0280
30971W        W37571  16.201   4.308  31.733 -0.3034 -0.2198  0.1003
30972W        W37572  12.312   4.680  24.368  0.1036 -0.0695  0.0192
30973W        W37573  12.932   4.478   7.473  0.2612 -0.3271 -0.1470
30974W        W37574  11.700   4.443  28.866  0.0294  0.1075 -0.0425
30975W        W37575   4.762   5.830  30.036 -0.0364  0.1619 -0.0644
30976W        W37576  17.208   2.774  28.702 -0.1460 -0.2355 -0.0851
30977W        W37577  10.857   6.969  18.239 -0.0629 -0.0224 -0.3048
30978W        W37578  18.599   4.844  22.615  0.1152  0.1284  0.1043
30979W        W37579  21.900   5.989  26.019 -0.2252 -0.1632  0.1826
30980W        W37580  22.888   2.848   4.199 -0.0067 -0.0104  0.1226
30981W        W37581  22.711   0.537  30.393  0.1130  0.3724  0.1139
30982W        W37582  22.869   3.268  28.451  0.1087  0.0670  0.1504
30983W        W37583  19.633   4.277  25.979 -0.0854 -0.1564 -0.0469
30984W        W37584   9.437   4.320  16.255 -0.1588 -0.0957 -0.1462
30985W        W37585   1.709   5.833  30.667 -0.2135 -0.0656 -0.1638
30986W        W37586   4.958   2.080   0.504 -0.1630 -0.0797  0.1996
30987W        W37587  17.045   0.930   9.753 -0.0265  0.0797  0.0486
30988W        W37588  12.239   5.393  23.586 -0.2340  0.0810 -0.4268
30989W        W37589  23.986   2.100  31.908  0.1884  0.2670 -0.0624
30990W        W37590  12.987   2.706  22.793 -0.0798 -0.0011  0.1812
30991W        W37591   3.839   5.159  23.742  0.0288 -0.0058  0.1504
30992W        W37592   0.356   6.728  26.529  0.0821 -0.1956 -0.2161
30993W        W37593  10.366   1.761  25.914  0.0478 -0.3806 -0.0568
30994W        W37594  22.115   0.224  29.706  0.2610  0.1208 -0.0091
30995W        W37595  18.027   3.210  25.827 -0.0992  0.2913  0.0831
30996W        W37596  12.865   7.490  11.946 -0.2638  0.0676 -0.0443
30997W        W37597  13.561   5.471  20.349 -0.3166  0.1229  0.0193
30998W        W37598  14.854   0.544  14.749  0.1004  0.0086  0.1594
30999W        W37599  16.557   0.512   4.595  0.0435  0.1900  0.1497
31000W        W37600  11.990   6.145   0.264  0.1668  0.1257 -0.0722
31001W        W37601  15.734   7.776   1.607 -0.0826 -0.2402  0.0245
31002W        W37602  15.759   6.982   0.565 -0.2203 -0.0492  0.1967
31003W        W37603  18.140   2.388  12.339 -0.0819  0.0670 -0.0735
31004W        W37604  10.024   6.946  22.483  0.3692  0.0525 -0.1379
31005W        W37605   6.908   5.853  27.951  0.0183  0.0646 -0.4969
31006W        W37606  24.588   1.541  14.249 -0.1920 -0.0595  0.1476
31007W        W37607   8.135   5.079   4.797  0.1600  0.6218 -0.1715
31008W        W37608  16.411   0.936   4.293 -0.3552  0.2649 -0.2241
31009W        W37609  25.034   4.135   0.043 -0.2263 -0.1447 -0.0852
31010W        W37610  20.732   7.201  14.550 -0.3426 -0.0322  0.1867
31011W        W37611   7.193   3.179   3.896 -0.0526 -0.2127  0.1459
31012W        W37612  12.565   7.429  29.614 -0.0200  0.1714 -0.0623
31013W        W37613  17.317   0.343  32.502 -0.0342  0.1810 -0.0482
31014W        W37614  12.416   3.388   1.053  0.1012 -0.0147 -0.1543
31015W        W37615  17.356   5.223  22.910  0.0503 -0.1649  0.3049
31016W        W37616  21.900   7.832  30.361  0.0589  0.2683  0.1132
31017W        W37617  12.859   5.025   1.016 -0.2313 -0.2511 -0.2607
31018W        W37618  12.258   7.095   9.094 -0.0365  0.2626  0.3985
31019W        W37619  12.929   0.545  12.287  0.0104 -0.2451  0.2667
31020W        W37620   3.624   0.245  27.304 -0.0525  0.0111  0.0945
31021W        W37621   5.335   1.772  20.479  0.0813 -0.0792  0.0251
31022W        W37622   2.670   6.824  21.409  0.2280  0.1676  0.1201
31023W        W37623  22.698   7.382  15.207 -0.1949 -0.3360  0.0084
31024W        W37624  17.216   2.078   0.541 -0.3069 -0.0052  0.1163
31025W        W37625   0.795   5.520   8.172  0.0942  0.0403 -0.1065
31026W        W37626   5.322   2.850  15.023 -0.1552 -0.1299 -0.1413
31027W        W37627   7.652   0.253   3.468  0.0120 -0.3917 -0.1375
31028W        W37628  10.029   6.037   0.880  0.3304  0.2335 -0.2856
31029W        W37629  12.276   1.901  28.851 -0.0925 -0.2165  0.0554
31030W        W37630  21.040   4.512  27.119 -0.0872 -0.2548  0.0156
31031W        W37631  21.820   5.757  14.612  0.2176 -0.0143 -0.1587
31032W        W37632   2.153   4.056   0.443  0.0028 -0.2695 -0.1457
31033W        W37633   7.872   5.192  15.248 -0.1594 -0.2694  0.1045
31034W        W37634   7.014   6.639  25.604  0.0108 -0.4930  0.2022
31035W        W37635  17.504   1.194   6.540 -0.0866  0.4438  0.1936
31036W        W37636  10.970   6.796  19.184  0.0942 -0.1734 -0.2691
31037W        W37637   7.846   5.671  24.483 -0.0200  0.0583  0.1902
31038W        W37638  17.705   3.197   0.541  0.0265  0.1022  0.0261
31039W        W37639   9.832   0.760  31.390 -0.2032  0.0450  0.2185
31040W        W37640  17.371   4.924  31.690  0.0596  0.0158 -0.3422
31041W        W37641  20.916   0.261   6.575 -0.2042  0.0921 -0.3649
31042W        W37642   7.212   6.490   1.324 -0.1805  0.0334  0.1544
31043W        W37643  19.739   5.571   7.887  0.0164  0.0137 -0.1167
31044W        W37644   0.127   0.214  12.145 -0.1188 -0.2632  0.0048
31045W        W37645   5.083   5.442  25.580 -0.1176  0.1921  0.0259
31046W        W37646   3.705   4.836  10.215 -0.1529  0.1487 -0.4919
31047W        W37647   2.327   4.204   4.943 -0.0039  0.0181  0.1919
31048W        W37648   9.539   0.513   5.685 -0.1950  0.3479  0.0054
31049W        W37649  17.337   1.896   4.881 -0.1504  0.0318  0.3189
31050W        W37650  11.012   7.590  29.044 -0.0719  0.1032 -0.2158
31051W        W37651  13.767   0.064  32.338 -0.0814  0.2009  0.2064
31052W        W37652  16.291   2.886  29.193 -0.0591  0.0727  0.2713
31053W        W37653   3.035   6.741   1.059 -0.1300  0.0707  0.1042
31054W        W37654  21.404   7.240  10.207 -0.1789  0.0636  0.4944
31055W        W37655   1.195   2.704  30.789  0.0062  0.2624 -0.1393
31056W        W37656  20.767   1.361  12.146  0.1384 -0.0006  0.0443
31057W        W37657   8.646   6.903  17.773 -0.1614  0.0287 -0.1457
31058W        W37658  14.816   1.346   5.940 -0.0353  0.0504 -0.0509
31059W        W37659   7.608   7.731  26.270  0.0218 -0.0822 -0.0921
31060W        W37660   4.407   0.918   7.196  0.1539  0.1250 -0.0523
31061W        W37661  21.455   4.556  26.326 -0.1216 -0.0046  0.3024
31062W        W37662  23.737   1.187  14.211  0.0690 -0.0149  0.0679
31063W        W37663   8.543   0.543   9.085 -0.3057 -0.1878  0.0859
31064W        W37664  19.170   1.071  12.516  0.0004 -0.3825  0.1153
31065W        W37665  17.488   7.469  25.375  0.0771 -0.0749  0.2997
31066W        W37666  15.822   6.812  14.547 -0.1777  0.1126 -0.2018
31067W        W37667   9.034   6.048  17.280  0.1360  0.1181 -0.2172
31068W        W37668   7.310   5.249  17.305  0.0941  0.1845 -0.0470
31069W        W37669   4.983   5.942  25.341 -0.0700 -0.2281  0.0092
31070W        W37670  21.164   0.557  27.028 -0.0635 -0.0387  0.3135
31071W        W37671  20.717   4.969   6.727 -0.1030 -0.1078 -0.1745
31072W        W37672  19.933   5.241  10.820 -0.1394  0.0750 -0.0322
31073W        W37673  18.512   2.234  13.944 -0.2031 -0.2679  0.0280
31074W        W37674  11.964   0.657  31.505  0.3663 -0.0709  0.2861
31075W        W37675  19.849   1.656  16.983 -0.2632 -0.0741  0.3047
31076W        W37676  17.937   3.249  10.980  0.2828  0.1961  0.0101
31077W        W37677   9.550   5.599  27.763  0.3558 -0.1602 -0.0656
31078W        W37678  10.654   1.689  17.350 -0.3690  0.1146 -0.0196
31079W        W37679  16.970   2.489   7.665  0.0028 -0.1844  0.2700
31080W        W37680   2.229   2.382  10.723 -0.2033  0.1184  0.4603
31081W        W37681  11.428   4.490  32.232 -0.2836 -0.3882  0.0670
31082W        W37682   1.272   0.384  19.482 -0.1747  0.1433 -0.3230
31083W        W37683  10.095   4.626  19.414 -0.0381 -0.2840 -0.0312
31084W        W37684  21.775   5.730  12.928 -0.0496 -0.1762  0.1642
31085W        W37685  19.857   7.532   4.240 -0.4660 -0.1686 -0.1140
31086W        W37686  23.709   5.174  10.286 -0.1796  0.0323 -0.2992
31087W        W37687   2.367   0.824   0.866  0.1397 -0.0492 -0.0944
31088W        W37688   5.401   1.167  30.054  0.2824  0.1524  0.1288
31089W        W37689   0.410   3.694  24.230 -0.2143 -0.1625  0.3814
31090W        W37690   9.603   3.699  22.900 -0.1910  0.0768  0.0163
31091W        W37691   9.416   2.027   0.711 -0.0798  0.1099 -0.0093
31092W        W37692  12.683   0.520  27.913  0.1372  0.0934 -0.0033
31093W        W37693   1.232   7.472  23.699 -0.1304 -0.4814 -0.1699
31094W        W37694  19.183   0.631  22.635 -0.2449  0.3580  0.0103
31095W        W37695   1.341   2.366  27.050  0.4315  0.0240 -0.0204
31096W        W37696   0.346   2.332  32.107 -0.1874 -0.0467 -0.2467
31097W        W37697   8.054   3.437  28.930 -0.2548  0.0716 -0.0283
31098W        W37698  16.652   1.269  23.210 -0.0350  0.1943 -0.0595
31099W        W37699  19.476   0.054  22.620  0.0380 -0.1704 -0.1240
31100W        W37700   5.438   5.819  20.845  0.0289  0.2230  0.0936
31101W        W37701   0.285   6.990  10.761  0.1845 -0.1635 -0.0628
31102W        W37702   4.673   0.308   1.125  0.2797 -0.0510 -0.0442
31103W        W37703  21.278   2.838  25.304 -0.1992 -0.2136  0.1836
31104W        W37704  18.574   2.668  29.455  0.1374  0.0217  0.0138
31105W        W37705  15.158   3.014   6.394 -0.2561  0.0394  0.0645
31106W        W37706  16.026   7.847   4.484 -0.0295 -0.0048 -0.2233
31107W        W37707  17.275   0.701  24.259  0.1807 -0.1206 -0.0484
31108W        W37708   4.555   7.336  10.166 -0.0266  0.1811 -0.2358
31109W        W37709  21.043   7.056  16.386  0.0713  0.0736  0.1566
31110W        W37710  24.650   5.880  31.488 -0.0204  0.0261 -0.2020
31111W        W37711  20.278   2.251  11.087 -0.0321  0.0674 -0.0547
31112W        W37712  12.411   6.054  29.514  0.1109 -0.0231 -0.0223
31113W        W37713   5.805   4.962  29.560  0.0919 -0.0722 -0.0472
31114W        W37714   1.632   7.730   5.415 -0.3526  0.2322 -0.0493
31115W        W37715  24.722   6.255   8.643  0.1009 -0.0206 -0.0836
31116W        W37716  16.913   1.375  27.427 -0.0592  0.2140 -0.3723
31117W        W37717  11.525   7.235  18.565  0.3018  0.1444 -0.1050
31118W        W37718  18.901   0.979  29.148  0.0602 -0.0746 -0.4206
31119W        W37719   7.590   6.972  22.654  0.1120  0.2523  0.1186
31120W        W37720   0.806   5.994   2.435 -0.0979  0.0058 -0.0182
31121W        W37721  16.262   5.968  24.546 -0.0618  0.2100  0.2562
31122W        W37722  22.320   0.997  10.695  0.1782 -0.1527 -0.0201
31123W        W37723   5.656   2.893   5.174  0.0984  0.1040  0.1849
31124W        W37724  23.623   4.386   0.490 -0.0256 -0.0193 -0.2281
31125W        W37725  22.831   2.115   5.390  0.2643 -0.1426  0.1133
31126W        W37726   7.143   2.117  29.311 -0.2958 -0.0300 -0.2193
31127W        W37727  22.326   2.848  24.482 -0.0401 -0.3025  0.1676
31128W        W37728   9.450   3.887  20.919  0.1098 -0.2014 -0.1096
31129W        W37729  22.190   4.606  23.086 -0.1654  0.0924 -0.1228
31130W        W37730  14.309   7.095  13.228 -0.3014 -0.2362 -0.1648
31131W        W37731  13.600   6.319  31.033 -0.0898  0.0367 -0.0017
31132W        W37732   4.563   7.491   0.455  0.0818 -0.0559 -0.0370
31133W        W37733   9.058   1.220   5.460  0.3869  0.0893  0.1717
31134W        W37734  13.320   4.042   6.317 -0.1250 -0.0858 -0.0407
31135W        W37735  24.808   7.772   5.943  0.0471  0.0486 -0.1016
31136W        W37736   7.023   1.502   6.230 -0.1074 -0.0311 -0.0478
31137W        W37737   3.853   5.511  17.133  0.0711  0.0951 -0.1411
31138W        W37738  15.229   0.337   5.384  0.2164  0.1225 -0.0476
31139W        W37739  25.102   4.595  20.826  0.0644 -0.2530 -0.3471
31140W        W37740   1.522   3.052  25.568  0.0356  0.0616  0.0868
31141W        W37741   2.543   5.091  22.073 -0.1046 -0.2101 -0.1383
31142W        W37742   6.031   0.145  32.000 -0.2367 -0.2830 -0.2453
31143W        W37743  24.039   7.238   3.175 -0.1874 -0.0496 -0.0813
31144W        W37744   1.097   0.118   8.132  0.2207 -0.1195 -0.0478
31145W        W37745  22.930   4.339   7.095  0.0605 -0.1298  0.0013
31146W        W37746  13.291   4.924  26.723 -0.0723 -0.1554  0.0845
31147W        W37747  20.659   2.007  31.548 -0.2192 -0.0583  0.0607
31148W        W37748   8.581   3.925   3.125  0.1977  0.0712  0.0194
31149W        W37749  12.710   0.821  32.237  0.0292 -0.2840  0.1379
31150W        W37750  19.082   5.918  22.513  0.2295  0.0211 -0.0079
31151W        W37751  24.856   6.446   9.464  0.1556 -0.0123  0.1231
31152W        W37752  20.976   3.067   2.607 -0.3133 -0.0595  0.1030
31153W        W37753   8.476   0.402   5.615 -0.1870  0.0446 -0.0730
31154W        W37754  17.958   4.443  13.997 -0.0940  0.2599 -0.1496
31155W        W37755   9.173   6.118  24.150  0.1600  0.1077 -0.0801
31156W        W37756  19.863   4.723  23.595  0.0479  0.2497 -0.0734
31157W        W37757   8.735   6.320   9.032  0.1719  0.0974 -0.0347
31158W        W37758   6.638   0.672  21.915  0.3157 -0.2473  0.1516
31159W        W37759  23.108   7.045  25.381 -0.1758 -0.1149 -0.1319
31160W        W37760   0.404   7.226  29.128 -0.1846  0.0586 -0.3104
31161W        W37761   9.871   3.746  26.815 -0.1363 -0.1588 -0.3679
31162W        W37762  16.258   5.875  12.511 -0.1126 -0.0402  0.1777
31163W        W37763   4.573   3.781   2.041  0.2822  0.0685 -0.0493
31164W        W37764   4.807   7.829   3.968 -0.0376  0.0145 -0.0832
31165W        W37765   4.032   4.782  10.602 -0.0168  0.0000 -0.0012
31166W        W37766  18.386   4.904   6.663 -0.0824 -0.0997 -0.2410
31167W        W37767   3.770   4.266  23.763 -0.2795  0.2420  0.0246
31168W        W37768   9.816   3.171  25.802 -0.2552 -0.0762  0.0864
31169W        W37769   8.111   5.317  24.281  0.1321  0.0257 -0.2249
31170W        W37770  12.068   5.910   9.634 -0.0759  0.2155  0.2210
31171W        W37771  22.936   4.492   8.387  0.1030 -0.0948 -0.0462
31172W        W37772  14.529   7.001   7.219  0.2453 -0.0518 -0.0703
31173W        W37773  12.545   3.198  23.452  0.1893 -0.1271  0.2848
31174W        W37774  18.506   6.771  24.610  0.0332 -0.2392 -0.0140
31175W        W37775  16.632   1.175   5.814  0.0981 -0.0419 -0.0361
31176W        W37776   8.416   5.348  27.445  0.1159 -0.2238 -0.0728
31177W        W37777   2.439   3.000  20.038 -0.0041 -0.0275  0.1500
31178W        W37778  15.117   7.123  14.898  0.0585 -0.1915  0.0905
31179W        W37779  10.384   1.043   9.254  0.0736 -0.2344 -0.1337
31180W        W37780  17.764   4.173   2.239  0.0337  0.1337  0.0098
31181W        W37781   9.316   4.625  17.933  0.1396  0.3142  0.1252
31182W        W37782   6.897   0.930  28.056 -0.0123 -0.0951 -0.1320
31183W        W37783   2.214   3.331  17.395 -0.1560 -0.2967  0.0802
31184W        W37784  22.452   0.890  16.864  0.2938  0.2326  0.2158
31185W        W37785   2.715   5.051   5.442  0.2863 -0.0473 -0.2911
31186W        W37786  18.781   6.667   6.464 -0.1950 -0.1801 -0.1369
31187W        W37787   3.472   0.454   9.250 -0.1466 -0.1240 -0.2862
31188W        W37788  15.758   7.348   9.481  0.1166  0.1188 -0.1620
31189W        W37789   4.208   0.462   7.335 -0.0315  0.0167  0.2021
31190W        W37790  13.744   4.253   1.682 -0.0785 -0.0687 -0.0543
31191W        W37791  13.538   1.325  31.260  0.1354  0.1912 -0.1569
31192W        W37792   9.880   6.670   7.796 -0.0851  0.2595  0.3789
31193W        W37793  18.464   1.816   2.826  0.2111  0.2590 -0.1378
31194W        W37794  23.671   5.306  25.753  0.2244  0.0974  0.1361
31195W        W37795   5.416   2.492  10.154  0.1875 -0.1295 -0.1043
31196W        W37796   6.146   3.754   0.168 -0.0851  0.0817 -0.0067
31197W        W37797  11.168   1.659  30.842 -0.1678  0.0543  0.4835
31198W        W37798   2.887   1.498   8.093  0.0622  0.0415  0.1841
31199W        W37799   1.398   3.183  19.055  0.0253  0.3004  0.1440
31200W        W37800   7.423   7.279  23.848 -0.1275 -0.0457  0.0703
31201W        W37801  21.431   6.886  32.488  0.0824  0.1209  0.1340
31202W        W37802  12.580   7.509  11.056 -0.0074 -0.1930 -0.2888
31203W        W37803  17.841   0.975  15.861 -0.1306  0.0496  0.0885
31204W        W37804  19.335   4.081  15.698  0.1412  0.2103 -0.0797
31205W        W37805  15.289   7.403  31.993  0.2859 -0.2237  0.1511
31206W        W37806   2.048   1.037   2.512 -0.0112 -0.0766 -0.1247
31207W        W37807  21.291   2.934  10.935  0.0202  0.0905 -0.3060
31208W        W37808  19.477   1.978   2.382  0.0298 -0.2029 -0.0776
31209W        W37809  16.891   3.014  30.301 -0.0283 -0.0442 -0.0715
31210W        W37810   7.421   0.390  18.358  0.0435  0.0909 -0.0883
31211W        W37811  22.958   7.391   2.696  0.2853  0.1309  0.1648
31212W        W37812   7.633   5.448  15.676 -0.2528 -0.1209  0.0463
31213W        W37813   5.024   0.566  23.440  0.2019 -0.0526 -0.0705
31214W        W37814  16.637   5.036  23.419  0.0346 -0.1235 -0.2999
31215W        W37815   5.178   1.046   0.323 -0.2428 -0.2112  0.0431
31216W        W37816  17.785   3.587  29.988 -0.3358  0.2149 -0.0730
31217W        W37817   9.889   6.986  17.112 -0.1112 -0.2294  0.2837
31218W        W37818  24.466   5.081   9.703  0.1902  0.0273 -0.0048
31219W        W37819  18.491   3.736   9.410  0.0980 -0.0112  0.0528
31220W        W37820  23.822   7.505   5.884 -0.2436 -0.0931 -0.1368
31221W        W37821  21.134   6.559  24.037 -0.2148  0.1259  0.1054
31222W        W37822   4.619   4.717  26.925 -0.1202  0.0356 -0.0993
31223W        W37823  12.043   2.103   3.397 -0.0580  0.0420 -0.3956
31224W        W37824  15.469   7.629  27.356 -0.0097 -0.2168  0.0949
31225W        W37825   6.559   6.132  18.992  0.3836  0.2128 -0.1158
31226W        W37826  24.509   5.488  22.933 -0.0169 -0.0013  0.1622
31227W        W37827  20.361   3.692   9.090  0.0105 -0.1818  0.1555
31228W        W37828  19.643   2.350  15.855  0.3035 -0.0360 -0.3096
31229W        W37829  21.367   7.503  15.997 -0.0105 -0.0330  0.1412
31230W        W37830   3.082   3.960  18.411 -0.1461  0.1354  0.0486
31231W        W37831  14.915   1.545  25.521  0.0526  0.1027 -0.2034
31232W        W37832  22.500   4.971   0.395  0.2206 -0.0836  0.2903
31233W        W37833  21.443   5.134  30.545 -0.0188  0.2197  0.1166
31234W        W37834  13.184   7.618  24.009 -0.3467 -0.2786 -0.2194
31235W        W37835   2.538   7.750  17.866 -0.0494 -0.0353 -0.0281
31236W        W37836   6.216   6.450  15.317  0.1773 -0.1260  0.2481
31237W        W37837  22.168   3.815  27.877 -0.2828 -0.1565 -0.1838
31238W        W37838  15.530   7.590  28.674  0.0701  0.1814  0.2362
31239W        W37839   6.944   5.569  17.985 -0.2459 -0.0006  0.1815
31240W        W37840  11.726   1.739   3.351  0.2895 -0.0609 -0.0922
31241W        W37841  19.013   3.318  29.790 -0.0581 -0.2005  0.0597
31242W        W37842  13.527   7.245  25.590  0.0650 -0.4771  0.0488
31243W        W37843  23.891   7.532  31.717 -0.1767  0.1957  0.1352
31244W        W37844   4.733   3.198   7.723  0.3516 -0.2375 -0.0573
31245W        W37845  11.422   1.470   8.821  0.0360 -0.0130  0.4238
31246W        W37846   2.521   0.792  30.880 -0.1212 -0.0284  0.1281
31247W        W37847  18.626   6.032   4.372  0.2288 -0.0056 -0.2401
31248W        W37848  17.667   3.671   0.414 -0.1888 -0.0129 -0.3038
31249W        W37849   2.574   1.008   7.647  0.0634  0.3033  0.3027
31250W        W37850  19.510   3.265  12.552  0.0396  0.1577  0.0162
31251W        W37851   2.597   1.459  23.035 -0.0461 -0.0438  0.0108
31252W        W37852  12.090   7.299   6.117 -0.0788 -0.0222 -0.0758
31253W        W37853  14.420   4.935   6.279  0.2074 -0.1993 -0.0242
31254W        W37854   3.071   3.947  25.126  0.0869  0.1542 -0.3038
31255W        W37855   8.088   3.519  28.037  0.0732  0.0376  0.0539
31256W        W37856  24.623   4.213   9.692  0.2228  0.1298  0.2454
31257W        W37857  19.236   1.244  27.472  0.2449  0.1815  0.1523
31258W        W37858  23.180   0.715  31.510  0.2155 -0.1535 -0.1742
31259W        W37859  18.221   2.721  12.750 -0.1553  0.0243 -0.2758
31260W        W37860  13.886   1.030   5.400 -0.1318 -0.0763  0.0693
31261W        W37861   3.332   4.664  21.134 -0.2808 -0.0726  0.1737
31262W        W37862  19.475   7.560  16.803 -0.0377 -0.2681  0.0222
31263W        W37863  11.903   5.797  29.244 -0.1186 -0.0667 -0.0608
31264W        W37864   4.306   4.397   4.156 -0.1698 -0.2155  0.1644
31265W        W37865  20.176   7.832   7.174  0.0461  0.1424 -0.1484
31266W        W37866   7.067   6.403  16.864  0.1700 -0.2124 -0.0080
31267W        W37867   5.667   2.421   3.673 -0.1625  0.0205  0.1353
31268W        W37868  19.904   3.721   6.564  0.2265  0.3444  0.2049
31269W        W37869   2.157   5.769   2.721 -0.1001 -0.1913  0.2790
31270W        W37870  11.541   6.831   1.044  0.1674 -0.1799 -0.1146
31271W        W37871   4.111   7.655  19.593  0.0874 -0.0196 -0.0029
31272W        W37872  21.074   3.377  22.536  0.1622 -0.0294 -0.0437
31273W        W37873  24.246   2.831  27.059 -0.0793  0.0331  0.0087
31274W        W37874  12.115   0.736  24.993 -0.0024 -0.1834 -0.0677
31275W        W37875  24.646   3.782  10.746  0.2734  0.2251 -0.0472
31276W        W37876  24.654   0.189  29.483  0.1276 -0.1224  0.2240
31277W        W37877   9.541   7.618  10.619 -0.0565  0.0889 -0.0145
31278W        W37878  23.804   1.876  22.482 -0.0104  0.1366 -0.2177
31279W        W37879   3.325   1.629   4.202  0.3593  0.2038 -0.0431
31280W        W37880  24.408   6.502   6.652  0.3183 -0.4028  0.0716
31281W        W37881  15.559   6.109  15.937  0.0427  0.1686 -0.1771
31282W        W37882   2.981   0.292   9.007  0.1116 -0.2516 -0.0329
31283W        W37883  12.311   3.577  25.297  0.0727  0.1256 -0.1374
31284W        W37884  14.013   6.862  12.258  0.2834 -0.1975  0.0153
31285W        W37885   9.537   7.045  19.441  0.0659  0.0064  0.1418
31286W        W37886   5.224   3.541  17.950  0.0172 -0.5525  0.3489
31287W        W37887  13.030   7.640  32.050 -0.1231 -0.2500 -0.1758
31288W        W37888  24.744   5.473  28.397  0.2916 -0.1205 -0.1635
31289W        W37889   6.721   0.165  24.201 -0.2408  0.2845 -0.2915
31290W        W37890   5.766   2.694  31.086  0.1825  0.1637 -0.0543
31291W        W37891   1.873   1.307  17.626 -0.1135  0.0474  0.1047
31292W        W37892   7.208   2.116   2.845 -0.0720 -0.3926 -0.2160
31293W        W37893  10.211   4.520   1.978 -0.1066 -0.1380 -0.3421
31294W        W37894   9.584   2.733   1.149 -0.1073 -0.2485 -0.0091
31295W        W37895  22.244   1.556  28.540  0.2778 -0.2821 -0.0755
31296W        W37896  13.583   3.229  27.361  0.0832  0.3033 -0.2954
31297W        W37897  19.636   4.092  17.852 -0.1829  0.1251 -0.1621
31298W        W37898  18.618   2.356   1.256  0.0638 -0.0202 -0.1147
31299W        W37899  18.532   3.657  26.365  0.5574  0.1933  0.0105
31300W        W37900  16.889   3.447  27.138 -0.1460  0.1915  0.2503
31301W        W37901   0.487   6.610  20.325  0.1231  0.0864 -0.2868
31302W        W37902   8.510   5.570   1.729 -0.1047 -0.2341  0.1695
31303W        W37903  24.866   0.514   4.530 -0.0533 -0.3594 -0.0580
31304W        W37904  25.106   7.315   9.112  0.0724  0.1548  0.0128
31305W        W37905   6.421   4.696  15.461 -0.0011 -0.0069  0.0105
31306W        W37906   3.736   0.094  23.151 -0.1301  0.0695 -0.0263
31307W        W37907  16.291   0.994  10.280  0.1304  0.1975  0.1774
31308W        W37908   3.440   1.473  20.804 -0.1343  0.2063  0.0777
31309W        W37909  16.960   4.830  24.425  0.0268 -0.0114  0.2860
31310W        W37910  15.866   5.382   9.876  0.2984 -0.0222 -0.0741
31311W        W37911  22.136   1.962  32.519  0.0332  0.0331 -0.2327
31312W        W37912   7.785   6.508  21.206 -0.0616  0.4076  0.0046
31313W        W37913   0.794   4.325   4.004  0.0921 -0.1394  0.0744
31314W        W37914  20.342   6.711  26.533 -0.1535 -0.0968  0.0136
31315W        W37915  16.897   0.482  16.447 -0.2167  0.1455 -0.0061
31316W        W37916   9.324   2.807  23.530 -0.0503 -0.1167 -0.1877
31317W        W37917   3.783   1.298  31.167 -0.4774 -0.3324 -0.1454
31318W        W37918   7.292   7.718   8.157  0.0677  0.1140 -0.1236
31319W        W37919   9.414   0.994  23.074  0.0021 -0.2831  0.3315
31320W        W37920   0.656   7.204  25.936  0.3843  0.1093 -0.1632
31321W        W37921  14.061   1.614   7.089 -0.1633  0.1452  0.1120
31322W        W37922  18.752   0.995   9.529  0.0369  0.0495 -0.1596
31323W        W37923   7.200   4.190  15.560 -0.0965  0.0515 -0.0780
31324W        W37924  20.526   6.615   8.931  0.0100 -0.6032 -0.0785
31325W        W37925  13.344   6.207  12.760  0.0141  0.0679  0.0279
31326W        W37926   5.007   3.430  19.436  0.1280  0.0755  0.0768
31327W        W37927  15.670   6.595   6.006 -0.2861 -0.0573  0.0128
31328W        W37928  23.100   6.540   9.628 -0.2866 -0.0306  0.2237
31329W        W37929  16.436   6.409  31.661 -0.0830  0.0471  0.1828
31330W        W37930   8.964   1.714  30.131  0.2481 -0.4625 -0.0923
31331W        W37931   8.052   2.820  30.656  0.0466  0.0228  0.2409
31332W        W37932  24.608   1.471  28.898 -0.0805  0.2461  0.1505
31333W        W37933  16.052   6.047   0.596  0.0402 -0.1602 -0.0445
31334W        W37934   6.891   1.598  26.500 -0.3296 -0.2282  0.0780
31335W        W37935   9.355   1.910  20.802 -0.1618 -0.1200 -0.0495
31336W        W37936  22.284   6.018  11.062 -0.0650 -0.1105  0.0394
31337W        W37937  13.860   7.169  24.489  0.1115  0.0967  0.1248
31338W        W37938   6.429   4.396  22.513  0.1530  0.0752  0.3844
31339W        W37939  10.448   6.228   8.210 -0.3942  0.0454  0.3063
31340W        W37940  16.404   0.208  26.442  0.0664 -0.1049 -0.1180
31341W        W37941  11.984   3.298   0.567 -0.4026 -0.1660 -0.1649
31342W        W37942  16.910   6.585  29.326 -0.1518 -0.2123  0.1594
31343W        W37943   2.135   3.720  20.323 -0.0588  0.0821 -0.1243
31344W        W37944   3.097   2.875  26.376  0.1548  0.1754 -0.6698
31345W        W37945  13.339   0.123  12.016 -0.1542  0.0485  0.1364
31346W        W37946  10.758   5.669  30.018 -0.1058  0.0812  0.0880
31347W        W37947   0.350   6.027  27.877 -0.2228  0.0729  0.0729
31348W        W37948  16.816   0.737   7.563  0.1251  0.0227  0.1792
31349W        W37949   4.512   5.199   5.826  0.0715 -0.0323 -0.2071
31350W        W37950  24.252   1.183   2.176  0.2510  0.0636  0.1547
31351W        W37951  19.451   5.424   8.551 -0.2198 -0.1332 -0.2387
31352W        W37952   9.065   0.432  23.536 -0.2101 -0.2643 -0.1268
31353W        W37953  16.594   0.715  26.313 -0.0448  0.1280  0.4402
31354W        W37954  21.507   2.055  25.122  0.1454  0.1873 -0.0035
31355W        W37955  19.508   3.735   6.907  0.0659  0.0705 -0.0380
31356W        W37956   4.049   3.975  21.860 -0.1502  0.1530  0.0833
31357W        W37957   6.258   5.806  19.634 -0.1039  0.0626 -0.1118
31358W        W37958  25.076   1.547   5.830  0.1590  0.1769 -0.0944
31359W        W37959  12.550   0.699  21.917 -0.0198  0.0899  0.2267
31360W        W37960  12.070   4.760  27.296 -0.2413 -0.2288  0.1478
31361W        W37961   4.419   6.626  22.341 -0.0874 -0.0114  0.1057
31362W        W37962  18.765   6.092  15.751 -0.0965 -0.0636  0.0611
31363W        W37963   4.154   6.471   5.806  0.2293 -0.2165  0.0378
31364W        W37964  15.742   7.324  29.635 -0.3059  0.0023 -0.0561
31365W        W37965   8.363   4.687  28.867 -0.0471 -0.0577  0.3455
31366W        W37966  24.128   4.740  22.917  0.0124 -0.0081 -0.0781
31367W        W37967  18.152   1.020   7.715  0.0077  0.1535  0.0626
31368W        W37968  24.251   1.937  26.881  0.0541 -0.0328 -0.0576
31369W        W37969  21.465   7.383  24.560  0.0089  0.0007  0.4047
31370W        W37970   1.939   2.789  27.780 -0.0264 -0.2816 -0.2549
31371W        W37971   9.681   4.674  30.585 -0.1191  0.1120  0.0070
31372W        W37972   6.983   6.156  24.093 -0.1508 -0.2389  0.1356
31373W        W37973  14.819   4.566  31.817 -0.0217 -0.0595 -0.1547
31374W        W37974  14.048   3.207  25.863 -0.2684 -0.2129 -0.0257
31375W        W37975  19.565   0.418  28.535  0.2749 -0.2096 -0.1907
31376W        W37976   7.615   2.663  28.257 -0.3042 -0.4236 -0.0552
31377W        W37977   2.783   1.977  18.502  0.0565 -0.0926  0.1619
31378W        W37978  20.034   6.290   9.995  0.3847 -0.0254  0.1695
31379W        W37979   4.321   4.884  24.366 -0.1405 -0.0335  0.0124
31380W        W37980  11.357   4.204   3.714  0.1149  0.1347  0.0911
31381W        W37981  24.346   3.061   6.379 -0.0223  0.0334 -0.1357
31382W        W37982   2.963   7.833   2.583  0.1026  0.0205 -0.0445
31383W        W37983   8.435   1.192  15.332 -0.3443  0.2386 -0.0277
31384W        W37984  12.229   6.654   5.822 -0.0630 -0.2276 -0.0596
31385W        W37985  13.070   1.435   3.535 -0.0185  0.2150  0.0361
31386W        W37986   8.404   7.325   5.373 -0.2045  0.1979 -0.0362
31387W        W37987   3.632   0.164  17.124  0.1263 -0.1763 -0.0273
31388W        W37988  16.843   1.384  15.127 -0.0968 -0.0157  0.1437
31389W        W37989  10.700   2.148   4.287 -0.0560  0.0960 -0.1754
31390W        W37990   6.574   5.975  29.629 -0.1784  0.0786  0.3799
31391W        W37991  21.636   1.480  28.609  0.0262  0.0761 -0.2081
31392W        W37992   2.308   3.623  31.812  0.0518 -0.1050  0.0671
31393W        W37993  16.353   1.753   2.718 -0.2875  0.2119 -0.0752
31394W        W37994  15.670   5.407  10.344 -0.3096  0.1411 -0.1016
31395W        W37995  15.115   5.879  27.861 -0.4638 -0.2552  0.1050
31396W        W37996  13.019   0.048   9.647 -0.0783  0.1769 -0.0238
31397W        W37997  20.088   1.862  15.330  0.0893 -0.0215  0.1562
31398W        W37998  10.491   2.691   3.139  0.1302  0.3000 -0.1166
31399W        W37999   4.896   6.675  31.476 -0.3636  0.3857 -0.2403
31400W        W38000   7.444   3.132  32.509 -0.1626  0.0767  0.1586
31401W        W38001   8.370   7.790  31.531  0.3191 -0.1388 -0.1694
31402W        W38002  17.910   4.576   3.845  0.0915  0.0770 -0.0452
31403W        W38003   0.457   2.165   3.887  0.0271  0.0969 -0.3364
31404W        W38004   1.508   6.804   1.614  0.0161  0.1393 -0.1111
31405W        W38005   7.972   4.279  26.405 -0.1414 -0.0776  0.1033
31406W        W38006  18.596   5.164  32.575  0.1720  0.4389  0.1751
31407W        W38007   1.854   5.124  28.047  0.0456 -0.2200 -0.1740
31408W        W38008  10.790   2.627  21.846  0.0727 -0.3925 -0.1263
31409W        W38009   6.868   7.415  31.265 -0.1485  0.1823 -0.3409
31410W        W38010  10.462   3.898   1.164 -0.0378 -0.0811 -0.0600
31411W        W38011  14.542   1.501   2.832 -0.0814 -0.1367  0.0532
31412W        W38012   0.006   3.711   4.739 -0.0136  0.2725  0.1612
31413W        W38013   1.875   2.902  25.890 -0.0585  0.1021 -0.0454
31414W        W38014  20.115   5.759  27.475 -0.1693  0.0441  0.0184
31415W        W38015   2.123   7.165  21.604  0.1215 -0.1684  0.0519
31416W        W38016   8.889   1.689  14.765 -0.0696 -0.0091  0.0549
31417W        W38017  15.833   0.937  27.951 -0.0893 -0.1629  0.0057
31418W        W38018   4.321   0.215   9.488  0.1003  0.2249  0.1336
31419W        W38019  16.451   2.826  15.872  0.1858 -0.1184 -0.2269
31420W        W38020  11.077   7.372   0.398 -0.0384 -0.0266  0.0569
31421W        W38021  18.228   0.576   0.927 -0.4907 -0.1554 -0.1420
31422W        W38022  21.630   6.681  15.579  0.2640 -0.2830 -0.0170
31423W        W38023   1.223   0.572   5.176  0.0739  0.0621 -0.0786
31424W        W38024  11.015   6.687  24.452 -0.2705 -0.0948 -0.0008
31425W        W38025   7.016   6.715  17.244  0.1261 -0.1678 -0.3235
31426W        W38026  23.425   4.451   1.526 -0.2242  0.0599 -0.0555
31427W        W38027   7.945   2.503  20.827  0.0874  0.0288  0.1005
31428W        W38028  13.760   1.359   3.970 -0.0569 -0.1157  0.4318
31429W        W38029  15.757   2.421   7.787 -0.1886  0.1679 -0.1018
31430W        W38030   7.324   5.752   5.950  0.1396  0.1180  0.0010
31431W        W38031  13.454   5.573  12.716  0.0374  0.1677 -0.1572
31432W        W38032  18.636   6.823   7.276  0.1708  0.0907  0.0972
31433W        W38033   0.305   1.641   6.175 -0.3707  0.0127 -0.1599
31434W        W38034  16.350   3.820  11.900 -0.3904 -0.0527  0.1561
31435W        W38035   1.903   1.607  29.190  0.0110  0.0017 -0.1369
31436W        W38036  10.950   1.968  29.378 -0.2342 -0.0702 -0.1351
31437W        W38037   4.650   4.661  31.421 -0.1225  0.2121  0.1793
31438W        W38038  13.718   0.591  20.640 -0.2039 -0.2985 -0.0068
31439W        W38039  16.975   4.477  11.932  0.2811 -0.0943 -0.3465
31440W        W38040  24.802   5.342   4.866  0.1532 -0.1957 -0.0046
31441W        W38041   8.184   2.407   5.274  0.0288 -0.1843 -0.0007
31442W        W38042  17.790   5.979  14.007 -0.0351  0.1681  0.0726
31443W        W38043  13.633   5.004   0.337  0.3293  0.0682  0.1226
31444W        W38044  21.497   3.712  22.875 -0.0207  0.2930  0.4044
31445W        W38045  20.906   5.406   0.942  0.0246 -0.0407  0.0905
31446W        W38046  18.226   6.626  14.238 -0.5531 -0.0734  0.1800
31447W        W38047  22.578   2.067  28.655 -0.1045  0.2644 -0.0185
31448W        W38048  15.152   0.393  13.994  0.0326 -0.1804  0.0370
31449W        W38049   0.156   3.857  21.983 -0.1115 -0.2002 -0.0333
31450W        W38050  21.736   1.893  27.078  0.0015 -0.0447  0.2814
31451W        W38051   7.422   2.477   1.621  0.1640 -0.0401 -0.3733
31452W        W38052  13.631   7.384   6.902 -0.0406 -0.2923 -0.0689
31453W        W38053   1.189   7.254  30.495  0.2531 -0.2063 -0.2975
31454W        W38054  23.338   3.417  11.150  0.2623 -0.2268  0.0420
31455W        W38055   8.195   1.899  15.205  0.2896 -0.0323 -0.1217
31456W        W38056  10.371   2.312  17.713 -0.1696 -0.3439  0.4262
31457W        W38057   8.053   3.395  22.894 -0.0606 -0.0004  0.2791
31458W        W38058   1.832   7.384  22.028  0.1895 -0.2476  0.0908
31459W        W38059  15.314   5.641  30.800  0.0941 -0.1127 -0.0590
31460W        W38060   5.950   5.145  32.526 -0.0138 -0.0596  0.1345
31461W        W38061  11.964   1.999  21.325 -0.0103 -0.0497  0.2960
31462W        W38062  16.273   1.018   3.503  0.0414  0.0835 -0.0053
31463W        W38063  15.190   7.723  15.630 -0.3005 -0.0891  0.0644
31464W        W38064  14.546   6.868  24.910 -0.2903  0.0286 -0.0428
31465W        W38065   6.413   7.319  28.683 -0.3243 -0.1025 -0.0104
31466W        W38066  19.642   2.567   4.788  0.1702 -0.0843 -0.4516
31467W        W38067   5.305   7.204  23.516  0.1455  0.1729 -0.1316
31468W        W38068   2.317   1.593  21.211  0.0197 -0.0859  0.0183
31469W        W38069  24.157   6.639  11.255 -0.1337  0.0655 -0.0107
31470W        W38070  17.506   5.108  14.438 -0.1199 -0.0664  0.0087
31471W        W38071   7.376   6.366   4.831 -0.0059  0.0425 -0.1215
31472W        W38072  18.328   1.533  11.288 -0.3030  0.0795 -0.0337
31473W        W38073  21.534   0.273   5.262  0.3130  0.0782 -0.2669
31474W        W38074  21.280   0.578   6.201 -0.1150 -0.0953  0.0438
31475W        W38075   3.712   6.222  28.614 -0.1624  0.1461 -0.3427
31476W        W38076  22.170   0.393  15.316  0.1250 -0.1566  0.1605
31477W        W38077  14.743   2.749  13.703 -0.0012 -0.2020  0.0225
31478W        W38078  23.758   2.015   2.133  0.0240 -0.3828 -0.0839
31479W        W38079  14.995   6.600  13.212 -0.0106  0.2630  0.0867
31480W        W38080  17.037   7.838  16.521  0.0717 -0.0081  0.1432
31481W        W38081  14.147   1.658   9.081  0.0056  0.0204  0.0016
31482W        W38082  10.089   5.892  29.607 -0.1701 -0.0710 -0.2985
31483W        W38083   5.519   1.498   9.051  0.0333 -0.1730 -0.0571
31484W        W38084  18.605   1.004  27.728 -0.0023  0.1505 -0.0129
31485W        W38085  19.655   1.160  12.474 -0.2201 -0.1294  0.0074
31486W        W38086  15.467   2.235   9.305  0.0172  0.0634  0.1805
31487W        W38087  17.747   3.678  25.245 -0.1312  0.3085 -0.0715
31488W        W38088  15.862   6.313  27.231  0.0216 -0.0962  0.0858
31489W        W38089  20.131   1.512   9.077 -0.0400 -0.0141 -0.1708
31490W        W38090   7.554   2.037   8.093 -0.1792  0.0410  0.2420
31491W        W38091  18.659   7.720   4.014 -0.0551  0.0954  0.2080
31492W        W38092   8.707   2.107  24.291 -0.1290 -0.1781  0.1484
31493W        W38093   8.647   1.570   4.242  0.1505  0.3155  0.0737
31494W        W38094   8.381   3.040   4.138  0.2169 -0.0368 -0.0555
31495W        W38095  20.783   4.819  28.933  0.1356 -0.0918 -0.1263
31496W        W38096  12.800   1.383   7.048  0.1182 -0.2751 -0.0221
31497W        W38097   6.648   6.155  21.644 -0.0409 -0.3252 -0.1245
31498W        W38098  20.372   4.473   7.442 -0.0688 -0.1372  0.1243
31499W        W38099   4.883   0.178   0.565  0.1351 -0.0224 -0.2843
31500W        W38100   0.573   0.846  10.732  0.1535 -0.0040  0.1930
31501W        W38101   3.539   0.989  22.200  0.0916  0.0580 -0.2757
31502W        W38102  21.013   7.102  25.208  0.0718  0.0190  0.1292
31503W        W38103   8.616   3.611  24.312 -0.0458  0.1951  0.0567
31504W        W38104  16.930   2.602  31.724  0.0050 -0.0713  0.1801
31505W        W38105  12.976   7.708  31.556  0.3211  0.1467  0.0540
31506W        W38106  24.514   6.469  11.599  0.0204 -0.0507  0.0117
31507W        W38107  10.760   0.030  32.286  0.0933 -0.0296  0.0494
31508W        W38108  22.902   3.075  20.923  0.2356 -0.0397  0.1350
31509W        W38109  22.745   6.073  22.246  0.0046 -0.2102  0.0540
31510W        W38110  21.942   3.333   5.389 -0.0376  0.1888  0.1464
31511W        W38111   7.474   6.850  17.105  0.0932  0.0845 -0.0995
31512W        W38112   4.515   3.362   3.700  0.1577 -0.1247 -0.0510
31513W        W38113   4.716   5.158  29.751 -0.0607 -0.0440 -0.3249
31514W        W38114  20.535   5.557  13.078  0.1602 -0.0682 -0.3353
31515W        W38115  14.745   5.576  31.593  0.0260  0.3029  0.1559
31516W        W38116   7.418   5.940  26.069 -0.2994 -0.0318 -0.1920
31517W        W38117   8.998   5.462  17.357 -0.2568  0.1196  0.1538
31518W        W38118   8.355   4.896  15.392  0.0186  0.1477  0.1659
31519W        W38119   3.362   0.577  21.673  0.1031  0.1314  0.0077
31520W        W38120  16.034   2.386  15.502 -0.1598  0.0998  0.1876
31521W        W38121  11.992   3.490   9.774  0.1908  0.1443  0.1467
31522W        W38122   6.935   1.644   8.321  0.0014  0.0975  0.0205
31523W        W38123  12.742   6.247   3.888  0.0031  0.0196  0.1338
31524W        W38124   4.897   5.541   0.206  0.0744  0.1774  0.1903
31525W        W38125   5.931   0.399   9.863 -0.0485  0.1663 -0.1135
31526W        W38126  21.789   5.888  29.266 -0.3295  0.0022 -0.0653
31527W        W38127   8.492   3.971  31.844  0.2081  0.0561  0.2796
31528W        W38128  19.380   0.584  25.153  0.1750 -0.0061 -0.0996
31529W        W38129   5.703   3.552  21.489  0.0775 -0.1956 -0.0442
31530W        W38130  15.512   7.487   7.845  0.3776  0.2329 -0.1427
31531W        W38131  10.008   7.663  31.043 -0.1912  0.3530 -0.2975
31532W        W38132  21.035   5.724  26.110 -0.0638 -0.0071 -0.2406
31533W        W38133   0.938   1.703  27.524 -0.1494  0.0589 -0.0087
31534W        W38134  23.041   0.087  10.256 -0.0166  0.0222  0.2215
31535W        W38135   0.050   1.023  23.320  0.0060 -0.3724  0.0168
31536W        W38136  12.925   6.035  11.928  0.0605  0.3749  0.1435
31537W        W38137   3.730   1.979  23.951 -0.3342 -0.1034 -0.2828
31538W        W38138  24.151   7.044   7.129  0.0488 -0.1116  0.0449
31539W        W38139   6.709   1.208  23.343  0.1489  0.0759 -0.2264
31540W        W38140  15.527   1.379  22.411  0.1379 -0.0732 -0.0467
31541W        W38141  14.600   3.895  25.282  0.1968  0.0245 -0.1139
31542W        W38142  15.070   1.358  28.602  0.2185  0.0672  0.4298
31543W        W38143  21.014   4.911  14.218  0.2272  0.2697 -0.1294
31544W        W38144  22.808   4.413  26.862  0.2741 -0.1726  0.1065
31545W        W38145  13.197   4.795  31.293  0.1172 -0.2930  0.0386
31546W        W38146  23.940   7.385  26.275  0.3227  0.3097  0.1595
31547W        W38147  21.723   4.281   5.307 -0.2467 -0.1873  0.0996
31548W        W38148  13.183   0.684   7.084  0.0385  0.0614  0.0895
31549W        W38149  14.694   3.123  22.846 -0.1742  0.0050  0.1798
31550W        W38150  13.317   2.595   3.252 -0.0560 -0.3623  0.1982
31551W        W38151   6.227   2.046  20.634  0.3395 -0.1527  0.1677
31552W        W38152  13.040   0.941   9.834 -0.0373  0.0032 -0.3927
31553W        W38153  23.865   7.296  23.820  0.0641  0.5944 -0.3192
31554W        W38154   8.388   1.563  21.927  0.1269  0.0091 -0.0906
31555W        W38155  20.060   0.610   9.626 -0.2131 -0.0386 -0.1036
31556W        W38156  19.749   6.207  26.293  0.4348 -0.0938 -0.2232
31557W        W38157  14.229   0.381  10.391 -0.1164  0.1133 -0.0872
31558W        W38158   4.588   6.760  30.705 -0.2543 -0.6343  0.0090
31559W        W38159  18.600   5.652  15.912 -0.4780 -0.0799 -0.0523
31560W        W38160  21.236   6.297   7.696 -0.2670 -0.0379  0.1467
31561W        W38161   1.521   1.144  26.018 -0.0123 -0.3023 -0.2695
31562W        W38162   8.885   7.450   1.388  0.1998 -0.2700 -0.2065
31563W        W38163   7.671   1.932   5.547 -0.1245 -0.0541  0.1197
31564W        W38164   6.742   7.420  15.064 -0.0482 -0.0339  0.1446
31565W        W38165  23.943   5.504  23.816 -0.0869 -0.2403  0.1908
31566W        W38166   5.591   7.574  21.536  0.1956  0.1153  0.0031
31567W        W38167  12.071   4.450  20.959  0.2839  0.2095  0.2559
31568W        W38168   8.328   1.291  29.044  0.1932 -0.1020  0.0669
31569W        W38169   5.026   3.177  31.285 -0.1887  0.2553 -0.0317
31570W        W38170  18.002   3.381  32.533  0.1280  0.2395 -0.3612
31571W        W38171  15.637   7.005   9.128  0.0600 -0.1649  0.1735
31572W        W38172  17.631   5.918  17.876 -0.2978  0.1981 -0.1839
31573W        W38173  17.295   0.258  10.543 -0.0353 -0.0712  0.0453
31574W        W38174  24.720   0.620  29.075 -0.0969 -0.1346  0.0424
31575W        W38175  11.229   4.466  20.435  0.1187 -0.2013 -0.0236
31576W        W38176  23.222   5.562   9.648 -0.0085 -0.1319  0.1761
31577W        W38177  15.292   4.741  22.205 -0.3098 -0.0234  0.4852
31578W        W38178  19.756   6.722  30.052 -0.0136 -0.0664 -0.0656
31579W        W38179   6.964   2.382   2.416  0.0155  0.1157 -0.2141
31580W        W38180  16.481   4.899   5.463 -0.2413  0.2639 -0.1572
31581W        W38181   9.244   6.321  21.224  0.2502 -0.1339  0.1441
31582W        W38182  22.383   6.355  21.972 -0.0628 -0.0495 -0.1435
31583W        W38183  11.539   1.814   7.096  0.2637 -0.0908 -0.0327
31584W        W38184  10.989   3.807   0.586 -0.2238  0.4175  0.3269
31585W        W38185   5.929   4.759  31.024  0.0023 -0.0974  0.0643
31586W        W38186  15.404   5.123  26.591  0.1316 -0.0796  0.1066
31587W        W38187  22.942   6.159   7.349 -0.0537 -0.0916 -0.1164
31588W        W38188   1.585   4.008  18.218  0.1151 -0.1182 -0.1601
31589W        W38189   9.815   5.906   8.549 -0.3036 -0.1626  0.1579
31590W        W38190  18.204   2.198  27.059  0.0485 -0.0044 -0.0733
31591W        W38191  22.173   6.225   2.750  0.0281 -0.1270 -0.1214
31592W        W38192  19.728   0.182   8.215  0.0002 -0.0713 -0.0694
31593W        W38193   4.861   4.157   9.594  0.0305  0.0108 -0.0208
31594W        W38194  15.204   2.974   5.902  0.0480  0.1423  0.1606
31595W        W38195  10.082   2.727  17.694  0.1173 -0.0091 -0.0118
31596W        W38196  23.294   5.743  11.727  0.2170  0.2149 -0.1216
31597W        W38197  11.179   1.909   1.272 -0.0309 -0.2233  0.1689
31598W        W38198   7.368   1.838   5.937  0.1758  0.1640 -0.1482
31599W        W38199  21.062   6.046  28.806  0.1925 -0.1365  0.1369
31600W        W38200   1.544   3.088  21.702 -0.2324  0.0731 -0.0564
31601W        W38201  20.736   5.123  13.786  0.1979 -0.0554 -0.0508
31602W        W38202  21.771   4.178   8.742 -0.0768  0.2097  0.0235
31603W        W38203   4.367   4.045   9.316  0.3865  0.0178  0.0755
31604W        W38204   8.225   7.370  20.094 -0.0916  0.0978 -0.3951
31605W        W38205  22.383   5.032   0.884 -0.0956  0.1982 -0.0455
31606W        W38206  13.680   2.369  22.409  0.1625  0.1841  0.0823
31607W        W38207   2.324   4.230  28.157 -0.0773  0.0539  0.2905
31608W        W38208  18.595   1.351   2.872 -0.1630  0.0469  0.1805
31609W        W38209  14.578   0.758   8.813 -0.1402  0.3088  0.3615
31610W        W38210   1.748   0.779   5.896 -0.2347 -0.3419  0.1376
31611W        W38211  18.756   5.572   4.578  0.1137  0.0739 -0.1743
31612W        W38212  15.822   1.049  15.176  0.1850 -0.1220  0.1049
31613W        W38213   2.816   1.104   9.318 -0.0716 -0.0210 -0.2661
31614W        W38214  24.153   2.213  22.746  0.1391  0.0829  0.0660
31615W        W38215  22.122   3.062  29.366 -0.1692 -0.1449 -0.2623
31616W        W38216   5.305   0.192  26.273 -0.1806 -0.4048  0.1832
31617W        W38217  15.529   5.077   2.211  0.1033  0.1389  0.4389
31618W        W38218  12.361   2.114   2.247  0.0846 -0.1396 -0.1764
31619W        W38219   1.187   7.458   8.612 -0.0093  0.3559 -0.3682
31620W        W38220   1.792   5.298  25.793 -0.0262 -0.1480  0.1055
31621W        W38221  15.078   0.573   9.170  0.0065 -0.2031 -0.0211
31622W        W38222  11.728   7.665   2.991  0.4123  0.1690 -0.1377
31623W        W38223  18.793   0.428  32.101 -0.1328  0.0210  0.1611
31624W        W38224  22.640   5.034  25.244  0.1112  0.1144  0.1406
31625W        W38225  22.965   7.625   4.957 -0.0089 -0.2821  0.3359
31626W        W38226   9.983   2.913  27.737  0.0837  0.2122 -0.1453
31627W        W38227  18.615   3.387  18.166  0.2693 -0.0999 -0.1680
31628W        W38228   2.739   5.561   5.282  0.2142  0.1087  0.2706
31629W        W38229   8.825   3.974  17.558  0.0710 -0.0726  0.3032
31630W        W38230  24.253   6.257   9.439  0.1964  0.1324 -0.2692
31631W        W38231  11.865   2.585   9.362 -0.2858  0.0929  0.2512
31632W        W38232   2.952   5.138  17.933 -0.0972 -0.1688  0.0851
31633W        W38233  23.564   5.467  21.900  0.0032 -0.2252  0.3957
31634W        W38234  17.487   4.067   4.560  0.0830  0.4125 -0.0968
31635W        W38235   8.260   6.541  25.344  0.1124  0.0465  0.1842
31636W        W38236   3.386   0.955  16.924  0.2021 -0.0637 -0.0870
31637W        W38237  24.208   4.104  31.151 -0.2131 -0.0493  0.2367
31638W        W38238  20.197   3.183   4.166  0.1167  0.0750  0.2761
31639W        W38239   2.039   4.957   3.417  0.2753 -0.2339  0.1737
31640W        W38240  20.144   4.636  14.425  0.1123 -0.2639 -0.2298
31641W        W38241  20.965   0.191   3.127  0.1581 -0.0872  0.0695
31642W        W38242   4.713   1.152  21.553 -0.1736  0.0802 -0.0362
31643W        W38243  16.965   5.298   5.935 -0.3555  0.0134  0.0641
31644W        W38244  15.260   7.029  16.315  0.0656  0.3177  0.0653
31645W        W38245   0.446   4.898  28.903  0.0386  0.0802  0.3255
31646W        W38246   9.294   1.808   1.214 -0.2491 -0.0625  0.3900
31647W        W38247   5.754   6.707   2.967 -0.1569 -0.2368 -0.0572
31648W        W38248   5.979   6.426   0.128 -0.0351  0.0301 -0.0439
31649W        W38249  10.395   3.096   6.487 -0.0081 -0.1563 -0.4057
31650W        W38250  12.569   2.829  21.522  0.2493  0.1132  0.1522
31651W        W38251   1.044   1.306  23.447 -0.2210  0.1108  0.1100
31652W        W38252  24.324   0.017   3.990  0.0997  0.1558  0.1702
31653W        W38253   9.261   7.535  28.906  0.1595 -0.1945 -0.1527
31654W        W38254   8.020   7.677  15.110 -0.1701 -0.0852 -0.1370
31655W        W38255   7.939   2.156  17.925  0.4250  0.0940 -0.1779
31656W        W38256   6.756   4.848  27.862  0.2421  0.0137 -0.0975
31657W        W38257  14.486   0.236  29.936  0.2907 -0.0774 -0.0274
31658W        W38258   0.826   6.446  28.406 -0.1256 -0.1303 -0.3830
31659W        W38259  21.839   4.375  25.421  0.0470  0.1121  0.3070
31660W        W38260  20.731   7.465  12.769  0.4484  0.1138 -0.0085
31661W        W38261  23.517   4.782  13.149  0.1030  0.2900  0.1440
31662W        W38262  11.920   3.544  10.919 -0.1012 -0.3282 -0.0017
31663W        W38263  21.709   7.159   8.150 -0.1261  0.0679 -0.0351
31664W        W38264   4.250   5.372  23.404 -0.0733  0.2983  0.1391
31665W        W38265   1.354   4.022  32.040  0.0490 -0.0671  0.1223
31666W        W38266   5.707   4.996  21.439  0.2298  0.2109 -0.2647
31667W        W38267  21.375   4.330  31.059  0.1948  0.0745  0.1427
31668W        W38268   5.904   4.536   0.610  0.0201 -0.1082  0.1394
31669W        W38269  23.729   4.757  31.863  0.0253  0.6375  0.1658
31670W        W38270   6.383   0.854  28.558  0.0513 -0.5759  0.2208
31671W        W38271  15.811   3.073  28.120  0.0639  0.0172 -0.0174
31672W        W38272  24.181   4.131  28.023  0.1356 -0.0496  0.1664
31673W        W38273   1.216   2.711  19.786 -0.2090  0.2162  0.1023
31674W        W38274  17.516   1.169  29.670  0.2968 -0.2822 -0.3396
31675W        W38275   5.469   6.903   9.213 -0.4944 -0.0333  0.0260
31676W        W38276  18.666   3.803  15.974 -0.0556 -0.1625 -0.1079
31677W        W38277  15.496   6.493   9.420 -0.2419 -0.0124 -0.0869
31678W        W38278  19.112   4.356  17.184 -0.0504 -0.0519 -0.3741
31679W        W38279  15.378   3.334   7.751  0.1006 -0.0524 -0.3474
31680W        W38280  21.714   2.900   3.665  0.0137 -0.2321  0.1783
31681W        W38281   6.359   5.037  27.141 -0.0471 -0.1210  0.1985
31682W        W38282  11.992   6.020   1.248 -0.2004  0.1427 -0.1152
31683W        W38283  22.280   2.599  22.499 -0.3051  0.2662  0.0239
31684W        W38284   4.577   4.621   3.763  0.0498  0.3466  0.1457
31685W        W38285  18.870   4.925  27.547 -0.0652  0.0185  0.0844
31686W        W38286  11.327   0.827   5.465  0.2404 -0.3657  0.1057
31687W        W38287  17.962   2.077  23.004 -0.0616 -0.1353 -0.1490
31688W        W38288   8.937   3.359  29.508  0.2366  0.1764 -0.2295
31689W        W38289  10.482   3.461  20.736  0.1950 -0.4884 -0.1449
31690W        W38290   2.705   5.553  21.409 -0.0911 -0.0764 -0.1578
31691W        W38291   2.179   4.196  29.040 -0.5454 -0.2909  0.1142
31692W        W38292  20.424   6.933  14.884 -0.1915  0.2130  0.1142
31693W        W38293   2.250   4.271  21.678  0.1692  0.1757 -0.2979
31694W        W38294  15.351   1.537  25.871  0.2194 -0.0075  0.0878
31695W        W38295  10.361   1.048  25.318  0.1927 -0.1163 -0.2129
31696W        W38296   8.887   2.082  26.368  0.0665 -0.2269 -0.1501
31697W        W38297  22.650   1.613   0.870 -0.2328 -0.0132  0.0669
31698W        W38298  17.763   2.029   6.329  0.1843  0.2660 -0.1418
31699W        W38299  11.794   4.240  31.272 -0.0941 -0.0681 -0.0437
31700W        W38300  14.568   5.458  11.441 -0.0959  0.0757  0.1087
31701W        W38301   1.782   5.918  22.458  0.2027 -0.0884  0.1262
31702W        W38302   3.558   6.821  18.095  0.3121  0.1278 -0.2127
31703W        W38303   9.884   6.134   1.770 -0.0225  0.0098 -0.3083
31704W        W38304  10.014   5.160  17.324 -0.0439  0.2683 -0.1057
31705W        W38305  24.029   3.925  32.357 -0.2638 -0.2154 -0.1320
31706W        W38306   4.062   7.273  30.357 -0.1424 -0.0399  0.0190
31707W        W38307   7.526   0.496  15.435 -0.0904  0.2256 -0.1058
31708W        W38308   5.452   1.834  25.278 -0.1695 -0.3204 -0.0676
31709W        W38309   8.288   4.863  28.388 -0.1644 -0.0344 -0.1387
31710W        W38310  21.796   3.215   0.803 -0.1836 -0.0890 -0.0579
31711W        W38311   5.691   5.246  17.923  0.0543 -0.0128  0.1871
31712W        W38312   0.489   7.016  23.741  0.1289  0.2714  0.0420
31713W        W38313   2.398   4.413  26.587  0.1294 -0.0683 -0.0970
31714W        W38314  12.368   0.473  31.836  0.0617 -0.0876  0.1608
31715W        W38315  18.638   4.827   5.849  0.0287 -0.0124  0.1239
31716W        W38316   6.945   4.859  25.894 -0.0091 -0.1677 -0.0707
31717W        W38317   6.452   7.106   9.145  0.1668  0.1113 -0.0349
31718W        W38318  16.171   5.973   4.563 -0.0325  0.2047  0.0367
31719W        W38319  14.220   0.265   3.738  0.2548  0.0866  0.2395
31720W        W38320  17.231   7.099  28.010 -0.1836  0.0321  0.1794
31721W        W38321   8.072   4.327  16.975 -0.0996  0.0238  0.1253
31722W        W38322   2.870   0.473  25.861  0.1285  0.1886  0.0762
31723W        W38323  25.030   7.273   8.590 -0.1792  0.2234  0.3008
31724W        W38324   4.548   4.457   2.724 -0.0617  0.0704 -0.3378
31725W        W38325  21.826   6.763  25.171  0.1572 -0.0158  0.0761
31726W        W38326   1.182   0.663   2.885 -0.0450  0.0667  0.1196
31727W        W38327  18.040   2.208  30.679  0.3364  0.2862 -0.2740
31728W        W38328   5.040   6.011   0.437 -0.2115  0.0995 -0.0898
31729W        W38329  20.790   5.200   8.396 -0.1671  0.2419 -0.2076
31730W        W38330  14.841   6.750   8.133  0.1220 -0.4191 -0.1062
31731W        W38331  23.866   0.677   6.704  0.3486  0.1859 -0.1088
31732W        W38332  10.567   7.099  30.657 -0.3592 -0.0792 -0.0513
31733W        W38333  25.148   3.188  31.777  0.3083  0.2235  0.0829
31734W        W38334  20.667   1.054  28.923  0.1129 -0.2429 -0.2757
31735W        W38335  16.319   4.059   2.896  0.3780 -0.0220 -0.1590
31736W        W38336   0.504   0.884  19.934  0.0006  0.2307 -0.0008
31737W        W38337   5.316   7.473  32.532 -0.0216  0.1196 -0.0938
31738W        W38338  24.566   3.386  25.938  0.1373 -0.3276 -0.3571
31739W        W38339  23.230   2.682   7.857  0.0895 -0.3177 -0.2595
31740W        W38340   2.650   5.159  20.799  0.1932 -0.0814  0.3728
31741W        W38341   5.211   2.285   0.876 -0.4190  0.1801  0.1257
31742W        W38342   4.917   6.713  23.744 -0.0256 -0.0730  0.0794
31743W        W38343  16.977   1.717   3.835  0.0794 -0.3744 -0.2211
31744W        W38344   6.115   6.538  22.639  0.2230  0.3007  0.1803
31745W        W38345  10.296   0.266   2.280 -0.0898 -0.0080 -0.2635
31746W        W38346  16.593   0.898  16.237 -0.1586  0.0015 -0.1373
31747W        W38347  10.920   2.265  24.445  0.1170  0.1208  0.3358
31748W        W38348   8.497   6.909  32.180  0.4271  0.0037 -0.0272
31749W        W38349  24.932   7.161   3.341 -0.2174 -0.1394  0.0763
31750W        W38350  11.377   2.793  31.859 -0.0698  0.0124 -0.0233
31751W        W38351  17.609   5.116   9.392 -0.0086 -0.1678  0.2700
31752W        W38352   3.311   7.248   8.360  0.2418  0.0743 -0.0862
31753W        W38353   4.250   1.535   9.977  0.0265 -0.1383 -0.0923
31754W        W38354  11.352   6.744  10.599  0.1012  0.1120 -0.1033
31755W        W38355  23.473   6.462   4.437  0.1493  0.0900  0.0051
31756W        W38356  11.666   5.604   0.131 -0.0524  0.2282  0.0347
31757W        W38357  12.261   0.472   9.608 -0.0791  0.0530 -0.0282
31758W        W38358  11.171   5.882   7.183  0.2082 -0.2988 -0.1386
31759W        W38359  11.270   2.557  11.027  0.1700 -0.0934 -0.0004
31760W        W38360  18.033   7.320  32.160 -0.0551  0.0607  0.2310
31761W        W38361  22.244   5.439  23.094 -0.1730 -0.0587  0.2418
31762W        W38362  10.648   0.071  24.200  0.1858  0.2124  0.0871
31763W        W38363  13.903   3.911  27.670  0.2349  0.1433 -0.0411
31764W        W38364  21.409   2.664  29.270  0.2094  0.1891 -0.1842
31765W        W38365  16.707   4.089  12.691 -0.0091 -0.3956  0.2216
31766W        W38366  20.374   7.602   3.615  0.1766 -0.0302  0.0115
31767W        W38367   9.331   5.949   4.299  0.0672  0.3326 -0.1413
31768W        W38368  11.980   6.818  19.814 -0.3100  0.1063 -0.4337
31769W        W38369  10.060   6.873  21.490 -0.1177 -0.1359  0.1678
31770W        W38370  16.004   1.184  27.478 -0.1038  0.0151 -0.1550
31771W        W38371   2.240   5.017   4.550 -0.0083  0.1281  0.1356
31772W        W38372   0.702   1.602   0.417  0.0679 -0.0037  0.3177
31773W        W38373  10.015   1.311  28.215  0.1540 -0.0427 -0.0112
31774W        W38374   3.218   4.596  10.586  0.2254  0.1741  0.0564
31775W        W38375  13.358   1.206   0.087  0.0046 -0.2229  0.1274
31776W        W38376   2.711   6.976  28.962 -0.0879 -0.1507  0.0051
31777W        W38377  12.378   0.624  23.245 -0.1914  0.2822  0.0224
31778W        W38378  15.868   5.395  11.666 -0.2608  0.1165 -0.2685
31779W        W38379   1.292   2.999  28.337 -0.2947  0.4886  0.0427
31780W        W38380   5.780   3.144   1.947  0.2036 -0.0693 -0.1474
31781W        W38381  15.513   0.868   1.376  0.1076 -0.1863  0.0062
31782W        W38382   6.248   4.484   8.280 -0.0238  0.0370 -0.0128
31783W        W38383   8.608   0.579  16.553  0.1225  0.3191  0.0298
31784W        W38384  13.770   4.310  30.440 -0.2054  0.0958  0.1197
31785W        W38385  22.244   4.893   3.503  0.0451  0.2987 -0.0940
31786W        W38386  18.838   5.286  17.682 -0.0822 -0.0042  0.2013
31787W        W38387   5.975   0.524  20.024 -0.0163  0.1103  0.0408
31788W        W38388   8.836   7.020  26.105 -0.0526  0.0955  0.2011
31789W        W38389   7.596   1.744   9.053 -0.1745  0.3051 -0.2311
31790W        W38390   3.417   5.412   0.094  0.1241  0.0061 -0.0226
31791W        W38391  16.481   0.709   5.635  0.5225 -0.0093 -0.1657
31792W        W38392  11.170   3.477  29.549  0.0320  0.0325  0.0845
31793W        W38393  25.108   0.590  30.960  0.1287 -0.0355  0.2706
31794W        W38394   3.300   3.528  30.922 -0.4484  0.1861 -0.0947
31795W        W38395  19.454   2.044   1.140  0.1774 -0.1168  0.3971
31796W        W38396  18.563   7.051  11.592 -0.0762  0.0960  0.1604
31797W        W38397   1.890   3.146  27.468 -0.2371  0.3810 -0.2910
31798W        W38398   1.532   6.106  31.544  0.3681 -0.2169  0.2419
31799W        W38399  18.568   5.329   3.209 -0.1777  0.0950  0.1513
31800W        W38400  25.113   5.440   8.512 -0.2048 -0.1190  0.1261
31801W        W38401  15.763   2.243   6.185  0.1560  0.2712  0.2344
31802W        W38402  11.547   3.041  21.319 -0.2599  0.1062 -0.0184
31803W        W38403  17.719   1.816   5.374 -0.1586  0.1507 -0.0136
31804W        W38404  17.788   0.256   6.055  0.0026 -0.2210 -0.0147
31805W        W38405  10.957   1.654   6.398  0.1620  0.1904  0.3976
31806W        W38406  16.329   6.355  16.660  0.1603 -0.0065 -0.2994
31807W        W38407   7.471   4.672  28.540  0.1374 -0.0694 -0.1262
31808W        W38408  10.815   7.045  17.510  0.1613  0.0583  0.0351
31809W        W38409   3.574   1.255  25.135  0.0483  0.0311  0.2258
31810W        W38410   9.722   4.241   0.404  0.0322  0.1141  0.2601
31811W        W38411   7.165   6.515   5.309 -0.0363  0.1826  0.0462
31812W        W38412   8.656   5.960  22.276  0.1440  0.0751  0.0677
31813W        W38413  10.472   6.155  20.543 -0.0848  0.0763  0.2382
31814W        W38414  16.112   0.680  28.341  0.0461 -0.2214  0.0154
31815W        W38415   3.565   4.866   1.671 -0.0820 -0.3569 -0.0558
31816W        W38416   3.119   2.157   8.520 -0.0196 -0.1197  0.0579
31817W        W38417  13.735   0.937   1.672  0.0495  0.2149  0.0503
31818W        W38418  19.972   5.378  29.240 -0.0439  0.2360 -0.4008
31819W        W38419   3.248   5.824  31.294  0.3140 -0.2942 -0.2464
31820W        W38420   0.017   4.240  28.580 -0.1163 -0.1014 -0.3877
31821W        W38421  23.693   5.836  21.170 -0.0947 -0.0302  0.1262
31822W        W38422  12.584   0.755  24.966 -0.0122 -0.3103 -0.1111
31823W        W38423  10.489   7.165  18.824  0.0181  0.0082 -0.0169
31824W        W38424   7.428   6.839  24.108  0.0416  0.0505  0.1529
31825W        W38425   6.541   5.010  17.544  0.2318  0.0644  0.1089
31826W        W38426   8.677   6.926   0.338  0.3307  0.0595  0.0312
31827W        W38427   8.549   0.463  15.918 -0.2127  0.2175  0.0414
31828W        W38428  19.168   6.026  29.670 -0.2667  0.1308  0.1130
31829W        W38429   0.659   5.711  21.099  0.0931  0.2226 -0.1663
31830W        W38430  18.811   1.578   6.046  0.0390  0.1057 -0.0470
31831W        W38431   3.530   5.269  28.881  0.2463 -0.1497  0.2172
31832W        W38432   7.399   1.276  13.883 -0.2476  0.0409 -0.0893
31833W        W38433  17.792   6.808  12.039 -0.0861 -0.0113 -0.0295
31834W        W38434   9.837   3.711  30.434  0.0960 -0.0401 -0.0913
31835W        W38435   5.666   2.998  24.214 -0.0319  0.4067  0.0498
31836W        W38436   0.352   1.332  25.421 -0.0282  0.1492 -0.0420
31837W        W38437  16.735   6.370   5.223  0.2393  0.1776  0.0149
31838W        W38438  17.644   5.528  32.459  0.2397 -0.1956 -0.1139
31839W        W38439  18.297   5.142  12.928  0.0203  0.2021  0.3054
31840W        W38440  23.131   1.601  11.613 -0.0504  0.2062 -0.1863
31841W        W38441   2.647   6.233  27.942 -0.1219 -0.1241  0.1580
31842W        W38442  17.215   0.626  26.842 -0.1560  0.3351 -0.3000
31843W        W38443  16.972   6.142   6.011 -0.1277  0.2384  0.0244
31844W        W38444  19.033   7.772   7.515  0.1044  0.0648 -0.0804
31845W        W38445  11.128   0.303  23.650  0.2311  0.0592  0.1364
31846W        W38446  23.267   3.331   4.388 -0.0483 -0.1321  0.0478
31847W        W38447  20.631   6.168   0.381  0.3143 -0.3568  0.3581
31848W        W38448  18.777   6.118  17.134  0.1276  0.1198  0.0876
31849W        W38449   2.916   2.816  31.403 -0.0345 -0.0961 -0.0003
31850W        W38450   4.231   6.845   8.466 -0.0376 -0.1775  0.1841
31851W        W38451   4.923   6.671  17.373 -0.1331 -0.2036  0.1906
31852W        W38452  20.167   7.034  11.871  0.0192 -0.0261  0.3156
31853W        W38453   0.157   5.612  31.174  0.0269 -0.2696 -0.0381
31854W        W38454   5.772   6.962  10.395  0.0543  0.0667 -0.1088
31855W        W38455   1.619   7.703  31.291 -0.1370 -0.3591  0.0957
31856W        W38456  18.850   3.324  24.762 -0.1196  0.0149 -0.0901
31857W        W38457  20.901   3.460  14.268 -0.3113 -0.0512  0.1833
31858W        W38458  16.454   1.332  15.506 -0.0500  0.1123  0.3137
31859W        W38459   7.735   2.878   0.916  0.1352  0.2706  0.3999
31860W        W38460   9.749   4.011  25.520 -0.0215  0.0494  0.0842
31861W        W38461  16.979   0.884  30.993 -0.1644 -0.0327  0.2871
31862W        W38462  13.764   3.623  24.717 -0.0691  0.2299 -0.0228
31863W        W38463  16.453   1.221  24.654  0.0943 -0.1379  0.0301
31864W        W38464  21.841   4.171  32.059  0.0940  0.0327 -0.1631
31865W        W38465   5.126   6.377  31.141 -0.0197  0.1074 -0.0022
31866W        W38466  15.901   7.536  26.682  0.0804  0.1846  0.2180
31867W        W38467  15.213   2.741  27.804  0.0198 -0.2552  0.0236
31868W        W38468   0.810   7.362  10.155  0.1888 -0.0364  0.3261
31869W        W38469  15.988   5.165  32.030 -0.0181  0.1255  0.1391
31870W        W38470   4.302   5.100   3.620  0.1365  0.3240 -0.3855
31871W        W38471  12.570   0.759  29.441 -0.0890 -0.0597 -0.2417
31872W        W38472  22.271   5.811  32.063  0.2719  0.1403  0.4172
31873W        W38473  14.932   2.922   5.500  0.0724 -0.0145  0.2287
31874W        W38474  10.754   4.653  24.515 -0.2224 -0.0250 -0.0906
31875W        W38475   7.232   3.359  15.662  0.1132  0.0392  0.0036
31876W        W38476  14.190   2.298  24.534 -0.0062  0.1263 -0.1591
31877W        W38477   0.197   0.459   9.673  0.1213  0.2563 -0.0084
31878W        W38478  23.905   4.507  12.424  0.0290  0.0593  0.1159
31879W        W38479  15.159   3.565  21.646  0.0097 -0.0164 -0.2443
31880W        W38480   5.516   0.869   0.680  0.0304  0.0447  0.0204
31881W        W38481  23.110   7.481  30.517  0.3893  0.0550 -0.0766
31882W        W38482  11.291   4.989  23.251 -0.0325  0.2023 -0.1164
31883W        W38483  22.334   7.042   3.011 -0.0372 -0.2538 -0.0053
31884W        W38484  22.377   6.564   3.697  0.1932 -0.2437  0.1181
31885W        W38485  18.758   4.142  30.519 -0.2821 -0.2469  0.1533
31886W        W38486   1.490   1.881   1.038  0.1017 -0.3283  0.1065
31887W        W38487   9.627   4.303  17.150 -0.0570  0.0120  0.1539
31888W        W38488  13.479   0.218  28.976 -0.0422 -0.4201 -0.0347
31889W        W38489  14.385   6.543   8.726  0.0652  0.0780  0.1623
31890W        W38490   6.656   2.787  28.675  0.3629 -0.0635  0.0969
31891W        W38491  23.885   2.694  24.545  0.0225 -0.1556  0.2766
31892W        W38492  13.879   6.227   2.573 -0.0388  0.1149  0.0680
31893W        W38493   7.627   2.616  27.663  0.0944  0.1808 -0.1742
31894W        W38494  11.472   5.290  28.794  0.0748 -0.3290 -0.1029
31895W        W38495  22.109   2.574  16.090  0.0572 -0.0811  0.0116
31896W        W38496   3.096   1.766   3.375 -0.4119  0.1571  0.1097
31897W        W38497  14.434   1.310  14.171 -0.0195 -0.2028 -0.1227
31898W        W38498   6.907   5.586  17.321 -0.2043  0.2015 -0.0591
31899W        W38499   5.850   4.342   3.860  0.0325 -0.0141  0.3430
31900W        W38500  18.494   5.680  11.062  0.1636 -0.3324  0.0275
31901W        W38501   5.423   6.702   2.520  0.2436  0.1849 -0.1118
31902W        W38502  16.481   6.677  12.089 -0.0823 -0.0135 -0.0240
31903W        W38503   2.946   2.346   2.612 -0.1076 -0.0529  0.0680
31904W        W38504   0.235   6.599   4.535 -0.1267 -0.0285  0.1451
31905W        W38505   4.972   0.177  23.771  0.3555  0.0076  0.1627
31906W        W38506   2.351   5.563  27.754 -0.1626 -0.3231 -0.0111
31907W        W38507   3.184   2.467  31.158 -0.0968 -0.3397 -0.0635
31908W        W38508  14.080   0.835  29.452 -0.0297 -0.3961  0.0220
31909W        W38509   1.879   7.278   6.884 -0.0706  0.1502 -0.0910
31910W        W38510  16.626   4.621   0.387  0.2623  0.2866 -0.0114
31911W        W38511  11.400   1.371   3.931  0.1431  0.1362 -0.1305
31912W        W38512  23.731   4.829   8.078  0.0662 -0.1220  0.0774
31913W        W38513  12.988   3.186  27.522 -0.1071  0.0681  0.1166
31914W        W38514  12.953   4.922  10.903  0.0090  0.2168 -0.0371
31915W        W38515  20.635   1.953   2.088  0.0341  0.0972  0.0562
31916W        W38516   6.026   3.808  19.503 -0.1084  0.2015  0.0505
31917W        W38517   4.906   0.534   2.463 -0.1263 -0.1272 -0.0972
31918W        W38518   6.590   5.694  15.318  0.4463  0.0188  0.0095
31919W        W38519  14.237   2.980  29.879  0.0555 -0.0297  0.1417
31920W        W38520  19.612   1.874   9.617  0.1437  0.0010 -0.0766
31921W        W38521  11.413   0.037  29.107 -0.1062 -0.1112  0.1731
31922W        W38522  20.025   4.610  27.671 -0.0617 -0.1762 -0.0714
31923W        W38523  20.350   4.507  29.015  0.0107 -0.1067  0.0497
31924W        W38524  12.315   2.755   8.975  0.1318  0.1509  0.0195
31925W        W38525   8.357   5.217  24.725 -0.2963 -0.0645  0.0957
31926W        W38526  25.008   0.730  29.465  0.1656  0.3465  0.1581
31927W        W38527  22.915   5.338  12.984  0.1889 -0.0276 -0.0595
31928W        W38528   8.999   6.602  22.996 -0.1060  0.1165  0.2502
31929W        W38529   0.999   1.949  10.602 -0.0373  0.3555  0.1040
31930W        W38530  22.021   6.242  14.566  0.1557 -0.2032  0.0731
31931W        W38531  12.496   3.356   8.145  0.0720  0.0635 -0.0878
31932W        W38532   6.363   0.891  25.702  0.1962 -0.0606  0.4927
31933W        W38533   6.429   5.763  32.061 -0.0243 -0.1252 -0.1018
31934W        W38534   6.220   6.156   2.385 -0.1838 -0.0577 -0.0981
31935W        W38535  10.987   6.570  18.542 -0.0770 -0.1011  0.0410
31936W        W38536  24.221   7.213  11.178  0.0715  0.1776  0.2282
31937W        W38537   5.165   1.749  24.325  0.0428  0.2600  0.0905
31938W        W38538  15.443   7.326  15.941 -0.1736 -0.1409  0.1735
31939W        W38539  20.821   0.456  11.572 -0.2692 -0.0759  0.1524
31940W        W38540  12.096   5.914  18.723 -0.0119 -0.0302  0.0445
31941W        W38541  24.675   3.532   4.678  0.2609 -0.1735  0.0332
31942W        W38542   8.570   0.145   7.902 -0.4132 -0.0734  0.1001
31943W        W38543  12.054   5.172  27.993 -0.2593 -0.0221  0.2582
31944W        W38544  21.037   7.357   8.186  0.2323  0.4786  0.1510
31945W        W38545  20.801   6.802  13.684 -0.2018 -0.0717 -0.0174
31946W        W38546  24.582   3.567   3.295 -0.0958 -0.1884 -0.2394
31947W        W38547  14.548   7.816  10.398 -0.0759  0.3811 -0.0073
31948W        W38548  16.584   6.897  11.484  0.2936 -0.0960 -0.3331
31949W        W38549  18.239   5.005  12.456 -0.0523 -0.0107 -0.3798
31950W        W38550   0.974   5.208   8.617  0.1791 -0.3793  0.1514
31951W        W38551  24.446   6.344   2.435  0.1763 -0.1486 -0.0703
31952W        W38552  18.072   5.490  15.124 -0.0760  0.1598 -0.1836
31953W        W38553   9.510   5.363   0.773 -0.1737  0.3448 -0.0310
31954W        W38554  23.149   3.922  24.806 -0.0302  0.0801 -0.0689
31955W        W38555  19.015   5.396  29.300 -0.0629  0.2068  0.1235
31956W        W38556  22.088   7.685   4.349  0.1262  0.1295  0.1252
31957W        W38557  23.686   1.632  25.134 -0.1644 -0.1607  0.2145
31958W        W38558  21.238   6.632  11.994 -0.1095 -0.0655 -0.1059
31959W        W38559   1.821   5.848   0.169 -0.1946 -0.1097  0.0677
31960W        W38560  15.975   2.716  24.017  0.0453 -0.0928 -0.0067
31961W        W38561   3.174   6.414  28.510 -0.1909  0.1612 -0.1213
31962W        W38562  21.697   0.016   0.929 -0.3680 -0.0274 -0.0822
31963W        W38563  13.798   4.894  26.890  0.0154 -0.0511 -0.1716
31964W        W38564  19.531   6.200  22.450  0.0049  0.0283  0.0882
31965W        W38565  12.292   5.300   2.174  0.1276  0.2414 -0.0524
31966W        W38566   7.376   0.006  31.830  0.0747 -0.1359  0.0402
31967W        W38567   2.550   5.621  32.288 -0.0288 -0.0148 -0.2104
31968W        W38568   1.854   4.472  24.789 -0.2108  0.1037  0.1072
31969W        W38569  20.463   1.577   5.506 -0.1827  0.0423 -0.0202
31970W        W38570   2.848   7.600  27.171  0.0583  0.0415 -0.1256
31971W        W38571   3.600   3.582  18.922  0.1658  0.0296 -0.0041
31972W        W38572   6.862   2.505  21.842 -0.1249  0.0541  0.0116
31973W        W38573   5.498   1.638  25.890  0.0718 -0.0234 -0.1119
31974W        W38574  24.960   0.941   1.121  0.0574 -0.1480  0.0517
31975W        W38575  14.642   7.379  24.804  0.2988  0.2185 -0.2930
31976W        W38576   8.490   0.604  22.651  0.1359  0.0813 -0.0308
31977W        W38577   6.347   1.049  24.299  0.1851 -0.2844 -0.1923
31978W        W38578  16.086   3.388  30.012  0.0156 -0.4577  0.0291
31979W        W38579  17.378   7.339   0.921 -0.2397 -0.0317  0.2322
31980W        W38580  13.487   7.076  30.481 -0.3144  0.1305  0.2591
31981W        W38581  13.167   4.899   4.314 -0.2757 -0.2371 -0.0199
31982W        W38582   2.259   5.504  20.773 -0.0485 -0.1088  0.0031
31983W        W38583  10.658   4.249  26.948  0.0847  0.1859  0.2264
31984W        W38584   2.138   3.923  29.948  0.1758 -0.0786 -0.4321
31985W        W38585  17.575   4.206   1.272 -0.0369 -0.1276 -0.0971
31986W        W38586   7.242   5.511  20.745  0.3257 -0.2377 -0.2724
31987W        W38587  20.940   5.795  31.315 -0.6938 -0.2567  0.1246
31988W        W38588   9.892   6.990  25.928 -0.0332  0.1462 -0.0235
31989W        W38589  24.296   7.635   7.908  0.3679  0.2495  0.2668
31990W        W38590  17.332   1.366  25.330  0.1592 -0.2031 -0.0737
31991W        W38591   7.286   2.116  21.550 -0.1887 -0.4127 -0.2839
31992W        W38592  22.728   5.741  12.688  0.0281  0.2354  0.0773
31993W        W38593  14.355   7.720  25.659  0.1655  0.2042  0.2044
31994W        W38594  20.926   1.464  12.659 -0.0986  0.1796  0.1432
31995W        W38595  15.270   1.116  31.615 -0.2399  0.1062  0.0303
31996W        W38596   7.766   7.678   3.774  0.0930  0.3426 -0.0115
31997W        W38597   6.916   3.428   4.295 -0.1314  0.0042 -0.2779
31998W        W38598   1.356   4.732  29.884 -0.0890 -0.3086  0.0833
31999W        W38599  13.995   5.240  22.313  0.0676 -0.0517 -0.0426
32000W        W38600  23.974   4.215   4.772  0.1298  0.0429 -0.1619
32001W        W38601  18.121   1.154  30.810 -0.0973 -0.0501  0.4794
32002W        W38602  13.951   3.028  20.011  0.1049 -0.0984  0.1932
32003W        W38603   6.587   7.253  20.535  0.0716  0.0418  0.0956
32004W        W38604  12.062   6.794   3.060 -0.1759  0.0056  0.1249
32005W        W38605   1.355   7.088   5.039 -0.1328  0.0347  0.0888
32006W        W38606   0.319   0.570  27.250  0.1481 -0.0460 -0.0943
32007W        W38607  20.557   2.424   3.222 -0.0403  0.0309  0.2078
32008W        W38608   4.661   3.670  26.801 -0.1047  0.2622 -0.3904
32009W        W38609  17.510   4.628   4.588  0.1521 -0.1839 -0.1865
32010W        W38610  11.799   3.821  11.344 -0.2022 -0.1994 -0.0235
32011W        W38611   2.776   6.903   9.212 -0.0925  0.0490  0.2243
32012W        W38612  12.206   2.827  23.298 -0.1487 -0.1031 -0.0364
32013W        W38613   9.209   6.804   7.191  0.1968  0.1172  0.1225
32014W        W38614  10.563   2.029  18.894 -0.1504  0.0435 -0.1955
32015W        W38615   1.311   5.316   3.660 -0.0565 -0.0767  0.2789
32016W        W38616   5.036   6.600  26.047  0.1569  0.0264  0.0520
32017W        W38617   9.636   5.469   5.092  0.0315  0.0525 -0.0301
32018W        W38618   0.622   4.088  22.390 -0.2389  0.1097 -0.2759
32019W        W38619  12.147   0.698   0.849 -0.1756 -0.0334 -0.1858
32020W        W38620  10.041   6.409  17.139  0.0871 -0.1669 -0.1959
32021W        W38621  20.318   1.637   6.373 -0.2194 -0.0466 -0.1633
32022W        W38622   5.981   7.369  29.008  0.1541  0.0610 -0.0101
32023W        W38623   4.090   7.006  23.039 -0.3542 -0.0363  0.2652
32024W        W38624   9.540   6.450   0.209 -0.1333 -0.0490  0.0639
32025W        W38625  14.076   4.053  24.430 -0.1235  0.2990  0.1225
32026W        W38626  17.221   2.118   7.438 -0.3463  0.2879 -0.1125
32027W        W38627   3.988   0.451   9.113 -0.1200  0.0377  0.1939
32028W        W38628  21.524   1.025  28.770  0.2183  0.2451 -0.0862
32029W        W38629  13.825   2.627  28.369 -0.3156  0.1908 -0.1794
32030W        W38630   1.892   7.768  23.686 -0.0956 -0.0923  0.0318
32031W        W38631   5.793   1.316   0.953  0.1693 -0.1903 -0.1531
32032W        W38632  20.944   1.644  31.685 -0.1076 -0.0405  0.0879
32033W        W38633  21.088   2.013  11.597  0.0848  0.0498  0.0590
32034W        W38634   7.490   5.054  25.907  0.1246 -0.0787 -0.2626
32035W        W38635   8.770   2.667  20.166  0.4160  0.2579  0.2315
32036W        W38636  19.470   4.566  12.807  0.0414  0.0458  0.0076
32037W        W38637  10.674   0.055  21.937 -0.3276  0.0367  0.0077
32038W        W38638  12.502   5.337  11.744  0.3582 -0.2873  0.1269
32039W        W38639  14.288   2.166  31.437 -0.1753  0.0388  0.1192
32040W        W38640   8.168   2.698   4.461 -0.1377  0.0678  0.0390
32041W        W38641  18.561   1.922   4.283  0.2559 -0.1230  0.0803
32042W        W38642  23.460   0.798   1.823  0.0160  0.0417  0.1548
32043W        W38643  20.890   7.629  16.930 -0.1089 -0.2658  0.0089
32044W        W38644  12.443   3.807  30.666 -0.3002 -0.0458  0.0923
32045W        W38645  17.105   7.346  22.934  0.1430  0.1251 -0.1759
32046W        W38646  19.274   3.662  27.588  0.0404 -0.0078  0.0381
32047W        W38647  17.363   2.424  31.005  0.1036 -0.2114  0.0055
32048W        W38648  20.152   0.466  23.433 -0.1002 -0.0078  0.1522
32049W        W38649  13.359   6.797   8.519 -0.0842  0.0712  0.0301
32050W        W38650   4.492   0.842  19.872 -0.1042  0.1882 -0.1115
32051W        W38651  24.079   4.307  11.382  0.4137 -0.1606  0.1388
32052W        W38652   2.538   4.324   3.362 -0.1805  0.0792  0.0711
32053W        W38653   8.495   7.805  21.790  0.1493  0.1035 -0.0696
32054W        W38654  18.173   2.458  16.456 -0.1578  0.0397  0.2899
32055W        W38655  23.603   5.988   4.328  0.0680 -0.0130  0.2593
32056W        W38656   8.278   1.089  21.894 -0.0098  0.0589 -0.0008
32057W        W38657  20.543   1.439  10.918  0.1786 -0.1024  0.1403
32058W        W38658  20.176   1.973   9.626  0.1579 -0.1652  0.1232
32059W        W38659   0.910   3.901  27.278  0.1593 -0.1017  0.1320
32060W        W38660  14.156   4.060   4.586 -0.0539 -0.2223  0.2570
32061W        W38661  22.824   7.536  26.706 -0.0377  0.1363  0.1398
32062W        W38662   8.929   3.857  26.942 -0.1290 -0.2174  0.1963
32063W        W38663   0.158   1.499  29.738 -0.1601 -0.5013  0.0307
32064W        W38664  17.338   3.974   0.044 -0.2145 -0.2896  0.2745
32065W        W38665  19.462   5.182   5.560  0.2047  0.2526  0.1210
32066W        W38666   3.119   5.414  11.430  0.0532 -0.2713 -0.1639
32067W        W38667   7.662   1.711  18.602  0.0149  0.1200 -0.2685
32068W        W38668  24.702   0.290   6.732 -0.0106 -0.2598  0.0581
32069W        W38669   5.178   3.096  22.214  0.2406  0.1126  0.0721
32070W        W38670   5.589   6.433   7.536 -0.0985  0.0315 -0.2808
32071W        W38671  13.809   5.978   5.081 -0.1076  0.2866  0.0154
32072W        W38672  23.202   7.457  31.419 -0.2196 -0.2253  0.1704
32073W        W38673  16.534   2.781   1.461 -0.0973  0.0652 -0.2616
32074W        W38674  14.250   3.690  25.604 -0.0023 -0.0404  0.1514
32075W        W38675   6.774   1.633  27.337 -0.2357  0.0453  0.0838
32076W        W38676  14.265   2.678  32.057 -0.0330  0.2746 -0.0470
32077W        W38677   9.030   1.884  24.595  0.1551  0.0088  0.0320
32078W        W38678   9.482   5.142   4.560 -0.2007 -0.1375  0.1421
32079W        W38679  13.426   1.289   2.592 -0.2717 -0.0200  0.0024
32080W        W38680  18.299   2.515  23.032 -0.1116  0.0151 -0.1656
32081W        W38681   7.319   2.344  21.974 -0.0655  0.0050  0.2397
32082W        W38682   4.835   3.440  26.427  0.0721 -0.1882  0.0604
32083W        W38683   1.076   6.686   3.028 -0.0153  0.0159 -0.1380
32084W        W38684   7.207   3.851  25.248  0.0841  0.1228 -0.1198
32085W        W38685  22.135   4.473  12.197 -0.1844  0.1287  0.0170
32086W        W38686   1.352   2.766   1.266  0.0437  0.1316  0.1572
32087W        W38687  17.685   5.818  17.340 -0.1221  0.2654 -0.0112
32088W        W38688  17.644   1.194  11.987  0.0601  0.2431 -0.0359
32089W        W38689  12.526   2.307   7.041  0.0316 -0.2477  0.0226
32090W        W38690   5.902   3.210   9.648  0.1214  0.2457  0.0521
32091W        W38691   4.907   7.313  32.281 -0.0325  0.0009  0.0391
32092W        W38692  24.492   6.577  14.316 -0.1873  0.1078 -0.3627
32093W        W38693   2.923   4.326   1.750 -0.1787  0.2862 -0.0185
32094W        W38694  11.211   7.815  26.071  0.1221 -0.1412  0.0115
32095W        W38695  17.245   2.261  27.244  0.0137 -0.0069  0.0922
32096W        W38696  24.794   2.601  29.012 -0.0755 -0.2442 -0.1379
32097W        W38697  20.169   3.699   8.134 -0.0344  0.3328  0.1027
32098W        W38698  17.618   7.736   4.787 -0.0074  0.1388  0.0885
32099W        W38699  19.286   7.031  25.781 -0.3201  0.0449  0.0237
32100W        W38700  16.870   6.043   7.479  0.2364  0.4876  0.3712
32101W        W38701   4.462   3.357  25.022  0.0444 -0.0670 -0.0243
32102W        W38702  18.008   6.270  12.170  0.2553  0.1028 -0.0189
32103W        W38703  25.152   6.229  12.322 -0.0320 -0.1593  0.2978
32104W        W38704   5.410   5.418   5.277 -0.2099 -0.2442  0.0142
32105W        W38705  10.349   7.583  17.958  0.0535 -0.0479 -0.2997
32106W        W38706   4.160   6.917   6.278 -0.0901  0.2488  0.0721
32107W        W38707  18.446   2.217  22.718  0.0310  0.2712 -0.0283
32108W        W38708  14.675   3.558   7.025  0.2675  0.0904  0.2039
32109W        W38709   8.248   6.614  29.329 -0.0414  0.1521  0.1139
32110W        W38710   8.302   5.906  26.782 -0.2455 -0.0344 -0.0610
32111W        W38711   7.315   1.734   7.341  0.0706 -0.0289 -0.1262
32112W        W38712  13.238   5.108   2.709  0.0665 -0.1753  0.0115
32113W        W38713   9.925   0.244  23.645 -0.1437  0.0057 -0.1465
32114W        W38714  17.042   2.774  10.472  0.2453  0.0346 -0.0472
32115W        W38715  14.986   4.983   0.417 -0.2070 -0.0454 -0.1827
32116W        W38716   9.479   2.273  18.923  0.0825 -0.1302  0.2082
32117W        W38717  19.550   4.120  26.733  0.0985 -0.0700 -0.1694
32118W        W38718   8.393   4.179  28.295 -0.1064 -0.1979 -0.0668
32119W        W38719  17.682   2.070  32.156  0.1655 -0.1831 -0.2702
32120W        W38720  19.606   1.690   4.775 -0.0630  0.0087 -0.0045
32121W        W38721  11.322   1.012  26.612 -0.1430  0.0622  0.1668
32122W        W38722  12.883   5.871  30.147 -0.0430 -0.3183 -0.0209
32123W        W38723  22.012   7.435   7.778 -0.0099 -0.2039 -0.3154
32124W        W38724  24.887   2.951  28.254  0.1183  0.0317 -0.1374
32125W        W38725  15.419   2.254  22.818  0.0164  0.2521 -0.1329
32126W        W38726   5.174   3.729  31.446 -0.0040  0.2230  0.3316
32127W        W38727  11.567   5.189  21.971  0.2501  0.2548  0.0716
32128W        W38728  23.930   6.806  30.030 -0.1685  0.0169 -0.0796
32129W        W38729  13.360   7.096   9.796  0.0766  0.1274  0.1077
32130W        W38730  12.054   6.962   3.495 -0.0372 -0.2371 -0.0873
32131W        W38731   9.916   6.469   6.847 -0.0111  0.1351 -0.0148
32132W        W38732  16.255   0.606  23.711 -0.0845  0.0457  0.2498
32133W        W38733  23.430   6.744  20.824 -0.2230 -0.0081 -0.0233
32134W        W38734   5.398   0.150  26.991  0.0580 -0.0021  0.1567
32135W        W38735  11.953   1.347  24.420 -0.0256 -0.1176 -0.0604
32136W        W38736   6.886   1.676   4.008 -0.1246 -0.1090 -0.0310
32137W        W38737  18.641   1.895   6.433 -0.0210  0.2739  0.1970
32138W        W38738  17.112   7.667  22.120  0.2648 -0.1879  0.0851
32139W        W38739  14.314   0.585  26.045 -0.0177  0.1616  0.0284
32140W        W38740  24.002   4.193  23.905  0.0301 -0.1355 -0.0487
32141W        W38741   0.896   1.984   0.216  0.2078 -0.1157 -0.0783
32142W        W38742   0.337   1.545  20.862 -0.2183 -0.1057  0.1405
32143W        W38743   6.523   4.199  19.246  0.1291  0.2301  0.2543
32144W        W38744  21.667   3.110  32.433  0.1788 -0.1272 -0.1384
32145W        W38745  24.314   3.691  13.523 -0.3264  0.0662  0.0019
32146W        W38746   0.145   2.472  11.340  0.2453 -0.2663 -0.4310
32147W        W38747   3.217   2.296  17.313  0.3963 -0.0072  0.2608
32148W        W38748   3.340   3.534   9.659 -0.0337 -0.0333  0.1918
32149W        W38749   3.147   7.158  28.570  0.2782 -0.2116  0.0656
32150W        W38750   4.152   3.407   1.987  0.0029  0.0897  0.1207
32151W        W38751  18.003   0.756   0.050  0.0391  0.0429  0.2669
32152W        W38752  14.415   6.942   2.327 -0.0002  0.0144  0.0426
32153W        W38753  23.167   1.844  21.493  0.0710  0.1766 -0.0629
32154W        W38754  24.480   5.458  12.303  0.4660  0.0904 -0.2485
32155W        W38755  22.533   3.462   8.050  0.1857 -0.1208 -0.2551
32156W        W38756   9.203   4.917   0.253  0.0743  0.0874  0.0167
32157W        W38757  13.640   5.072  29.792  0.0808 -0.3249  0.3464
32158W        W38758  24.328   6.406  21.203 -0.1319  0.0704  0.0070
32159W        W38759  13.194   6.147   5.664 -0.2036 -0.1075  0.0436
32160W        W38760  19.889   0.533  25.048 -0.2816  0.1056  0.2166
32161W        W38761   3.842   1.087  19.505 -0.3227  0.1008  0.0372
32162W        W38762  18.508   0.806  13.711  0.0497  0.0161 -0.3964
32163W        W38763   9.029   3.574   8.007  0.1892 -0.2034 -0.0315
32164W        W38764  15.433   4.174  12.380  0.2577  0.1726  0.2750
32165W        W38765  19.649   7.758  27.468 -0.0175  0.0404 -0.0379
32166W        W38766   7.640   3.876  24.920 -0.3009  0.1073 -0.4721
32167W        W38767   2.395   1.487   9.281 -0.1431 -0.2764  0.1919
32168W        W38768   8.175   3.416  19.852 -0.0196  0.1260 -0.2354
32169W        W38769  21.240   7.307   0.267  0.1263  0.1828 -0.4663
32170W        W38770  21.822   1.924   9.753  0.2180  0.1161  0.1592
32171W        W38771   4.968   3.420  30.859 -0.0450 -0.0910  0.1688
32172W        W38772   6.454   1.896   0.542 -0.0193 -0.1445 -0.0832
32173W        W38773  18.634   0.571   1.792 -0.1488 -0.1383  0.0847
32174W        W38774  14.307   7.352  25.257 -0.2703  0.0049 -0.3722
32175W        W38775  11.299   2.950  23.832 -0.3118  0.0517  0.2227
32176W        W38776   8.597   6.654   3.488  0.1714  0.2568  0.2827
32177W        W38777  10.119   2.615   9.772  0.1042 -0.0041 -0.0307
32178W        W38778  18.886   1.389  32.144 -0.1118 -0.0908 -0.0959
32179W        W38779  18.713   6.085  24.330 -0.1787  0.0503 -0.2782
32180W        W38780   4.606   0.396  23.282 -0.1733  0.1227  0.1391
32181W        W38781  11.375   4.095   2.998 -0.0464  0.2071  0.1755
32182W        W38782  16.986   2.233   3.167  0.0977 -0.3413 -0.0172
32183W        W38783  13.513   0.991   9.273  0.2497 -0.1135  0.0719
32184W        W38784   7.772   6.348  23.854 -0.2750  0.1065  0.1453
32185W        W38785  20.975   6.166  16.494  0.0260  0.0286 -0.0480
32186W        W38786   5.745   3.342   2.456 -0.0164  0.0483  0.1409
32187W        W38787  14.657   0.061   2.248 -0.3588  0.0308  0.0997
32188W        W38788  16.969   6.435  13.765 -0.1790  0.3837 -0.2523
32189W        W38789   7.307   1.731  26.115 -0.0626  0.0665  0.0625
32190W        W38790  14.499   3.914  23.699  0.0724 -0.0797  0.0305
32191W        W38791   1.131   1.320  18.793  0.2632 -0.1211  0.3841
32192W        W38792   9.748   5.330  29.471 -0.2509  0.2751  0.0659
32193W        W38793   5.588   1.138  31.178  0.1447  0.0429  0.0376
32194W        W38794   9.136   1.594   5.764  0.0596  0.0532  0.0847
32195W        W38795  11.523   5.532  27.605  0.2592 -0.0293 -0.0820
32196W        W38796   7.531   3.272  19.142 -0.1873  0.1116  0.0183
32197W        W38797   5.374   4.690  28.187  0.0177  0.1052 -0.1227
32198W        W38798   8.497   4.607  31.217 -0.1078 -0.1790  0.0313
32199W        W38799   7.601   5.046   5.514 -0.0656  0.0779  0.0465
32200W        W38800   3.776   5.979  30.076 -0.2335 -0.0951  0.1003
32201W        W38801   4.724   3.785   6.936 -0.1670 -0.0895 -0.2613
32202W        W38802  21.179   4.806  10.551 -0.2160  0.0918 -0.1072
32203W        W38803  19.301   1.541  23.567 -0.2078  0.1311 -0.2294
32204W        W38804  21.965   6.462  21.668 -0.2573 -0.2029  0.0405
32205W        W38805  15.253   6.938  32.273  0.0951  0.0692 -0.0252
32206W        W38806  21.350   5.230   5.066  0.2252 -0.2362 -0.1136
32207W        W38807   7.338   6.790  26.168 -0.2601  0.3739 -0.0265
32208W        W38808  15.006   4.963   2.023 -0.0040  0.0921  0.0633
32209W        W38809  10.268   0.822  16.522  0.1987 -0.0421  0.4296
32210W        W38810   8.156   7.696  28.576  0.0113 -0.1218 -0.0918
32211W        W38811  22.736   3.912   2.738 -0.3666 -0.1119 -0.1217
32212W        W38812   8.541   0.449  20.544 -0.0003  0.3153 -0.1758
32213W        W38813  14.080   1.488  24.336 -0.2587  0.1680 -0.1623
32214W        W38814  22.382   5.847   2.610 -0.0480 -0.0268  0.0649
32215W        W38815  11.976   4.100  24.952 -0.1773 -0.2711  0.0962
32216W        W38816  23.643   3.736  10.689  0.1099 -0.0191 -0.0608
32217W        W38817  14.326   1.516   1.671  0.0480  0.0210  0.3247
32218W        W38818   0.611   4.380  11.749  0.2021 -0.1268  0.2068
32219W        W38819  10.631   6.489  29.580  0.2080  0.1094  0.1266
32220W        W38820  17.788   2.518  10.154 -0.0837 -0.1850 -0.2171
32221W        W38821  20.661   7.418  30.616 -0.3443 -0.2267  0.0909
32222W        W38822  20.232   2.973  26.290 -0.1626 -0.1460 -0.2253
32223W        W38823  16.226   4.450   7.428 -0.1022  0.1073 -0.1070
32224W        W38824   2.147   7.490   3.765  0.0067 -0.4141 -0.1111
32225W        W38825  15.836   5.946  31.056 -0.0107  0.2493  0.3115
32226W        W38826  21.492   5.364  28.507 -0.1387 -0.3136  0.2592
32227W        W38827   1.668   3.936  28.514  0.1321  0.1966 -0.2555
32228W        W38828  16.462   0.437  11.185  0.0691  0.1951 -0.0640
32229W        W38829  22.090   3.553  23.801  0.2037  0.2402  0.2215
32230W        W38830  25.139   3.966  25.047 -0.3251 -0.1208 -0.0225
32231W        W38831   2.822   3.635  24.866  0.0630  0.0498  0.0390
32232W        W38832  14.509   4.710  23.874 -0.0336 -0.1095 -0.0056
32233W        W38833   5.410   3.452   2.117 -0.1404  0.0506  0.3113
32234W        W38834   8.975   0.454  24.843  0.1882  0.0356  0.0924
32235W        W38835  23.877   1.423  30.556  0.1236  0.0581  0.1163
32236W        W38836   1.272   0.482  26.135 -0.1400 -0.1688 -0.1044
32237W        W38837   5.531   2.248  17.595  0.4154 -0.2019 -0.1454
32238W        W38838   1.071   7.497  11.233  0.2382 -0.1344 -0.0098
32239W        W38839  22.070   5.400  26.584 -0.0751  0.0442  0.3662
32240W        W38840   0.071   7.128  13.511 -0.1773  0.2848  0.0697
32241W        W38841  25.016   6.289   0.922 -0.0225  0.1142  0.2671
32242W        W38842  23.456   6.948  14.930 -0.0688  0.0217 -0.0166
32243W        W38843  23.734   4.486  24.757 -0.0400 -0.1888  0.3017
32244W        W38844  18.669   6.983   3.464 -0.0697  0.1859  0.1429
32245W        W38845   4.429   1.087  18.674  0.1864 -0.0115  0.2544
32246W        W38846   6.703   2.401  18.674  0.1057  0.0515 -0.2361
32247W        W38847  23.386   3.346  21.781  0.1081  0.2204 -0.2147
32248W        W38848  19.419   0.837  28.296  0.0789 -0.2480  0.0593
32249W        W38849  14.214   1.018  27.469 -0.1431 -0.1826  0.0792
32250W        W38850  21.938   4.196  14.566 -0.0155 -0.2438 -0.0332
32251W        W38851   9.557   5.896  20.060  0.0188  0.1467 -0.1575
32252W        W38852  21.152   4.622  13.768  0.0468  0.3807  0.2325
32253W        W38853   7.759   6.222   9.040 -0.1547  0.0705 -0.0853
32254W        W38854  13.368   0.330  30.986 -0.0313  0.1476 -0.2154
32255W        W38855  15.208   1.987  31.922  0.1768 -0.0783 -0.3985
32256W        W38856  24.037   4.518  31.230  0.1244 -0.1422  0.1495
32257W        W38857  21.797   3.466  30.201 -0.0745 -0.0757 -0.4937
32258W        W38858  10.055   4.394   6.912 -0.0622 -0.2367 -0.0657
32259W        W38859  17.571   3.236  12.081 -0.2820 -0.0734  0.0515
32260W        W38860   7.035   4.298  28.714  0.0356 -0.0322 -0.3345
32261W        W38861  13.873   0.909  30.018 -0.0747  0.0213 -0.2856
32262W        W38862  13.977   2.211  12.990 -0.1901  0.2757  0.1198
32263W        W38863   5.219   0.206   6.481  0.1231  0.2678  0.2231
32264W        W38864  10.094   3.948  16.928 -0.0577 -0.3367  0.0973
32265W        W38865  23.288   3.401   7.282 -0.0183  0.0867 -0.0491
32266W        W38866  20.292   1.445  17.127 -0.1791  0.0153 -0.0531
32267W        W38867   4.001   6.402   6.244  0.3015 -0.0797 -0.2229
32268W        W38868   1.389   0.745  20.173 -0.2381  0.1130 -0.2433
32269W        W38869   5.189   2.101   5.625  0.1505 -0.3076 -0.0846
32270W        W38870   5.111   7.073  17.105  0.0932  0.0643  0.0109
32271W        W38871  17.769   0.579  24.308  0.1099  0.0414  0.2198
32272W        W38872  15.319   7.295   4.983  0.1435  0.0683 -0.1103
32273W        W38873  11.478   2.172  23.086 -0.1415  0.0783  0.0919
32274W        W38874   3.946   4.336   9.356  0.4326 -0.0596  0.0957
32275W        W38875   4.945   5.317  27.686 -0.0489  0.0608  0.1439
32276W        W38876  11.387   7.435   9.040 -0.0181  0.2810 -0.2193
32277W        W38877   5.363   7.116   4.679 -0.2489 -0.0924  0.0457
32278W        W38878  18.634   2.799   7.395  0.0610 -0.2180  0.2164
32279W        W38879   7.110   7.775  18.424 -0.0298  0.2001  0.2919
32280W        W38880   1.433   3.434  26.017 -0.2050 -0.0032 -0.2594
32281W        W38881   6.272   1.328   2.998 -0.1045 -0.2903 -0.0141
32282W        W38882  21.812   2.827  22.535  0.1167 -0.1757 -0.0379
32283W        W38883   4.531   1.245  27.375 -0.3029  0.1153 -0.0142
32284W        W38884  15.051   0.055   6.231 -0.0920 -0.0982 -0.1714
32285W        W38885  24.190   4.468  11.960 -0.3805  0.4004  0.0967
32286W        W38886  19.839   1.030  32.508  0.2682  0.1259  0.1188
32287W        W38887   6.074   0.929  19.210  0.1218 -0.0926  0.2782
32288W        W38888  25.147   0.250   5.862  0.1399 -0.0774 -0.1611
32289W        W38889   3.638   1.992  11.047  0.0620 -0.0178 -0.2190
32290W        W38890   8.122   3.515  32.057  0.1555  0.0111  0.0346
32291W        W38891  24.036   5.579  21.530  0.1048  0.1555 -0.0822
32292W        W38892  15.839   5.063   6.131  0.3060 -0.3556  0.0826
32293W        W38893   9.186   7.789  18.135 -0.2134  0.0245  0.0487
32294W        W38894  10.777   4.218  21.413 -0.1860  0.3913 -0.1888
32295W        W38895  24.182   3.408  31.706  0.2126  0.0831 -0.1973
32296W        W38896  21.154   3.502   9.024  0.2737  0.1324 -0.1578
32297W        W38897   7.959   6.521   2.844  0.0739  0.0627  0.0001
32298W        W38898   7.268   6.763  29.625 -0.0656  0.2214 -0.1677
32299W        W38899  10.802   2.429   0.610  0.2021 -0.1004 -0.0762
32300W        W38900  24.851   5.071  31.034 -0.2747 -0.0760 -0.2235
32301W        W38901   6.485   5.106  28.996  0.0047  0.2194  0.2113
32302W        W38902  15.914   2.223  28.442 -0.0396  0.0456 -0.1424
32303W        W38903   1.745   0.334   5.052  0.0785 -0.1033 -0.0152
32304W        W38904  18.642   6.223  23.855 -0.1180  0.2114 -0.0910
32305W        W38905  22.876   0.488   9.124 -0.1406 -0.0808  0.2899
32306W        W38906   0.193   5.663  28.959 -0.0306  0.1946 -0.2129
32307W        W38907  20.391   6.966  31.863 -0.0095  0.0187  0.2178
32308W        W38908  23.276   6.104   0.882 -0.0694 -0.1868 -0.2233
32309W        W38909   6.771   3.575   2.530  0.1107 -0.0838 -0.0424
32310W        W38910  10.127   0.444   2.773 -0.0381 -0.1907 -0.0282
32311W        W38911  12.620   3.017  30.769 -0.2366  0.0312 -0.0169
32312W        W38912  11.747   0.260  20.819  0.0543  0.0289  0.1036
32313W        W38913   0.851   7.175   8.953 -0.0784 -0.0454 -0.0488
32314W        W38914  18.698   2.650   6.061  0.3662 -0.0315  0.1526
32315W        W38915  17.373   4.918   6.092  0.2669 -0.1384  0.2801
32316W        W38916   5.973   1.685  14.564  0.1710 -0.1731 -0.3209
32317W        W38917  23.623   3.593   4.049  0.0007 -0.2839  0.3679
32318W        W38918  24.358   3.580  30.231 -0.2215 -0.2012 -0.2373
32319W        W38919   4.543   4.139  26.652  0.2583  0.1134  0.1757
32320W        W38920  15.736   1.212  25.209 -0.1656  0.2310 -0.3963
32321W        W38921  19.533   6.099  24.490  0.2112 -0.1546  0.0171
32322W        W38922  16.773   5.881  10.956 -0.1680 -0.2009  0.1814
32323W        W38923  11.046   1.367  24.984  0.0983 -0.2130 -0.0571
32324W        W38924  19.487   6.047   3.756 -0.0551  0.0571  0.0948
32325W        W38925  20.291   0.574  29.566  0.2220 -0.0535 -0.0235
32326W        W38926   6.722   1.999   0.924 -0.1629 -0.0558  0.2524
32327W        W38927  17.244   0.001   9.925 -0.0883 -0.0874  0.0486
32328W        W38928  14.616   1.940  14.860 -0.0402  0.1463 -0.0717
32329W        W38929  18.046   4.721   7.312  0.0775  0.0795  0.0786
32330W        W38930   4.564   2.826   8.149  0.1491  0.2292 -0.1433
32331W        W38931   5.794   1.834  20.615  0.1061  0.0776  0.1236
32332W        W38932  16.441   7.197  30.562 -0.2678 -0.0718 -0.0958
32333W        W38933  16.909   3.914   4.348  0.0079  0.1239  0.2278
32334W        W38934  24.893   6.192  28.903 -0.0103 -0.0118 -0.0984
32335W        W38935   6.161   6.167   5.537  0.0412 -0.1329  0.0793
32336W        W38936   5.768   3.300   3.259  0.1316 -0.1739 -0.0063
32337W        W38937  18.625   4.557  27.865 -0.2068  0.0286 -0.0821
32338W        W38938   8.422   2.134  22.016  0.0573  0.3956 -0.1448
32339W        W38939  19.656   0.577  32.372 -0.1536  0.0112 -0.0911
32340W        W38940  16.410   1.049  22.410 -0.0245 -0.1224  0.3110
32341W        W38941   7.539   7.594  31.467 -0.1615 -0.1638 -0.0401
32342W        W38942  15.886   5.261  27.859 -0.2865 -0.2146  0.3575
32343W        W38943  25.002   1.430  11.960  0.1137  0.4227  0.0682
32344W        W38944  15.441   6.439  24.675 -0.0277 -0.0352  0.4171
32345W        W38945  22.846   3.225  27.419  0.0544  0.0870  0.2486
32346W        W38946  15.876   3.882  31.540 -0.2260  0.0730 -0.1394
32347W        W38947  20.183   1.387  17.800 -0.2149  0.2750  0.0250
32348W        W38948   5.902   4.060   8.370  0.3867  0.3077  0.1678
32349W        W38949  21.358   2.456  15.464 -0.0487 -0.0844  0.2158
32350W        W38950  11.479   1.092  20.605 -0.4810  0.4736  0.1878
32351W        W38951  23.121   6.204   2.267 -0.0058  0.1740 -0.2918
32352W        W38952  20.653   0.258  16.875  0.0375 -0.0490  0.0817
32353W        W38953  12.221   1.569  32.519 -0.2555 -0.0290  0.1442
32354W        W38954  12.057   1.441  26.575  0.2075  0.2690 -0.1365
32355W        W38955   6.276   5.064   3.802  0.2670 -0.4578 -0.1819
32356W        W38956   3.184   6.148  31.696  0.1416  0.2345 -0.0105
32357W        W38957  25.073   1.175  25.177  0.0312 -0.1216  0.1279
32358W        W38958   0.658   1.315  24.503 -0.0120 -0.1266  0.0795
32359W        W38959  11.668   0.621  28.256 -0.0770  0.2618 -0.1096
32360W        W38960   1.199   1.298  29.405  0.0834 -0.0180 -0.0722
32361W        W38961   5.548   4.336   1.331 -0.0785  0.3072 -0.0265
32362W        W38962  12.467   4.623  20.651  0.3048 -0.0003  0.2397
32363W        W38963  21.706   0.261  11.441 -0.0606 -0.1190  0.1859
32364W        W38964  13.732   4.842  30.535 -0.1876  0.0047 -0.1813
32365W        W38965   9.687   6.547   2.035  0.0467  0.0021  0.0661
32366W        W38966  12.095   7.837  23.951  0.2683  0.1291  0.1719
32367W        W38967   1.952   2.986  25.306 -0.2213  0.2890 -0.1426
32368W        W38968  15.810   6.939  23.360  0.1772  0.0426  0.4820
32369W        W38969  20.532   5.923  17.003  0.0301 -0.1230  0.2743
32370W        W38970   9.976   0.743   2.387  0.1879  0.1624  0.1058
32371W        W38971   5.020   4.855   8.372  0.0200 -0.2485 -0.1296
32372W        W38972  24.901   7.111  13.858  0.3103  0.1667 -0.1056
32373W        W38973  24.906   4.431  21.305 -0.0398 -0.0715 -0.2134
32374W        W38974  18.259   1.921  10.476 -0.0581  0.0047 -0.2169
32375W        W38975  15.554   3.705   3.876  0.0461 -0.1395  0.1107
32376W        W38976  14.768   0.892  10.564 -0.2483 -0.0346  0.1180
32377W        W38977   7.061   6.248  21.961 -0.1477 -0.3067  0.0594
32378W        W38978  21.158   0.459  31.162 -0.1152 -0.1942  0.2519
32379W        W38979  23.552   3.443   6.225 -0.3644 -0.1832  0.1923
32380W        W38980   0.092   5.853  24.911  0.0226  0.1984 -0.0969
32381W        W38981   5.891   7.635   5.324  0.2011  0.0575  0.0788
32382W        W38982  20.895   0.751  15.766  0.0169  0.2178  0.2294
32383W        W38983  10.513   6.334   9.337  0.1986  0.2630  0.2742
32384W        W38984   8.906   2.711   5.758 -0.0245 -0.1261  0.3157
32385W        W38985  17.294   2.367  10.277 -0.1160  0.1546  0.1009
32386W        W38986   2.542   2.861   2.150 -0.1472  0.0966  0.0922
32387W        W38987  22.401   1.068  29.187 -0.3852 -0.1435 -0.2433
32388W        W38988   7.887   4.691  17.241 -0.2575 -0.2363  0.0093
32389W        W38989   8.843   4.593  19.150  0.2808  0.1541  0.2664
32390W        W38990  20.738   0.168   3.995  0.1191 -0.1241 -0.0954
32391W        W38991   1.236   4.588  10.509 -0.2987  0.1594 -0.0234
32392W        W38992  16.599   5.659  28.124  0.0786  0.0125  0.1571
32393W        W38993   6.577   1.261  23.922  0.3691  0.0015  0.0214
32394W        W38994   7.511   2.124  31.282  0.0339 -0.0476  0.2507
32395W        W38995  12.961   3.367  25.847 -0.0359 -0.0210 -0.0613
32396W        W38996   3.457   1.919  27.587 -0.1413  0.2438  0.0004
32397W        W38997  21.476   7.446   0.744  0.0949 -0.1148 -0.0684
32398W        W38998  22.210   7.284   1.558 -0.0620  0.0527  0.2673
32399W        W38999  13.112   1.450  27.982 -0.1968  0.0948  0.0098
32400W        W39000  17.883   4.662   0.729  0.0564  0.3729 -0.2994
32401W        W39001   2.953   5.770  17.690  0.0340 -0.2585  0.0748
32402W        W39002  20.502   6.195  31.240  0.2786  0.0351 -0.4146
32403W        W39003   5.935   0.936   9.800  0.1205 -0.0296 -0.2260
32404W        W39004   0.420   6.037  31.274 -0.1048 -0.3486  0.3168
32405W        W39005  21.653   4.726  25.862  0.0926  0.0489 -0.1662
32406W        W39006   9.821   3.692  23.655 -0.2083 -0.0591  0.4675
32407W        W39007  23.578   5.706   0.070  0.0809  0.1668  0.1966
32408W        W39008  20.806   1.503   8.923  0.0694 -0.3779 -0.0589
32409W        W39009   2.414   4.130  10.379 -0.3044  0.1571  0.0664
32410W        W39010   0.824   5.234   9.106 -0.0464  0.0696  0.0657
32411W        W39011   7.906   1.326  20.889  0.1268  0.3858  0.1445
32412W        W39012  14.940   0.603   7.256  0.2801 -0.1147  0.1633
32413W        W39013  12.125   6.908  25.805 -0.0617  0.0033  0.0554
32414W        W39014  10.256   3.791  22.483  0.0211 -0.1147  0.1835
32415W        W39015  23.165   5.171   7.271 -0.0894  0.0411 -0.2837
32416W        W39016   6.247   7.442  27.858 -0.2129  0.1928  0.1525
32417W        W39017  17.692   2.151   0.787  0.1728 -0.1122  0.2080
32418W        W39018  19.497   6.928   4.929  0.1522 -0.3669 -0.0384
32419W        W39019  16.714   4.254   6.795 -0.2322  0.0642 -0.1908
32420W        W39020   6.809   0.852  25.956 -0.1882 -0.1808 -0.0841
32421W        W39021  22.723   5.178   7.663 -0.1534  0.0657 -0.0475
32422W        W39022   7.557   0.291  30.241 -0.1983  0.1578 -0.3098
32423W        W39023  18.238   3.984  15.656 -0.1057 -0.1605 -0.2017
32424W        W39024  15.753   4.606  30.010 -0.0821 -0.1802  0.2119
32425W        W39025  10.175   7.160   0.457  0.1646 -0.1797  0.0356
32426W        W39026  11.863   0.381   2.814  0.0366  0.0057 -0.2378
32427W        W39027   3.371   2.699  19.073  0.1627  0.2126  0.0229
32428W        W39028  18.741   7.748  12.847 -0.1691  0.0137  0.4510
32429W        W39029   3.392   7.104   9.885  0.1872 -0.2511  0.1223
32430W        W39030  21.575   3.843  25.333  0.0153 -0.1060 -0.0255
32431W        W39031  15.674   2.510  24.427 -0.1239  0.2140  0.1626
32432W        W39032  10.038   5.171  25.783  0.1231  0.1488  0.1612
32433W        W39033  17.803   1.022   2.993  0.3260 -0.0502  0.1531
32434W        W39034  11.701   1.966  25.306 -0.2763  0.1817 -0.0555
32435W        W39035  20.894   5.164  10.836 -0.3046 -0.1027 -0.0250
32436W        W39036  24.683   3.256  31.492 -0.0723  0.2971  0.3005
32437W        W39037  15.277   5.891  11.375  0.3776 -0.2465  0.3479
32438W        W39038  22.003   3.948  25.659 -0.1857  0.2274  0.2008
32439W        W39039  18.682   0.804  24.022 -0.2087 -0.0140  0.2924
32440W        W39040   5.985   0.956   0.480  0.2287 -0.0094  0.1281
32441W        W39041   1.870   1.187   5.143 -0.1871  0.0082  0.4249
32442W        W39042   4.043   7.193   2.823  0.0422  0.2784 -0.0391
32443W        W39043   7.537   4.420  26.554  0.0847  0.2155  0.1231
32444W        W39044  13.063   4.277  32.553 -0.2237  0.0065 -0.0465
32445W        W39045  17.837   6.288   0.561 -0.0294  0.1777 -0.0359
32446W        W39046   8.318   7.641  30.651  0.0378 -0.1087 -0.2921
32447W        W39047  19.221   5.212   5.041 -0.2102  0.0924 -0.0229
32448W        W39048  11.224   6.951   6.881 -0.1082  0.2232 -0.0937
32449W        W39049   9.661   1.933  27.560  0.0170  0.0328  0.1389
32450W        W39050   8.476   0.192  30.443  0.0154 -0.0994 -0.0982
32451W        W39051  20.261   4.041  25.662 -0.0272 -0.0549  0.2413
32452W        W39052  18.182   0.597  26.883 -0.1497  0.1788  0.0537
32453W        W39053  10.911   2.506  26.259  0.0071  0.1198  0.1358
32454W        W39054   6.454   4.273  20.713 -0.0168  0.2204  0.1216
32455W        W39055   3.572   0.958   4.812 -0.1256  0.3918  0.2131
32456W        W39056   2.894   7.548   2.080  0.4211  0.1140 -0.4084
32457W        W39057  23.578   7.441  13.568  0.0486  0.1583 -0.1079
32458W        W39058   9.088   1.056  14.536  0.0990  0.4103  0.1788
32459W        W39059  21.559   1.039   9.397  0.1757 -0.1843  0.0976
32460W        W39060  11.658   5.202   9.239  0.1669 -0.0137  0.1081
32461W        W39061   9.435   1.846  25.782  0.3220 -0.0715 -0.0192
32462W        W39062  16.449   7.764  23.189  0.2772  0.0751 -0.0347
32463W        W39063  24.813   7.540  23.011  0.2222  0.2195 -0.2051
32464W        W39064  15.974   0.751  25.078  0.3491 -0.1811  0.2176
32465W        W39065   3.074   4.768   1.567  0.1977  0.1228 -0.0142
32466W        W39066   7.566   1.161   4.947  0.2867  0.3702 -0.2788
32467W        W39067   7.240   6.302  15.948 -0.0619  0.0958  0.3110
32468W        W39068   8.214   1.650  16.241 -0.3061  0.2878 -0.0699
32469W        W39069   2.013   7.808   1.887 -0.6049 -0.0093 -0.0142
32470W        W39070   0.913   3.930  10.981  0.0169  0.1887  0.1302
32471W        W39071   3.632   4.634  29.967 -0.1189 -0.0816  0.0938
32472W        W39072  21.368   2.288   8.345  0.0880 -0.1206  0.0396
32473W        W39073   7.420   1.565   1.658  0.0459  0.4908 -0.0277
32474W        W39074  18.787   6.622  11.761 -0.1156 -0.1707 -0.4209
32475W        W39075   0.868   3.822  30.167  0.1342 -0.0897 -0.2090
32476W        W39076  18.898   1.372  27.944 -0.0504 -0.0366 -0.0152
32477W        W39077  10.082   3.901   4.373  0.0676  0.0221  0.2306
32478W        W39078  19.007   5.234  26.279  0.0232 -0.1813 -0.0182
32479W        W39079   2.489   7.212  31.648 -0.0325  0.1190 -0.0897
32480W        W39080  18.569   3.260  28.031  0.0006  0.2211 -0.0910
32481W        W39081   8.099   2.536   7.594  0.4115  0.1245  0.0823
32482W        W39082   5.800   0.421  22.697 -0.0048 -0.1955  0.0849
32483W        W39083  24.508   1.047  32.566  0.1224  0.0155  0.0669
32484W        W39084  18.629   4.118  14.344  0.4596 -0.4094  0.1155
32485W        W39085   0.471   0.526  11.489  0.1940  0.2649  0.0328
32486W        W39086   2.740   3.434  17.348  0.0587 -0.0795  0.0936
32487W        W39087  10.597   3.198  23.312 -0.0559  0.0446 -0.0427
32488W        W39088  19.527   4.106   1.996  0.0931 -0.0319  0.1069
32489W        W39089  18.243   0.547  13.382  0.0543  0.0452 -0.1902
32490W        W39090  21.757   4.837   3.630 -0.3031 -0.1931 -0.1112
32491W        W39091   0.068   6.939   0.306  0.2557 -0.3797 -0.1242
32492W        W39092  13.116   2.209  13.542  0.2277 -0.2624 -0.0340
32493W        W39093  16.943   0.364   0.373 -0.4448  0.3310 -0.0175
32494W        W39094  10.624   0.549   1.166  0.1624 -0.2216  0.2885
32495W        W39095   4.061   6.941  25.010 -0.0999  0.1971  0.1555
32496W        W39096   4.871   4.750  10.829  0.2759 -0.1999  0.2216
32497W        W39097  17.400   6.915   8.851 -0.0687  0.0806 -0.1156
32498W        W39098  20.713   2.239  26.711 -0.0598  0.0002 -0.0686
32499W        W39099  14.644   6.989   3.707 -0.2472 -0.0747 -0.2997
32500W        W39100  18.331   5.059   3.671 -0.0356 -0.3160 -0.0370
32501W        W39101  15.496   1.620   2.157 -0.0958  0.2716 -0.2149
32502W        W39102   9.421   4.802  16.093  0.0470 -0.2319 -0.1821
32503W        W39103  14.596   6.080  28.641  0.0247 -0.0472 -0.0117
32504W        W39104  23.730   6.332  23.909 -0.0949  0.3252 -0.2844
32505W        W39105  17.152   4.376   7.793  0.0848  0.0189  0.0209
32506W        W39106  15.824   2.715   3.246  0.3369  0.0587  0.1500
32507W        W39107  15.653   0.614   6.196  0.1380 -0.2707 -0.1936
32508W        W39108  24.030   2.508  10.487  0.1920  0.1227  0.0019
32509W        W39109   5.261   3.218  27.058  0.1616  0.0663  0.0424
32510W        W39110   0.917   5.800  31.847 -0.2566 -0.0566 -0.2655
32511W        W39111  14.386   2.596  24.056 -0.1078  0.2346 -0.1487
32512W        W39112   9.519   3.551  17.595 -0.0679 -0.4626  0.0758
32513W        W39113  10.064   4.701  20.003  0.2337 -0.0851 -0.0321
32514W        W39114   9.313   6.441  22.162 -0.4021  0.1790  0.2770
32515W        W39115  21.349   2.499   7.359  0.0443  0.0514  0.0401
32516W        W39116  21.484   2.737  31.970  0.1021 -0.2729  0.2374
32517W        W39117   7.196   0.951  23.175  0.1557  0.2735  0.0948
32518W        W39118   0.207   3.360  21.556  0.1820  0.0689 -0.2880
32519W        W39119  16.408   7.268  28.187  0.0545 -0.0560  0.4075
32520W        W39120   1.478   4.698  26.595 -0.0145  0.2548  0.0012
32521W        W39121  25.062   3.135   7.641  0.1024  0.1961  0.0804
32522W        W39122   8.104   5.273  19.346  0.0554 -0.1307 -0.1809
32523W        W39123  23.014   4.821   2.636 -0.0360  0.1252 -0.1817
32524W        W39124  19.865   7.549  15.321  0.2851 -0.3514  0.0397
32525W        W39125  24.460   2.614  11.095  0.0458 -0.0580  0.2558
32526W        W39126   1.614   1.550   7.282 -0.2141 -0.2839 -0.0108
32527W        W39127  18.013   2.094   5.710  0.2016 -0.0381 -0.0309
32528W        W39128   6.870   4.104   3.937 -0.2470 -0.1416  0.1669
32529W        W39129  12.311   4.320   0.578 -0.0648 -0.0691 -0.0482
32530W        W39130  12.497   1.707  26.854  0.0138 -0.1493  0.0162
32531W        W39131  13.144   4.744  24.926  0.1762  0.0130  0.1384
32532W        W39132   9.069   4.964  24.987  0.3152  0.1893 -0.0753
32533W        W39133  20.497   0.481  31.465 -0.0510 -0.1605  0.0043
32534W        W39134  18.060   3.922  24.464  0.1101  0.1278 -0.1243
32535W        W39135  10.322   7.580  22.487  0.2460 -0.0278 -0.1915
32536W        W39136  17.053   3.659  16.188 -0.1835 -0.1315 -0.1166
32537W        W39137   0.767   1.350  27.888 -0.0104 -0.1316 -0.0176
32538W        W39138  18.518   1.683  12.353  0.3248 -0.0506  0.3374
32539W        W39139  14.125   7.807   8.159 -0.0105  0.0184 -0.2391
32540W        W39140  14.437   1.274  10.461 -0.3809 -0.2256  0.0417
32541W        W39141   3.949   4.010  20.772  0.0309  0.1351  0.1296
32542W        W39142   3.150   5.212   5.024 -0.0340  0.1747  0.2338
32543W        W39143  21.149   1.134   6.302 -0.1975 -0.2505  0.1998
32544W        W39144  16.728   0.421  25.499 -0.2075 -0.0761  0.0101
32545W        W39145  21.883   3.779  16.080 -0.0349 -0.0966  0.0694
32546W        W39146  23.331   1.745  27.008  0.0399 -0.1772  0.0230
32547W        W39147  21.794   7.841   0.103  0.0128 -0.1120 -0.1301
32548W        W39148  19.312   0.255  29.481 -0.0753  0.0673  0.2810
32549W        W39149  17.996   0.202   1.905 -0.0986 -0.1030  0.1593
32550W        W39150   8.639   5.416  26.050  0.0945  0.0020  0.0585
32551W        W39151   0.959   5.636  19.818 -0.1060  0.2107  0.0869
32552W        W39152   3.772   0.799  16.344  0.0080 -0.1488 -0.1032
32553W        W39153   7.989   5.346  29.958 -0.2005 -0.0059 -0.4882
32554W        W39154  17.150   7.204  25.728  0.0428  0.1529 -0.2186
32555W        W39155  10.401   3.149  26.145  0.1841 -0.0698 -0.1195
32556W        W39156  18.351   6.205   2.552  0.1677 -0.0313 -0.0497
32557W        W39157   6.307   2.533  28.403  0.0823  0.1508 -0.1737
32558W        W39158   5.208   7.372  31.082 -0.1987  0.1896 -0.3495
32559W        W39159  20.844   2.016   7.179  0.1411 -0.0622 -0.0968
32560W        W39160  20.249   4.204  31.623 -0.1374 -0.1109 -0.1538
32561W        W39161  11.748   0.727  27.790 -0.3817 -0.0388  0.1548
32562W        W39162  22.136   1.890   7.343  0.0117  0.0943  0.1867
32563W        W39163   2.173   6.341   0.042  0.0212  0.2983 -0.1962
32564W        W39164   0.802   4.772  26.224 -0.1449  0.0432 -0.1019
32565W        W39165  15.731   3.083   4.990 -0.0790 -0.2010 -0.0357
32566W        W39166  22.000   3.891   5.407 -0.2008  0.1761 -0.1552
32567W        W39167  20.561   5.714   6.117 -0.0456  0.1790  0.0903
32568W        W39168  22.771   4.243  27.356  0.0294  0.1056  0.2013
32569W        W39169   4.044   0.578   9.755 -0.0224  0.1410  0.0347
32570W        W39170  20.143   5.315   4.778 -0.0735  0.0221 -0.0779
32571W        W39171  13.916   0.208  24.411  0.0143 -0.0091 -0.0729
32572W        W39172   9.519   2.821  10.117 -0.0242  0.1023  0.2297
32573W        W39173  22.733   1.706   8.073 -0.3192  0.0792 -0.0059
32574W        W39174   1.648   1.398  19.647  0.1245  0.1350 -0.1521
32575W        W39175   8.776   5.389   2.840  0.0415 -0.0074  0.0268
32576W        W39176  10.011   3.757  17.778  0.2805  0.1872  0.1386
32577W        W39177  20.686   6.457   2.659  0.0057  0.0238  0.2299
32578W        W39178   1.168   2.797  32.517 -0.2668  0.0404 -0.1080
32579W        W39179   5.337   5.394  30.440  0.1004  0.0914  0.2829
32580W        W39180   9.885   0.937  25.526  0.0387 -0.1238 -0.1821
32581W        W39181  14.721   0.888  23.723  0.1252  0.1273 -0.0160
32582W        W39182   9.766   4.526   8.800 -0.0018 -0.0589  0.1660
32583W        W39183  18.707   6.961   4.882  0.1179  0.3803  0.2296
32584W        W39184  11.692   6.176  20.139  0.3954 -0.0554  0.2263
32585W        W39185  22.206   1.520  24.939  0.2062  0.2154 -0.2507
32586W        W39186  20.972   5.347  13.098  0.0071  0.0447  0.3488
32587W        W39187   0.269   4.373  32.183 -0.1520  0.0980  0.0737
32588W        W39188   5.007   0.691   5.561 -0.1131  0.1248 -0.0619
32589W        W39189   1.341   7.213   7.031  0.0201 -0.2641 -0.1329
32590W        W39190  11.719   5.843   4.164 -0.1043  0.3249 -0.3085
32591W        W39191   8.775   7.419  22.008  0.1525  0.1312  0.1039
32592W        W39192   3.707   7.431   7.028  0.1495  0.1484  0.1745
32593W        W39193   8.006   1.559  28.763  0.3931  0.2577  0.1733
32594W        W39194   2.319   5.066   8.175  0.2534 -0.1031  0.1450
32595W        W39195  22.520   7.143   8.246  0.0244  0.0060  0.0969
32596W        W39196   4.199   1.819  16.195 -0.3634 -0.0262 -0.0440
32597W        W39197  12.073   2.310  25.825 -0.2582 -0.1995  0.0027
32598W        W39198  23.252   7.051  13.878  0.1948 -0.1298 -0.2196
32599W        W39199   5.198   7.394  16.123 -0.0028 -0.0717 -0.1138
32600W        W39200   8.348   7.326  15.826 -0.0603  0.0621  0.0629
32601W        W39201  16.873   7.458  25.404 -0.2904 -0.3240  0.0445
32602W        W39202  20.474   5.861  12.013  0.4006  0.1978 -0.1044
32603W        W39203   0.277   2.575  20.289  0.2025 -0.2749  0.0580
32604W        W39204  22.041   1.658  27.792  0.3269 -0.0595  0.0561
32605W        W39205   3.604   5.969   2.813  0.2299  0.0188  0.0025
32606W        W39206  10.727   3.962  11.144 -0.2963  0.1977 -0.2048
32607W        W39207  10.947   0.578   9.337  0.1248  0.1199 -0.2181
32608W        W39208   3.871   2.748  32.385 -0.0229  0.3273 -0.0166
32609W        W39209   5.524   5.500  23.951 -0.0169 -0.1384  0.1788
32610W        W39210  23.538   5.326   4.164  0.0820  0.0654  0.0249
32611W        W39211   9.433   3.731  16.977 -0.1040  0.0242  0.3706
32612W        W39212  18.194   1.195   2.069 -0.2502  0.2326  0.2088
32613W        W39213   7.614   5.437   8.658  0.0732  0.1079  0.2031
32614W        W39214  18.286   5.664   5.408 -0.1812 -0.1931  0.0202
32615W        W39215  15.064   7.199  15.462 -0.1974  0.3135 -0.3346
32616W        W39216  17.178   6.595   3.331 -0.1638  0.0221  0.1429
32617W        W39217  24.836   2.202   6.277 -0.0810 -0.0804  0.0207
32618W        W39218   2.284   7.673  11.611 -0.1114  0.0936 -0.0334
32619W        W39219  16.239   6.853  24.859  0.1249  0.1248 -0.0010
32620W        W39220  11.971   6.493   1.157  0.1752 -0.1653 -0.2289
32621W        W39221  13.005   4.432  11.141 -0.0127  0.0929 -0.0807
32622W        W39222  19.049   7.650  23.803 -0.3379  0.1671  0.0813
32623W        W39223   4.160   6.311   0.061 -0.1640 -0.1352  0.1712
32624W        W39224  20.425   1.250   6.873 -0.2057  0.1756  0.1269
32625W        W39225   2.028   0.723  17.027 -0.0096 -0.1812  0.0836
32626W        W39226  18.713   7.850  28.275 -0.1153 -0.0408  0.0701
32627W        W39227   5.356   6.388  20.942  0.3989  0.0518  0.1087
32628W        W39228  22.926   7.783   3.851 -0.0341 -0.2323  0.1534
32629W        W39229   8.232   5.974   7.006  0.2445 -0.0049  0.1545
32630W        W39230   2.360   6.452  21.143 -0.2870  0.1353  0.1326
32631W        W39231   2.189   5.702   8.847 -0.1790  0.5213 -0.1896
32632W        W39232   5.569   0.870  16.512  0.1684  0.0714 -0.1286
32633W        W39233   7.181   5.567   4.711  0.2702  0.3058 -0.0756
32634W        W39234  10.126   0.368  10.015  0.1214 -0.1282  0.1988
32635W        W39235  21.029   5.285  29.169  0.0459  0.0300 -0.3077
32636W        W39236  18.709   3.689  14.634  0.0352 -0.0746  0.1941
32637W        W39237  15.598   0.648  24.381  0.1544  0.0403  0.0717
32638W        W39238   4.539   2.052   6.358 -0.1797  0.0264 -0.1820
32639W        W39239   5.027   4.949  31.197  0.1045  0.0390  0.0754
32640W        W39240  19.276   6.936   3.742 -0.0091  0.0795 -0.2892
32641W        W39241  23.824   4.245   1.242  0.1047 -0.2797  0.1083
32642W        W39242  10.533   7.322  25.354 -0.0296 -0.0587 -0.1547
32643W        W39243  19.841   0.775   7.566 -0.1106  0.0858  0.1602
32644W        W39244  23.472   5.208  27.821  0.1263 -0.0711  0.1408
32645W        W39245   0.375   6.543  18.462  0.0553  0.0390  0.0885
32646W        W39246   1.993   7.683  18.668 -0.0280  0.4657  0.3140
32647W        W39247  20.588   4.022  25.256  0.0327 -0.0175 -0.1518
32648W        W39248  22.693   0.678  31.280  0.3153 -0.2755  0.0943
32649W        W39249  18.478   3.469   3.098 -0.0149  0.2161 -0.0004
32650W        W39250  23.331   7.418  14.551  0.1871 -0.2470  0.2248
32651W        W39251   4.053   3.297  10.309 -0.0874 -0.0966  0.1881
32652W        W39252  24.099   6.033   4.196  0.1600  0.3966  0.1371
32653W        W39253  17.760   4.957   3.543 -0.2446 -0.1389  0.1171
32654W        W39254  20.626   5.422   9.158 -0.2968 -0.2510 -0.0134
32655W        W39255  11.400   0.222  11.105 -0.0477 -0.0172 -0.0967
32656W        W39256   4.719   2.826   2.980 -0.1050 -0.3139  0.1640
32657W        W39257  11.867   4.788   4.103 -0.0165  0.3216  0.0083
32658W        W39258  17.928   6.850  17.299  0.0186  0.0523 -0.0321
32659W        W39259   2.982   0.543   2.411  0.0737  0.2224  0.0169
32660W        W39260   5.806   1.093  24.973  0.0669  0.1411  0.0594
32661W        W39261  11.523   1.418  22.560 -0.0886  0.0621 -0.1797
32662W        W39262   9.340   1.595  19.517  0.2104  0.0707  0.0320
32663W        W39263   9.014   0.053   5.538 -0.0200  0.0124  0.1655
32664W        W39264  10.325   2.861  21.929  0.1458  0.0331 -0.3440
32665W        W39265   5.983   7.529   4.472  0.2142 -0.1052 -0.0711
32666W        W39266  11.605   0.076  10.475 -0.1145 -0.1566  0.1295
32667W        W39267   1.880   6.413  22.987 -0.0005  0.0698  0.0944
32668W        W39268  13.510   2.669  23.332  0.1317  0.1261 -0.0665
32669W        W39269  13.964   5.090   8.060 -0.1857  0.3470  0.1028
32670W        W39270   2.854   2.777   6.404 -0.0471 -0.1722 -0.0011
32671W        W39271  19.226   6.256  10.589 -0.0066  0.3233 -0.0575
32672W        W39272   2.125   1.351  20.500  0.1095 -0.1347  0.2271
32673W        W39273  20.403   2.149  22.500  0.2788 -0.0461 -0.1537
32674W        W39274  17.886   5.752   9.401  0.2293 -0.1688  0.1017
32675W        W39275  21.406   7.389   7.806  0.2324 -0.1555 -0.1922
32676W        W39276   7.137   0.186  18.827  0.0842  0.2858 -0.0522
32677W        W39277   5.771   2.866  20.766 -0.1908  0.0837  0.3385
32678W        W39278   4.252   3.756  20.077  0.0368 -0.0488  0.0563
32679W        W39279   3.587   3.417   0.934  0.0198 -0.2456  0.1321
32680W        W39280  13.416   0.791   2.746  0.0504 -0.1964 -0.2914
32681W        W39281  12.399   5.529  21.995  0.1444  0.2262 -0.4168
32682W        W39282   5.912   2.208   6.296  0.1707  0.3313  0.4876
32683W        W39283   3.538   7.161  10.385 -0.0984  0.0765  0.1193
32684W        W39284   9.657   3.222  23.595  0.0732 -0.0518 -0.2414
32685W        W39285  11.926   7.477  27.560  0.0293  0.2505  0.0878
32686W        W39286   7.455   7.550  27.822 -0.1092 -0.0586  0.3514
32687W        W39287  10.105   5.403  20.095 -0.3222 -0.0354  0.0934
32688W        W39288  16.998   5.994   5.475  0.0991 -0.1821  0.0754
32689W        W39289  11.662   3.498   7.293 -0.2337  0.2544  0.1587
32690W        W39290  12.372   4.894   8.627 -0.2309  0.1237  0.0179
32691W        W39291  21.439   4.764   7.499 -0.3179  0.0527  0.0722
32692W        W39292  11.781   5.462   4.638  0.1796 -0.0060  0.1319
32693W        W39293  10.130   2.463  23.090 -0.2000 -0.0929  0.1139
32694W        W39294  14.247   3.028  12.955 -0.1910 -0.3183 -0.0810
32695W        W39295   4.415   3.907  18.859 -0.0014  0.4141 -0.1066
32696W        W39296   2.313   4.649  22.950 -0.2221  0.2405  0.1672
32697W        W39297   3.913   2.180   4.209 -0.2009  0.0130  0.0790
32698W        W39298  15.286   6.265  14.912 -0.0619  0.0029 -0.1966
32699W        W39299   0.159   7.039   4.800 -0.0182 -0.0529  0.0520
32700W        W39300  21.703   5.435  25.210 -0.1516  0.1834 -0.0348
32701W        W39301  12.042   1.519  21.083  0.0997  0.0798 -0.1116
32702W        W39302  22.134   4.601   8.697 -0.1216 -0.0735  0.1302
32703W        W39303  20.187   3.753  25.165 -0.0662  0.3140 -0.1118
32704W        W39304   3.718   3.971  10.936  0.2049  0.2261 -0.2507
32705W        W39305   7.256   5.034  22.457  0.1971  0.0974 -0.0335
32706W        W39306  13.440   6.970   2.881 -0.1173 -0.1792  0.0871
32707W        W39307  24.547   0.407  13.128  0.1532 -0.0289 -0.1057
32708W        W39308   0.856   0.513  28.158 -0.0930  0.3405 -0.1998
32709W        W39309  19.719   4.126   3.863  0.2415 -0.0181  0.1820
32710W        W39310   7.720   1.139   7.797  0.3412 -0.0325  0.0001
32711W        W39311   2.973   3.514  29.590  0.0810 -0.1379 -0.0090
32712W        W39312  14.319   6.854  28.022  0.0358 -0.0698  0.0402
32713W        W39313  11.332   1.443  31.968  0.0639  0.4551  0.2061
32714W        W39314  15.867   1.867  12.091  0.0234  0.0618  0.0970
32715W        W39315   6.432   1.281  26.201 -0.0565 -0.0701  0.0750
32716W        W39316  24.797   2.247  32.132 -0.1708 -0.0377 -0.0085
32717W        W39317  16.378   0.870  29.470  0.2270  0.1165 -0.1031
32718W        W39318  11.129   4.660   0.029  0.0667  0.0821 -0.0864
32719W        W39319   1.225   3.382  11.426 -0.1166  0.2084 -0.1560
32720W        W39320  24.010   5.392   2.498  0.1020 -0.3141 -0.0456
32721W        W39321  22.665   5.999  31.322  0.1239 -0.1438 -0.0027
32722W        W39322  17.439   1.676   9.616  0.0689  0.0615 -0.3059
32723W        W39323  20.498   2.425  31.756 -0.1300 -0.0087 -0.0762
32724W        W39324  24.596   5.716  32.289 -0.0679  0.2312 -0.2720
32725W        W39325  21.004   5.809   9.313  0.0856  0.1366  0.0948
32726W        W39326  21.894   0.817   2.642  0.0252  0.2663 -0.1122
32727W        W39327   9.381   2.752   9.471  0.0088  0.2654  0.3748
32728W        W39328  23.284   5.103  21.663  0.1125  0.2332 -0.1875
32729W        W39329  21.849   7.278  25.404 -0.2544 -0.0508  0.0911
32730W        W39330   0.369   0.239  26.905 -0.0666 -0.0184  0.3223
32731W        W39331  18.040   7.268  16.991 -0.2773 -0.0067  0.0584
32732W        W39332   1.171   0.864  11.546  0.4447 -0.2504 -0.0060
32733W        W39333  11.226   7.420  24.494 -0.3314  0.0059  0.0558
32734W        W39334   5.718   5.274  24.407 -0.1513 -0.0362  0.0012
32735W        W39335  12.370   7.051   0.458 -0.2869 -0.1075 -0.0929
32736W        W39336   0.561   1.870  25.588 -0.1278  0.1138 -0.0342
32737W        W39337  17.666   0.819  26.768  0.0818  0.1856 -0.2174
32738W        W39338  20.001   3.415  26.142  0.0432  0.0129 -0.0871
32739W        W39339   5.283   0.960  26.781 -0.1457 -0.3172  0.0834
32740W        W39340   1.804   2.415  17.425  0.0894  0.0973  0.0381
32741W        W39341  11.628   2.409  18.903  0.2526  0.1845  0.0507
32742W        W39342  17.223   4.039  23.412 -0.1119 -0.1783  0.0415
32743W        W39343  13.040   4.971  25.586  0.0978 -0.0470  0.1542
32744W        W39344  12.171   2.236  28.232 -0.0647 -0.1797 -0.1036
32745W        W39345   3.146   4.850  11.225  0.0428  0.0467 -0.2685
32746W        W39346  23.246   0.838  22.383  0.3096  0.2163  0.0851
32747W        W39347   8.160   4.901  14.825  0.1362 -0.0179  0.0915
32748W        W39348   1.641   7.330  24.008 -0.3271 -0.1438  0.2775
32749W        W39349   5.597   7.160  19.128  0.0137  0.1731 -0.1268
32750W        W39350   4.150   5.448  22.616  0.0828 -0.0180 -0.1089
32751W        W39351  15.782   4.251   7.665 -0.2019 -0.1237  0.2603
32752W        W39352  14.051   5.393   2.191 -0.2165  0.2764  0.3793
32753W        W39353   8.449   6.381   4.781  0.0814  0.0759  0.0457
32754W        W39354   5.025   3.377  16.991 -0.1656  0.1263 -0.1223
32755W        W39355   1.452   1.675  19.016 -0.1484 -0.1701 -0.2216
32756W        W39356   7.155   1.267   9.808  0.0861  0.3267 -0.0016
32757W        W39357  14.548   2.580  22.984  0.1240 -0.1077 -0.1564
32758W        W39358   2.056   5.338  27.023  0.1780 -0.4843 -0.0673
32759W        W39359   9.206   3.078   3.890  0.0124 -0.0999 -0.0657
32760W        W39360  12.844   3.140   4.327 -0.0464  0.1355 -0.0841
32761W        W39361   2.571   1.826   2.038  0.1373 -0.1286  0.1521
32762W        W39362   6.978   5.016  21.498 -0.2240  0.1714 -0.0941
32763W        W39363   4.763   5.142   0.625  0.0784  0.1987 -0.0191
32764W        W39364  12.222   4.581   6.053  0.2052 -0.2097 -0.0743
32765W        W39365  18.773   7.080  23.658 -0.1357 -0.3820  0.0601
32766W        W39366  15.909   1.965  26.983  0.0988 -0.0408 -0.1196
32767W        W39367  24.204   7.679   7.232  0.0958 -0.0329 -0.1295
32768W        W39368   4.362   6.482   9.859 -0.2122 -0.0878 -0.1430
32769W        W39369   7.713   3.963   2.852  0.0378 -0.2469 -0.2405
32770W        W39370   9.912   0.569  26.974  0.1181  0.1519 -0.2102
32771W        W39371  17.912   3.892   4.976 -0.1498 -0.3422 -0.0592
32772W        W39372  22.949   2.341  22.819 -0.1353  0.0631 -0.1715
32773W        W39373   7.874   3.119   8.516 -0.2383 -0.0141  0.1876
32774W        W39374   6.955   1.586  19.655  0.0933  0.0066 -0.0207
32775W        W39375   4.591   5.412  10.455 -0.2363 -0.2109 -0.0251
32776W        W39376   3.040   7.101   4.702  0.0640  0.1782  0.0190
32777W        W39377  12.049   5.114  11.789 -0.2030 -0.3043 -0.0875
32778W        W39378  13.725   0.345   3.543  0.0391  0.1106  0.0800
32779W        W39379  23.889   0.454  15.147  0.0720  0.0323 -0.0098
32780W        W39380   0.328   7.043  27.765  0.1341 -0.0936  0.3875
32781W        W39381   6.192   3.200  20.662  0.1550  0.1753  0.0005
32782W        W39382   6.188   4.152  24.443  0.1863 -0.1673  0.1255
32783W        W39383   1.390   1.508  25.697  0.0456  0.1535 -0.0561
32784W        W39384   7.631   7.288  26.010 -0.0232  0.0405  0.1573
32785W        W39385   7.550   3.412  25.096 -0.0626 -0.1493  0.0135
32786W        W39386  13.992   3.602   6.461 -0.0860 -0.1471  0.0106
32787W        W39387   5.791   2.710   6.181 -0.4542  0.0743  0.1211
32788W        W39388  24.452   1.706  13.770 -0.6605  0.3388  0.0944
32789W        W39389   4.855   1.677  20.108 -0.1884  0.0881 -0.3295
32790W        W39390  25.089   5.261  31.435  0.1336 -0.0885  0.5197
32791W        W39391  13.089   5.553  27.750 -0.0482  0.0879 -0.1024
32792W        W39392   0.753   4.174  25.595  0.1018  0.3002  0.0367
32793W        W39393   7.371   7.313   7.672 -0.2913  0.2957  0.0586
32794W        W39394  20.419   3.214   9.911 -0.0786  0.0608 -0.0872
32795W        W39395   3.472   3.970  28.852  0.1497 -0.1361  0.0419
32796W        W39396  11.303   0.892  22.698  0.0924 -0.4370  0.0762
32797W        W39397  22.096   6.755  10.297  0.0377 -0.2267 -0.0606
32798W        W39398  18.151   3.039  14.098 -0.1273  0.1102  0.1267
32799W        W39399  16.589   7.243  15.573 -0.1523  0.0019 -0.0221
32800W        W39400  10.702   2.289  21.248 -0.1560  0.0673 -0.0865
32801W        W39401   0.964   4.181   0.854 -0.4099 -0.1953 -0.1473
32802W        W39402  12.789   1.276  27.074  0.0446  0.3154  0.1783
32803W        W39403   7.896   5.857   0.711 -0.1911 -0.1439 -0.1465
32804W        W39404  19.700   7.305  10.872  0.0329 -0.2642  0.1706
32805W        W39405   6.128   0.568   7.905  0.1881 -0.3015  0.0273
32806W        W39406  21.808   1.173  14.819 -0.0864 -0.1957 -0.1042
32807W        W39407   4.621   7.792  16.119  0.0479  0.0820 -0.0357
32808W        W39408  21.884   2.295  27.956  0.1678 -0.1109  0.2177
32809W        W39409  18.744   7.787  14.523  0.2933  0.1438  0.0354
32810W        W39410   0.872   5.030   0.550  0.1560 -0.1068 -0.0685
32811W        W39411  19.462   3.280  10.052 -0.1750 -0.3152  0.2434
32812W        W39412  20.104   2.372   7.199  0.1641  0.0800  0.0054
32813W        W39413  10.839   3.250  22.862  0.2040  0.0206 -0.2344
32814W        W39414   4.915   2.224  30.825  0.2097 -0.0177  0.0725
32815W        W39415  14.314   2.193  23.778  0.3119 -0.2035  0.0074
32816W        W39416   5.376   4.924   3.507  0.0815 -0.0197 -0.2583
32817W        W39417  12.054   1.124  18.365  0.0935  0.1454 -0.0278
32818W        W39418   0.049   3.914   7.810 -0.0746 -0.2108  0.0862
32819W        W39419   4.436   6.295   8.756 -0.0198  0.2004  0.1470
32820W        W39420   1.276   1.130   3.119 -0.0938  0.0650 -0.2812
32821W        W39421  15.874   5.452   1.090 -0.2775 -0.0367 -0.3047
32822W        W39422   4.013   6.971   3.934  0.2295 -0.0596  0.0534
32823W        W39423   1.318   2.634  24.790 -0.0881 -0.2112  0.4180
32824W        W39424  17.871   5.439   0.919 -0.2891 -0.1339 -0.0241
32825W        W39425   3.984   0.482   4.552 -0.0242 -0.0108  0.1514
32826W        W39426  24.227   0.956  22.830  0.1148  0.0800  0.1056
32827W        W39427   3.501   5.248   4.580  0.1433 -0.1552  0.0216
32828W        W39428   1.934   6.140   7.043 -0.1359 -0.2730  0.3181
32829W        W39429   5.558   0.107   1.120 -0.3789  0.0175 -0.2934
32830W        W39430   2.682   6.959   0.814 -0.0847 -0.1465  0.0624
32831W        W39431  23.774   7.825   7.480  0.0174 -0.4097  0.1537
32832W        W39432  10.801   3.672  28.625  0.0926  0.0893 -0.0436
32833W        W39433   4.120   6.321  22.003  0.4572  0.2156 -0.1117
32834W        W39434  21.072   5.127   2.672  0.1324  0.1578  0.1664
32835W        W39435   6.953   3.166  22.448  0.1155  0.0151  0.0700
32836W        W39436  14.624   6.523   3.875 -0.0413  0.0818 -0.1728
32837W        W39437  20.276   4.966  17.498 -0.2704  0.1146 -0.2034
32838W        W39438   4.202   3.406  27.803 -0.1465  0.1499  0.0857
32839W        W39439  11.098   6.306  26.575  0.2634  0.1824 -0.0242
32840W        W39440   0.717   3.104  28.260  0.0516  0.0975  0.2372
32841W        W39441   4.678   1.506  20.608 -0.2098  0.0525  0.1460
32842W        W39442  15.551   2.925  24.703  0.2418 -0.0468  0.1908
32843W        W39443   4.095   3.815   1.769 -0.1090 -0.1449 -0.3612
32844W        W39444   7.638   0.521   9.425  0.0499  0.1641 -0.1328
32845W        W39445  15.888   2.164  27.905  0.0486 -0.0693 -0.2381
32846W        W39446   6.152   0.844  14.720  0.0365 -0.3589  0.1291
32847W        W39447  22.424   2.417  22.982  0.2653 -0.0156 -0.1265
32848W        W39448  21.176   2.254   4.762 -0.1342 -0.0182 -0.1479
32849W        W39449  15.414   2.144  26.631 -0.0197 -0.1126 -0.0708
32850W        W39450  16.793   2.112  11.065  0.0081  0.1456 -0.0802
32851W        W39451  12.262   7.757   4.048  0.1388 -0.2554 -0.0156
32852W        W39452   7.882   5.886   9.492 -0.0900 -0.0838  0.2725
32853W        W39453  19.074   4.861  12.014 -0.2661 -0.0594 -0.2395
32854W        W39454   5.890   1.155  24.485 -0.2123 -0.1087  0.1219
32855W        W39455   2.730   3.224  21.162  0.2577  0.0363 -0.0016
32856W        W39456  16.387   3.055   2.321 -0.0372  0.0343  0.0147
32857W        W39457   7.749   5.036  20.225  0.0362 -0.1153 -0.1358
32858W        W39458  13.398   7.688  12.415 -0.2826  0.1431 -0.1848
32859W        W39459  21.076   7.442  13.262 -0.0663 -0.1210  0.0276
32860W        W39460   0.126   1.231  10.945 -0.5331  0.2957  0.0867
32861W        W39461  21.301   4.023   7.537 -0.1326 -0.0762  0.2568
32862W        W39462   3.032   6.427  19.223  0.0118  0.2735  0.0189
32863W        W39463  11.828   0.820  25.395  0.1790  0.2379  0.0346
32864W        W39464   6.141   3.023  21.988  0.0175  0.1754  0.0819
32865W        W39465  10.281   0.507  24.543  0.1578  0.0786 -0.0571
32866W        W39466   0.472   3.595   1.060 -0.1597  0.1557  0.1158
32867W        W39467  19.686   0.883  17.083 -0.2090 -0.0344  0.0955
32868W        W39468  15.384   2.342  31.530 -0.1152 -0.1602  0.1033
32869W        W39469   8.713   1.892  30.532 -0.1257 -0.1291  0.1130
32870W        W39470   9.340   5.631  26.714  0.0681 -0.1657 -0.0775
32871W        W39471   5.247   4.670  15.073  0.3113  0.1631 -0.0724
32872W        W39472   9.904   4.524   3.635  0.1070 -0.1617  0.0065
32873W        W39473  24.159   6.009  13.500 -0.0441  0.1820  0.2040
32874W        W39474  10.609   0.456   4.020  0.1369 -0.0074  0.2647
32875W        W39475   9.332   4.001  17.459  0.1148  0.1791  0.3511
32876W        W39476   5.992   1.540  23.047 -0.3047 -0.0865 -0.4331
32877W        W39477  21.520   3.526  27.810 -0.1731  0.0034 -0.3839
32878W        W39478  11.810   2.050   2.306 -0.0637 -0.0647 -0.2977
32879W        W39479   5.110   7.282  15.293 -0.2829 -0.1982  0.1674
32880W        W39480  16.463   5.483   8.610 -0.0234  0.0942 -0.2445
32881W        W39481  21.097   3.594  16.513  0.0568 -0.0449  0.2334
32882W        W39482   6.091   5.924   3.251  0.2330  0.1911  0.0113
32883W        W39483   9.893   0.510  16.825 -0.0848  0.1921  0.0956
32884W        W39484  19.795   0.707  31.310  0.0164  0.0502  0.0188
32885W        W39485  19.386   4.630   8.061 -0.5213 -0.1456 -0.3223
32886W        W39486  17.671   5.426  18.054 -0.0876  0.0566  0.1831
32887W        W39487  16.306   4.273   3.701 -0.1448  0.1843  0.2207
32888W        W39488   5.443   4.739  31.373 -0.0663 -0.1050  0.0823
32889W        W39489  18.025   7.274   0.574  0.0363 -0.0946  0.2310
32890W        W39490  20.058   3.717  14.646  0.0593 -0.0368 -0.1142
32891W        W39491   6.283   1.099  27.432 -0.1159  0.0235  0.0012
32892W        W39492  11.372   2.646  22.842 -0.1090 -0.0365 -0.2327
32893W        W39493  10.608   2.373   9.559 -0.0291 -0.2088 -0.0627
32894W        W39494  19.444   4.613   6.999  0.2312  0.0078  0.0549
32895W        W39495  14.310   0.553   0.305  0.0788 -0.0112 -0.1757
32896W        W39496   5.337   1.479   8.124 -0.3341  0.1865  0.1635
32897W        W39497  21.042   3.144  13.391 -0.3823  0.2038  0.2513
32898W        W39498  15.939   3.336   5.451  0.2028 -0.1378  0.0120
32899W        W39499  13.074   7.016  30.108 -0.1735 -0.1344  0.1587
32900W        W39500  18.269   2.966  14.913 -0.2258  0.1031  0.1311
32901W        W39501  22.404   2.421  12.799  0.0028 -0.2305  0.1632
32902W        W39502  15.292   3.318  24.609  0.1094 -0.0202  0.0258
32903W        W39503  17.943   0.704  30.904 -0.3645  0.1061 -0.0725
32904W        W39504  24.038   2.024  22.015 -0.0018  0.0526  0.1853
32905W        W39505  14.794   3.107  14.078 -0.1490 -0.0635 -0.0910
32906W        W39506   8.350   0.914  20.698 -0.0417  0.0478  0.0488
32907W        W39507  18.768   6.354   3.476 -0.0801 -0.0537 -0.1832
32908W        W39508   9.498   6.709   8.534  0.0987 -0.0098  0.2011
32909W        W39509  19.413   0.846  25.861  0.2508  0.0234 -0.0408
32910W        W39510  10.923   6.998  27.071  0.2741  0.0003  0.1217
32911W        W39511  18.685   3.567  23.946 -0.0078 -0.3174  0.1353
32912W        W39512   9.095   3.969   7.569 -0.3490 -0.2984  0.2336
32913W        W39513  12.414   4.295  30.080 -0.1560 -0.2236  0.0535
32914W        W39514   8.074   1.649  25.717 -0.4027 -0.0176  0.0039
32915W        W39515  23.235   2.633   7.346  0.4059  0.0623 -0.2168
32916W        W39516  18.442   6.480  17.231 -0.0352 -0.1920 -0.0593
32917W        W39517  16.670   7.590  16.731  0.1166  0.4122 -0.3944
32918W        W39518  21.538   2.556   5.209  0.0249  0.0373  0.0147
32919W        W39519  24.678   1.911   0.698  0.0613 -0.2425  0.0950
32920W        W39520   3.203   3.143  23.196 -0.3203 -0.0793  0.4179
32921W        W39521   1.991   0.554  31.046  0.0343  0.1987 -0.2317
32922W        W39522  12.160   4.099  11.596 -0.0094  0.1014  0.2377
32923W        W39523  16.120   3.844  26.936  0.0827 -0.1113 -0.3440
32924W        W39524   0.108   4.563   5.392 -0.1428 -0.3912 -0.0321
32925W        W39525   9.602   0.265  27.281 -0.1755 -0.1361  0.1620
32926W        W39526  16.904   5.750   3.942  0.0287 -0.0597 -0.0162
32927W        W39527   4.465   6.344  23.522  0.0607  0.0574 -0.1646
32928W        W39528  23.936   3.708  27.987 -0.1259 -0.1030  0.3091
32929W        W39529   2.352   6.909   8.190 -0.2414 -0.0434  0.4185
32930W        W39530  20.285   6.611   2.927  0.0356 -0.1752 -0.0664
32931W        W39531   1.405   0.118  19.096 -0.1187  0.3895 -0.1439
32932W        W39532  11.706   0.987   5.250  0.0895 -0.2811 -0.1563
32933W        W39533  14.100   4.465   0.094  0.1581 -0.1778  0.0305
32934W        W39534  22.027   2.895  28.340 -0.1609 -0.0518  0.0361
32935W        W39535   8.550   2.035  19.179  0.2117 -0.0944  0.3735
32936W        W39536  19.177   6.290  31.490  0.1237  0.2386 -0.1929
32937W        W39537  11.149   7.479  26.982 -0.0471  0.2685  0.0313
32938W        W39538  21.236   0.480  15.551  0.0286 -0.0411 -0.2329
32939W        W39539   6.669   7.803   8.108  0.1949 -0.1722 -0.4091
32940W        W39540  21.115   0.485  16.787  0.0353  0.1379 -0.1019
32941W        W39541  15.809   5.899  11.223  0.4252  0.0863  0.0596
32942W        W39542  24.277   6.551   8.595  0.1607 -0.3439  0.3755
32943W        W39543  20.831   6.786  25.584  0.1141 -0.1380  0.0972
32944W        W39544  22.065   5.370  23.997 -0.2334 -0.3393  0.2364
32945W        W39545   5.176   7.049   0.720 -0.3791 -0.0380 -0.5287
32946W        W39546   3.372   6.305  26.256  0.0142 -0.2183 -0.4144
32947W        W39547   0.471   2.314  10.624 -0.4375  0.0532  0.0035
32948W        W39548  13.324   2.125   2.454 -0.0976 -0.2576 -0.2599
32949W        W39549   5.723   5.537  22.610 -0.0267 -0.3545 -0.1321
32950W        W39550  23.987   4.118  21.353  0.0466  0.3303  0.2605
32951W        W39551  14.487   3.309  10.493  0.2585 -0.1272 -0.4454
32952W        W39552   2.123   0.105  21.148 -0.1449  0.0363 -0.5666
32953W        W39553  18.058   1.543   6.874  0.1727  0.0508  0.2126
32954W        W39554  24.281   7.831  22.415 -0.1849  0.4446  0.3046
32955W        W39555   9.308   6.594  25.200 -0.0480 -0.2276  0.0996
32956W        W39556   5.507   0.525   6.205 -0.3048  0.0307 -0.0819
32957W        W39557  17.316   4.499   0.835 -0.0173  0.1164 -0.0019
32958W        W39558   2.298   3.388  10.957 -0.2926  0.0302  0.0746
32959W        W39559  14.575   2.706  14.544 -0.1562 -0.0046 -0.2653
32960W        W39560  12.906   5.647  11.623 -0.1836 -0.2469  0.1023
32961W        W39561  16.344   4.159   5.041 -0.1461  0.0149 -0.1187
32962W        W39562  17.384   7.621  15.330  0.0020  0.0350  0.1548
32963W        W39563   0.337   4.543  20.084  0.4768 -0.1698  0.0007
32964W        W39564   7.411   0.817   4.129 -0.1239  0.0706  0.2306
32965W        W39565  12.834   6.261  28.787  0.1401 -0.0410 -0.0162
32966W        W39566   6.641   1.644  31.006  0.2431 -0.2105  0.0429
32967W        W39567  15.315   1.722  11.344 -0.0194  0.1979 -0.0188
32968W        W39568  23.491   3.356  13.245  0.0093  0.2070  0.3392
32969W        W39569  20.604   5.840   7.081 -0.0004  0.3870 -0.3077
32970W        W39570  11.863   1.809   9.744 -0.0000 -0.1696  0.1227
32971W        W39571  19.739   0.751   2.148 -0.0408 -0.0392  0.0997
32972W        W39572  10.538   6.703  18.723  0.1618  0.0746  0.1133
32973W        W39573  21.526   2.694   8.232  0.0360 -0.1274  0.1081
32974W        W39574   3.600   5.703  22.675  0.0466 -0.1867 -0.0110
32975W        W39575   9.241   4.223  16.726  0.0665 -0.1995  0.0074
32976W        W39576  17.172   5.940  25.088 -0.0908 -0.3971  0.0620
32977W        W39577   9.616   3.708   6.607  0.0410  0.1006  0.0607
32978W        W39578  12.992   1.044   6.271  0.1507  0.1317 -0.1230
32979W        W39579   2.328   6.225  28.509 -0.0266 -0.1357  0.2247
32980W        W39580  20.236   2.236   2.231  0.1061  0.2406  0.0527
32981W        W39581   4.629   0.417   3.968 -0.0599 -0.1433 -0.1037
32982W        W39582   1.346   0.460   7.881  0.0095 -0.3456  0.1898
32983W        W39583  14.334   5.592   1.880  0.2236 -0.1006 -0.0827
32984W        W39584   2.916   1.457  18.426 -0.1336  0.1532  0.0206
32985W        W39585   2.703   0.133  17.150 -0.1813 -0.0514  0.1419
32986W        W39586   6.159   7.396   0.003  0.2094 -0.1932  0.1081
32987W        W39587  15.882   2.546  22.675  0.1786 -0.0962  0.0015
32988W        W39588  17.463   5.453  23.785 -0.0295  0.0875  0.2548
32989W        W39589   6.914   4.708  15.662  0.1008  0.0406  0.2663
32990W        W39590  11.394   7.271   9.850 -0.1745 -0.1418 -0.0448
32991W        W39591   7.671   4.751  25.411 -0.3316  0.2881  0.2356
32992W        W39592  22.808   2.732  24.406 -0.0876  0.1346 -0.3486
32993W        W39593  25.011   2.299   5.504 -0.3515  0.1667  0.1261
32994W        W39594   0.412   6.648  11.619  0.1272  0.1267  0.0018
32995W        W39595  13.731   4.477  23.458  0.0512 -0.0338 -0.0684
32996W        W39596  17.025   5.392   6.794  0.0724  0.0117 -0.1299
32997W        W39597  17.702   4.515  28.649  0.1557  0.1641 -0.2089
32998W        W39598  17.268   5.658  17.714 -0.0585  0.1324  0.0255
32999W        W39599   6.329   5.173   4.822 -0.0332 -0.1132 -0.2023
33000W        W39600  10.743   2.183  25.510  0.2979 -0.1326  0.0953
33001W        W39601   9.696   0.163   6.032  0.0650 -0.3463 -0.0435
33002W        W39602  10.247   3.971   2.780 -0.0348 -0.0514  0.0984
33003W        W39603  19.770   0.941  14.247  0.4088  0.2119  0.0550
33004W        W39604  21.489   1.043   2.219 -0.0677 -0.2250 -0.1926
33005W        W39605   4.206   3.375  31.306  0.0152 -0.3205 -0.0686
33006W        W39606  18.442   3.410  27.191 -0.1504 -0.0832  0.1210
33007W        W39607   3.373   4.965  18.113 -0.1567  0.4245 -0.4243
33008W        W39608   7.318   2.769  23.317 -0.0002  0.2398 -0.1184
33009W        W39609  22.667   5.132   3.343 -0.2881 -0.0188  0.0635
33010W        W39610  22.959   2.250   0.237  0.1504 -0.1774 -0.2329
33011W        W39611  12.416   5.470   3.377 -0.2266  0.0667  0.1155
33012W        W39612  21.038   6.665  26.760 -0.0049 -0.2261 -0.0279
33013W        W39613   0.271   4.681   5.879 -0.0932 -0.0704  0.0307
33014W        W39614  17.860   5.783  23.028 -0.2359 -0.1084  0.0740
33015W        W39615  19.492   2.600   1.754 -0.4894 -0.1300  0.0869
33016W        W39616  21.182   1.325  18.009 -0.2755  0.0581  0.0226
33017W        W39617  22.928   1.469  27.756 -0.2379  0.3131  0.0668
33018W        W39618  17.421   1.784   1.795  0.0494  0.1422  0.0509
33019W        W39619  10.986   6.360  26.073 -0.1647  0.1308 -0.1918
33020W        W39620  15.457   7.773   1.195  0.1679  0.0945 -0.1107
33021W        W39621  15.990   5.090  12.102  0.1978 -0.0507 -0.2967
33022W        W39622   5.758   5.152  15.607 -0.2953 -0.1895 -0.1012
33023W        W39623   0.499   1.761  30.895 -0.1484 -0.1072  0.2115
33024W        W39624  23.657   3.153   3.244 -0.2213 -0.0482 -0.3914
33025W        W39625  12.442   1.556  19.878  0.3091  0.1105  0.0428
33026W        W39626  18.030   0.183  28.272  0.6014  0.2908  0.1988
33027W        W39627  18.922   1.940  14.747  0.0490 -0.2185  0.1680
33028W        W39628   6.594   7.450  24.904  0.3604  0.0450  0.2691
33029W        W39629   8.984   0.560   9.859 -0.2795 -0.1604  0.3733
33030W        W39630  22.420   3.942  14.919  0.1815  0.1029  0.0174
33031W        W39631  14.641   1.335   4.477 -0.1015  0.0726  0.3392
33032W        W39632   0.160   2.802   9.904 -0.1602  0.0587 -0.1380
33033W        W39633  23.425   4.323  25.708 -0.0039 -0.0609  0.2190
33034W        W39634   0.040   5.583   6.536 -0.2333 -0.0991  0.3949
33035W        W39635  10.898   2.855  11.408 -0.0578 -0.0416  0.1640
33036W        W39636   6.878   2.868  25.611  0.0769  0.0323 -0.3312
33037W        W39637   0.738   0.499  20.923  0.0972  0.0879 -0.2955
33038W        W39638  21.302   1.870  17.970 -0.2038  0.0414 -0.1355
33039W        W39639  15.533   1.793   9.054  0.0326  0.1664 -0.2707
33040W        W39640  13.319   5.635  11.885 -0.0514  0.0047  0.3011
33041W        W39641  15.943   4.088   3.230 -0.0749 -0.0544 -0.0195
33042W        W39642  24.832   2.738  27.263 -0.1126  0.1600 -0.2786
33043W        W39643   5.377   6.045  23.963 -0.0139  0.2771  0.0655
33044W        W39644   7.866   5.467  20.585 -0.0212  0.2117  0.0905
33045W        W39645   0.561   1.631  19.190  0.1419 -0.0378  0.0732
33046W        W39646   3.150   1.800   1.190 -0.0057  0.2064  0.0034
33047W        W39647   2.560   0.467   4.368  0.2358  0.2378  0.2683
33048W        W39648   7.702   5.110  17.509 -0.2755 -0.0674 -0.0190
33049W        W39649  19.986   2.470  27.435 -0.1452 -0.0088 -0.3605
33050W        W39650  11.985   6.260  18.101 -0.0432 -0.0306 -0.0469
33051W        W39651  21.166   0.046   6.021 -0.0185 -0.2840  0.0981
33052W        W39652   4.462   0.887  23.130 -0.1900 -0.1766 -0.1569
33053W        W39653  17.582   7.044  28.844 -0.0544  0.0204  0.0677
33054W        W39654  22.687   4.819   1.223  0.0890  0.1725  0.3933
33055W        W39655  24.687   5.599  27.554  0.0478  0.3876  0.0910
33056W        W39656  11.215   6.495   3.454  0.0547  0.1230 -0.1390
33057W        W39657  19.821   6.737   2.653 -0.1933  0.1554  0.1126
33058W        W39658  22.468   2.212   4.219  0.0018  0.2070  0.0515
33059W        W39659  24.700   0.820  25.025  0.0718 -0.1155  0.0732
33060W        W39660   2.463   1.384  20.033  0.1093  0.2416  0.0830
33061W        W39661  17.736   6.203   7.911  0.1755 -0.1278 -0.0783
33062W        W39662   2.177   7.437  21.178 -0.1372  0.1647  0.0299
33063W        W39663  12.494   3.205  19.726  0.4376  0.0356  0.1464
33064W        W39664  10.514   4.351  31.892  0.1965  0.4245  0.0859
33065W        W39665   2.030   5.532   1.231  0.1995  0.0870 -0.0972
33066W        W39666  22.469   0.485   9.503  0.0564  0.4707  0.0180
33067W        W39667  24.524   4.511  29.286 -0.2802 -0.0354  0.1876
33068W        W39668   4.200   7.144  21.398 -0.2147  0.0606  0.1701
33069W        W39669  17.770   5.958   8.454  0.0018 -0.2562  0.2776
33070W        W39670  11.458   6.468  29.293  0.3578  0.2276  0.0025
33071W        W39671  22.072   4.740  28.228 -0.0886 -0.3339 -0.1380
33072W        W39672   8.052   1.907  18.888  0.0594 -0.1151  0.2006
33073W        W39673  20.378   3.657  11.917  0.2405 -0.2603 -0.3275
33074W        W39674  23.018   2.166  29.458 -0.0278 -0.2262  0.0357
33075W        W39675  21.795   6.147  30.397 -0.3243 -0.0292  0.2266
33076W        W39676  13.395   6.151   9.222  0.0409  0.1737 -0.1650
33077W        W39677  15.756   4.561  12.704 -0.0690 -0.2005  0.0993
33078W        W39678  15.223   1.343  29.086 -0.0304 -0.1842 -0.1559
33079W        W39679  22.111   6.635  30.783  0.1783  0.0917 -0.0584
33080W        W39680   3.454   3.040  26.673  0.0338  0.0478 -0.2276
33081W        W39681  11.038   0.027   8.498  0.2000  0.0284  0.0739
33082W        W39682  18.785   0.368  18.615  0.0332  0.0189  0.2452
33083W        W39683   5.132   6.437  24.078 -0.1285  0.0459 -0.0453
33084W        W39684  15.275   4.511  23.048 -0.2043 -0.1954  0.0818
33085W        W39685   9.973   7.660  25.971  0.1666 -0.0631  0.2324
33086W        W39686  16.344   7.317  25.343  0.0921 -0.1313  0.0168
33087W        W39687  13.393   4.138   0.603  0.1013  0.1516  0.0358
33088W        W39688   9.432   2.041  32.304  0.0705  0.4491 -0.2055
33089W        W39689  15.567   4.622  10.937 -0.4846  0.2205 -0.0340
33090W        W39690  13.894   4.333  32.210 -0.2719 -0.2277  0.0150
33091W        W39691  11.088   0.594  18.021  0.4142  0.1705  0.2032
33092W        W39692  14.962   5.398  27.611 -0.1880 -0.0718 -0.0029
33093W        W39693  21.020   1.621   9.971 -0.1462 -0.1663 -0.0171
33094W        W39694   0.426   3.033  12.277 -0.0859 -0.0153 -0.0757
33095W        W39695  11.698   1.165  21.947 -0.3404 -0.1831 -0.0084
33096W        W39696   8.884   2.474  27.190  0.0948  0.2025 -0.0431
33097W        W39697  15.217   0.085  30.639 -0.0592 -0.0885  0.1520
33098W        W39698  15.540   5.379   8.120 -0.1098 -0.2934  0.1206
33099W        W39699   6.489   3.153  28.227  0.0983 -0.0037 -0.0066
33100W        W39700  11.833   4.991  10.611 -0.2971 -0.0676  0.1754
33101W        W39701   1.235   4.184  30.364  0.2249  0.0702  0.1152
33102W        W39702  11.575   4.352   6.183  0.1568 -0.0955 -0.4840
33103W        W39703  23.054   2.952   2.503 -0.1026 -0.0582  0.1274
33104W        W39704  20.881   6.823  29.880  0.0684 -0.0092  0.3412
33105W        W39705  17.929   4.864   7.972  0.0846 -0.3548  0.1712
33106W        W39706   5.111   4.020  31.850  0.1248  0.1436  0.1041
33107W        W39707  14.589   1.423  28.441 -0.2012  0.1009 -0.0049
33108W        W39708  19.568   2.651  25.925  0.1881 -0.1617 -0.2309
33109W        W39709  24.280   7.679   4.441 -0.0272  0.1413 -0.0329
33110W        W39710  11.858   3.455  29.760  0.0528 -0.2282  0.2025
33111W        W39711  19.514   0.824  18.646 -0.0392 -0.1127 -0.0848
33112W        W39712   2.648   2.234   7.242  0.0916  0.0809  0.0467
33113W        W39713  11.049   0.471  31.682  0.2638  0.0888  0.0388
33114W        W39714  13.766   2.850  13.056  0.1673  0.4173 -0.0077
33115W        W39715   5.693   7.424   4.034 -0.3005 -0.2777  0.3025
33116W        W39716  24.359   5.218   8.761 -0.0940  0.0447 -0.0264
33117W        W39717   2.351   2.583  27.437  0.2595 -0.1486  0.1248
33118W        W39718   0.894   2.116   2.253  0.2435 -0.0107 -0.3307
33119W        W39719   6.127   1.257   6.674 -0.2596 -0.2338 -0.0469
33120W        W39720   2.042   1.661   6.484 -0.0328 -0.1211 -0.0168
33121W        W39721  12.012   1.581  18.092  0.1166  0.2253  0.0143
33122W        W39722   5.241   5.671  22.646 -0.3795 -0.1982  0.0027
33123W        W39723  15.693   4.823  25.171  0.0921  0.0899  0.2065
33124W        W39724  13.384   4.832   3.092  0.1478  0.4885 -0.1395
33125W        W39725  18.392   0.169  27.929 -0.0198 -0.0919  0.1807
33126W        W39726  14.549   0.396   4.516  0.1383  0.1091  0.0376
33127W        W39727   2.019   6.597   8.360 -0.2629  0.1021 -0.2215
33128W        W39728  21.221   2.998  11.421 -0.1116  0.2798  0.0548
33129W        W39729  14.647   0.419   9.933  0.1221 -0.1014  0.1424
33130W        W39730   0.934   7.601  27.223 -0.1134  0.0022 -0.0599
33131W        W39731  23.461   5.446  13.842  0.1159  0.2152 -0.1699
33132W        W39732   7.154   5.340  30.734 -0.2406 -0.0050  0.2084
33133W        W39733   5.587   7.331  15.419 -0.2213  0.0875  0.1364
33134W        W39734  19.420   4.163  14.490 -0.1135 -0.0348 -0.0330
33135W        W39735   4.817   4.739  25.826  0.2787 -0.0470 -0.2399
33136W        W39736   5.329   2.244   9.511 -0.0324 -0.2670 -0.1832
33137W        W39737   7.212   4.273  26.145  0.3035 -0.2908  0.0645
33138W        W39738  23.108   2.432   2.617 -0.1052 -0.2177 -0.1666
33139W        W39739  18.520   6.575  16.020  0.0640  0.0165  0.2221
33140W        W39740  24.595   2.621  20.799  0.0035  0.0645 -0.1339
33141W        W39741   3.873   4.685   0.843 -0.0007  0.2000 -0.1782
33142W        W39742   2.477   5.129  18.745 -0.3015  0.0071  0.2177
33143W        W39743   0.405   7.630   2.156  0.2910 -0.2572  0.2254
33144W        W39744   9.240   1.410  18.651  0.2156 -0.3181  0.0470
33145W        W39745  19.921   6.730  13.594 -0.1101 -0.1816  0.1253
33146W        W39746   9.391   1.991  26.357 -0.0844  0.1623  0.1241
33147W        W39747   9.922   3.313   7.498 -0.0683  0.1568  0.0754
33148W        W39748   3.566   0.693  24.503  0.0963  0.2536  0.2274
33149W        W39749  21.999   2.832  15.635  0.1195  0.1803  0.1775
33150W        W39750   7.046   6.983  23.766  0.2534  0.3895 -0.1893
33151W        W39751  19.047   4.509   2.624  0.2845 -0.0785 -0.1133
33152W        W39752  19.919   4.997  26.231  0.1812  0.1301  0.2991
33153W        W39753  14.051   4.992  32.538 -0.1034  0.1236  0.0788
33154W        W39754   0.229   4.434  12.104 -0.0376 -0.1190  0.2097
33155W        W39755  10.551   5.955  21.048 -0.1758  0.0564 -0.0988
33156W        W39756  14.114   5.497  28.206 -0.1267  0.0606 -0.2445
33157W        W39757  11.338   7.467  10.586 -0.0860 -0.1499  0.2344
33158W        W39758  15.160   0.880  29.373  0.0830  0.1576 -0.1433
33159W        W39759  16.501   5.290  11.035  0.1845  0.2705 -0.2508
33160W        W39760   2.376   6.640  18.333 -0.1320  0.0372  0.0767
33161W        W39761  19.974   6.874   1.367  0.1834 -0.2037  0.1200
33162W        W39762  20.089   0.660  15.458 -0.4300 -0.1557 -0.1067
33163W        W39763  16.350   3.045  12.525 -0.3768  0.0536  0.2365
33164W        W39764   8.375   7.826   0.879  0.1427 -0.0362  0.0496
33165W        W39765  11.311   7.145  23.695  0.0623  0.0801 -0.1142
33166W        W39766  24.420   7.824   5.602 -0.0268 -0.0644  0.0645
33167W        W39767   8.935   2.762  22.359  0.4400  0.0632 -0.1606
33168W        W39768  16.950   5.788   2.022 -0.1540  0.0857  0.0105
33169W        W39769  17.512   3.454   5.490  0.0368  0.1210 -0.3283
33170W        W39770  18.055   4.302  14.446  0.0734  0.0248 -0.0504
33171W        W39771  20.160   6.761   7.578  0.2255  0.1500 -0.1728
33172W        W39772   4.850   4.397  24.344  0.0464  0.2999 -0.3060
33173W        W39773  12.510   5.882  23.607  0.0715 -0.1116 -0.1926
33174W        W39774   6.289   0.440   4.176  0.1633 -0.1086  0.0485
33175W        W39775   1.654   1.597  26.117 -0.1180  0.1196  0.0444
33176W        W39776  10.818   3.716  25.427 -0.1302 -0.1403 -0.0488
33177W        W39777   0.845   0.204  20.110 -0.1408  0.3439  0.2992
33178W        W39778   4.257   1.991  32.515 -0.2637  0.1444 -0.3701
33179W        W39779  17.876   3.933  29.191  0.2672  0.1495  0.0361
33180W        W39780   7.297   7.192   4.424 -0.0430 -0.0638 -0.1182
33181W        W39781   3.750   5.346   7.182 -0.0344 -0.2378  0.1928
33182W        W39782   6.704   3.029  19.916  0.0530  0.1444  0.1779
33183W        W39783  18.377   6.127  29.891  0.0638 -0.2923 -0.0121
33184W        W39784   6.718   5.343  22.427 -0.0386  0.0707 -0.0309
33185W        W39785   3.087   6.932  24.145  0.0952 -0.0858 -0.0438
33186W        W39786  13.430   0.439  24.649 -0.4083 -0.0188  0.0949
33187W        W39787  15.188   6.965   3.836 -0.1979  0.2284  0.3139
33188W        W39788   4.592   3.055  23.773 -0.1271  0.5093  0.0159
33189W        W39789   5.236   2.995   5.534 -0.0267  0.3184 -0.0549
33190W        W39790   8.212   7.302  28.851 -0.1753  0.1989 -0.1201
33191W        W39791  12.443   1.554  20.867  0.0406  0.1514  0.0502
33192W        W39792  22.501   1.055   0.106 -0.0097  0.0789 -0.1213
33193W        W39793   0.454   3.156  22.489 -0.1535 -0.2688 -0.2600
33194W        W39794   7.802   3.578   6.627  0.0482 -0.0934  0.3489
33195W        W39795   9.770   6.461  22.709  0.1987 -0.2260 -0.0123
33196W        W39796   7.718   4.649   8.484  0.2509 -0.2054 -0.2024
33197W        W39797   1.184   3.416  12.420  0.1284 -0.0353 -0.3838
33198W        W39798   5.592   6.273   1.189  0.0634 -0.4091  0.1332
33199W        W39799  21.827   6.737  22.745  0.4300  0.2004  0.1275
33200W        W39800  10.471   3.035   7.291 -0.3995  0.2096 -0.0562
33201W        W39801  17.205   4.394  29.587  0.2164 -0.1290  0.5784
33202W        W39802  15.733   6.477   1.209  0.2147 -0.2109 -0.0695
33203W        W39803  21.639   0.259   1.688  0.1147 -0.0409 -0.1499
33204W        W39804  24.554   7.341  21.391  0.0487  0.0944  0.1364
33205W        W39805  22.348   2.322   7.399  0.3960  0.0128 -0.1311
33206W        W39806   8.811   2.610   6.922  0.0103 -0.1766  0.0260
33207W        W39807  17.710   2.591   9.078 -0.2136 -0.0166  0.2294
33208W        W39808  22.785   2.027  13.493 -0.0214 -0.0952  0.1681
33209W        W39809   8.960   1.937  19.449  0.4238  0.2565 -0.1997
33210W        W39810  24.550   7.580  12.404 -0.2483 -0.0557  0.0039
33211W        W39811  24.031   3.264   6.078  0.2480  0.0546 -0.1779
33212W        W39812  14.664   4.655  30.462  0.2548  0.0485  0.0723
33213W        W39813  24.282   7.013  27.167 -0.1463  0.0836  0.0557
33214W        W39814   6.261   2.274   5.242 -0.2529 -0.2045 -0.1592
33215W        W39815  12.132   7.076  25.296 -0.1437 -0.0569 -0.0322
33216W        W39816   8.685   5.699  18.313  0.0628 -0.1010 -0.0764
33217W        W39817   8.783   1.321  22.446 -0.0903 -0.1580  0.0225
33218W        W39818  23.962   7.730  22.075 -0.0438  0.2568  0.0975
33219W        W39819  22.497   5.277   1.348  0.1330 -0.2466  0.3549
33220W        W39820  24.551   4.182   6.722 -0.1175 -0.1329 -0.0292
33221W        W39821  17.921   1.955  18.392 -0.2734 -0.0162  0.0117
33222W        W39822  16.193   0.816   8.914  0.0547  0.0631  0.1139
33223W        W39823  11.399   2.463  20.007  0.0905  0.0671 -0.1773
33224W        W39824  11.160   1.787   8.493  0.1843 -0.0174  0.2698
33225W        W39825  19.395   0.474   0.610  0.3019  0.0337  0.3141
33226W        W39826  23.940   6.989  22.562 -0.0235 -0.1599  0.0830
33227W        W39827  23.558   3.957   4.836  0.1173  0.3949 -0.0482
33228W        W39828  13.322   6.254  20.858  0.0062  0.1754 -0.1393
33229W        W39829  24.656   1.906   2.757  0.0265 -0.0258 -0.0229
33230W        W39830   1.073   4.327   7.988  0.2491  0.1901  0.1805
33231W        W39831   4.001   0.404   6.059  0.2126  0.1101  0.1319
33232W        W39832  23.778   6.714   5.863  0.0214 -0.0043  0.1595
33233W        W39833  11.384   3.210  29.155  0.1941 -0.3674  0.0236
33234W        W39834   3.267   4.806  18.790 -0.1669 -0.1497 -0.1090
33235W        W39835   5.490   0.888  30.757  0.0146 -0.1720  0.0611
33236W        W39836  24.464   0.655  23.621 -0.1405 -0.0380  0.1960
33237W        W39837   7.842   6.765  26.154  0.0967 -0.2061  0.1532
33238W        W39838   7.001   3.311   9.105 -0.2078 -0.1076 -0.1475
33239W        W39839  17.235   0.421  24.663  0.0850  0.1485 -0.0713
33240W        W39840  16.126   5.725   0.185 -0.3002 -0.0114 -0.0227
33241W        W39841  24.256   2.965  20.921  0.0578  0.1772  0.4238
33242W        W39842  13.941   1.201  30.923  0.0815 -0.0896 -0.0796
33243W        W39843   6.353   0.115  20.948  0.2031 -0.2336 -0.0734
33244W        W39844   1.093   7.233   7.522 -0.2864 -0.3487 -0.0653
33245W        W39845  23.707   2.157   5.350 -0.3687 -0.2646  0.0885
33246W        W39846   5.882   2.286  15.315  0.3071  0.1634 -0.1007
33247W        W39847  21.980   3.377   2.333 -0.0389  0.1806 -0.0117
33248W        W39848  16.423   0.270   9.535  0.1522  0.0049  0.1612
33249W        W39849  21.469   2.518  31.454 -0.1050  0.0517  0.1552
33250W        W39850  23.811   0.684  26.140 -0.2105 -0.2790  0.0539
33251W        W39851  22.971   3.187  26.821 -0.0522 -0.2109  0.1032
33252W        W39852   2.657   4.004  11.425  0.0066 -0.1281 -0.0787
33253W        W39853  14.340   5.423  29.116 -0.0624 -0.2394 -0.0343
33254W        W39854  18.183   6.801   0.925  0.0617 -0.0164  0.3338
33255W        W39855  17.345   3.872   9.384 -0.0529  0.1210 -0.0263
33256W        W39856  24.503   2.561   0.141  0.1462  0.1443  0.2604
33257W        W39857   7.812   2.005  25.436  0.2900  0.0790  0.1695
33258W        W39858  12.906   4.294  21.661  0.0284 -0.0363  0.2735
33259W        W39859  17.504   5.632  22.660  0.1863  0.3798 -0.2098
33260W        W39860   1.682   1.991  31.665 -0.0011  0.0628  0.0636
33261W        W39861   1.296   7.227  27.497 -0.1636 -0.1358 -0.3400
33262W        W39862   1.678   1.759   9.280  0.1362  0.1841  0.0479
33263W        W39863  11.702   1.628  30.328  0.2209  0.2021 -0.1556
33264W        W39864  16.514   6.435  23.641  0.3876  0.0165 -0.0575
33265W        W39865  18.910   1.164   8.598  0.0035  0.1410 -0.2546
33266W        W39866   1.244   7.037   3.355 -0.3725  0.0034  0.0028
33267W        W39867  13.934   4.444   5.319  0.2041 -0.0538  0.4135
33268W        W39868  19.589   5.034   1.914 -0.2118 -0.3485 -0.2110
33269W        W39869  12.395   1.003  29.876  0.3077  0.1001  0.0038
33270W        W39870  11.563   5.494  28.128  0.0148  0.0439 -0.0708
33271W        W39871   4.232   0.194  28.996  0.0203  0.0440  0.0913
33272W        W39872  20.093   5.672   4.419  0.1866  0.1764  0.1378
33273W        W39873  13.646   6.541  27.897  0.0350  0.2360 -0.1003
33274W        W39874  15.731   2.291   3.542 -0.0404 -0.2300 -0.1373
33275W        W39875  20.610   6.222  29.031  0.1864 -0.2042 -0.1129
33276W        W39876   4.396   7.056  28.049  0.1756 -0.0347 -0.2493
33277W        W39877   0.372   5.933  13.617 -0.0917  0.0699 -0.4252
33278W        W39878  14.630   5.495   2.716  0.2498 -0.1545 -0.1122
33279W        W39879  15.411   6.918  27.897  0.0577  0.5032 -0.1299
33280W        W39880   6.877   6.143   7.284  0.1196  0.1867 -0.4315
33281W        W39881  19.237   3.148  26.526  0.0020  0.0006  0.1013
33282W        W39882   7.749   5.992  17.677  0.1053 -0.0653  0.4298
33283W        W39883   6.382   2.120  25.674  0.1893  0.1867  0.2785
33284W        W39884   2.621   2.801   5.930  0.1719 -0.1239  0.1245
33285W        W39885   2.049   4.965  30.503 -0.0183 -0.1517 -0.0076
33286W        W39886   4.518   2.828  30.717  0.1859  0.1267 -0.2565
33287W        W39887  12.414   2.389   8.679  0.3016  0.1766  0.0767
33288W        W39888   0.624   2.319  21.959  0.1517 -0.0177 -0.2250
33289W        W39889  13.057   5.488  30.403  0.0766  0.2225 -0.0022
33290W        W39890  10.910   7.281  19.166  0.2161  0.1537  0.0845
33291W        W39891   1.384   5.025   0.474 -0.2548 -0.0780 -0.0076
33292W        W39892  17.191   1.313  11.261  0.0120  0.2490 -0.1716
33293W        W39893   4.633   6.214   7.353  0.0443  0.0650  0.3780
33294W        W39894  17.594   1.931  23.501  0.0429  0.2780 -0.0985
33295W        W39895   1.173   4.782  10.073 -0.0950  0.1893  0.0940
33296W        W39896   8.744   2.058  23.197 -0.0761  0.1970  0.0455
33297W        W39897  19.167   7.554  17.760 -0.1000 -0.1986 -0.3424
33298W        W39898  21.318   5.892  31.660  0.1988 -0.1567  0.2025
33299W        W39899   6.168   1.968  18.001  0.1029  0.4186 -0.1515
33300W        W39900  11.535   6.045   9.446  0.0419 -0.0013  0.3344
33301W        W39901   9.944   5.812  27.976 -0.0532 -0.2552 -0.0882
33302W        W39902  24.816   1.181  28.506 -0.2884 -0.0887  0.0621
33303W        W39903  20.507   1.648  17.637  0.1902  0.2923  0.1814
33304W        W39904   1.785   6.687  23.707  0.0447 -0.2028 -0.1801
33305W        W39905  23.784   1.218   9.334  0.1884  0.0650  0.0307
33306W        W39906  20.490   1.978  23.373 -0.0621 -0.0040  0.2846
33307W        W39907  10.945   3.632   6.205 -0.0051 -0.4136  0.2235
33308W        W39908  20.503   5.090   1.397 -0.1057  0.2574  0.0205
33309W        W39909  13.580   3.820   2.754  0.3950  0.1080 -0.2229
33310W        W39910  22.040   1.138  28.747 -0.1738  0.4867 -0.1783
33311W        W39911   5.664   5.510  20.158 -0.0605  0.1775  0.2895
33312W        W39912   4.893   2.028   2.559  0.1264  0.2345  0.1406
33313W        W39913  24.991   1.403  23.923 -0.0944 -0.3512  0.1658
33314W        W39914   6.274   5.804  16.826  0.3081 -0.0120  0.2579
33315W        W39915  14.829   0.366   1.701  0.1228 -0.0969 -0.1214
33316W        W39916  14.157   7.189  11.030  0.0265  0.0446 -0.0506
33317W        W39917  20.953   3.781   3.288 -0.0757 -0.1112 -0.1542
33318W        W39918   7.144   6.665  19.183 -0.0198  0.1490 -0.1074
33319W        W39919  12.962   7.560  30.993  0.2004  0.0583  0.1988
33320W        W39920  21.770   5.602  22.352 -0.3366 -0.0779 -0.0227
33321W        W39921   8.020   1.354  18.082  0.2696  0.0517 -0.0144
33322W        W39922  11.810   4.657   2.415  0.2323  0.1101  0.1247
33323W        W39923  12.457   0.779  31.329  0.0162 -0.2850  0.0235
33324W        W39924   1.836   6.548  27.038 -0.0880  0.0371 -0.3706
33325W        W39925  22.422   4.071   4.297  0.0968  0.1466 -0.2742
33326W        W39926   9.518   3.925  26.310  0.0637 -0.1156  0.1690
33327W        W39927  25.043   2.468  19.881 -0.0404  0.1096  0.0583
33328W        W39928  16.557   0.411  16.036  0.1320  0.0700 -0.1167
33329W        W39929   8.575   2.864  27.475 -0.0833  0.3235 -0.0141
33330W        W39930  24.530   2.316   5.378  0.1279 -0.0884  0.0536
33331W        W39931   8.864   2.277  22.349  0.1315 -0.0999  0.1577
33332W        W39932  22.030   2.026  13.848 -0.2118 -0.1449  0.0944
33333W        W39933  23.482   0.902  30.075  0.0107  0.2083  0.2048
33334W        W39934  19.875   4.614   7.221 -0.2593  0.0062  0.1672
33335W        W39935  19.556   6.962   2.273 -0.1003 -0.1740  0.0916
33336W        W39936   9.746   7.182  10.335  0.5223 -0.1506  0.2289
33337W        W39937  15.584   7.398  11.155 -0.3302 -0.2746  0.0509
33338W        W39938  16.567   0.934  15.083  0.2183 -0.1233  0.1126
33339W        W39939  24.709   6.545  32.278  0.0715 -0.2898  0.0558
33340W        W39940   6.997   6.811  26.641  0.0397  0.2184 -0.1261
33341W        W39941  22.512   5.649   7.580  0.0038  0.0234 -0.2304
33342W        W39942   7.024   1.822  21.220 -0.1482  0.1511  0.1260
33343W        W39943  23.945   4.777  21.166 -0.0132  0.0550 -0.2729
33344W        W39944  21.562   1.072  30.656  0.2665 -0.0239  0.0897
33345W        W39945   4.815   4.817  21.105  0.3954  0.3297 -0.0999
33346W        W39946   5.171   6.358  19.741 -0.1786 -0.0845 -0.2835
33347W        W39947   9.313   1.686  30.424  0.1943  0.0113 -0.3645
33348W        W39948  20.159   0.874  26.804  0.2142 -0.0006  0.2229
33349W        W39949  22.615   0.965   7.295 -0.2038 -0.4132 -0.1968
33350W        W39950  17.394   3.125   3.735 -0.0337 -0.0267 -0.0657
33351W        W39951  23.571   6.218   0.287 -0.1045 -0.0052  0.2662
33352W        W39952  18.689   0.784  22.709 -0.1191  0.0905  0.1989
33353W        W39953  13.382   1.208   3.130  0.2068  0.0146 -0.0609
33354W        W39954   8.157   6.691  14.859  0.2004  0.2842  0.0466
33355W        W39955  13.465   0.254  13.950 -0.0839  0.0840  0.1936
33356W        W39956  10.858   5.549  21.390 -0.0903  0.0868 -0.0674
33357W        W39957  24.302   6.864  23.159  0.1250  0.0436  0.1503
33358W        W39958  17.580   7.616  32.567 -0.2338 -0.3208  0.4214
33359W        W39959   8.642   4.517  29.309 -0.0293 -0.0210 -0.0934
33360W        W39960  19.714   0.159  16.675 -0.0870 -0.0137 -0.2042
33361W        W39961  12.937   6.447  27.484  0.0981  0.2187  0.1924
33362W        W39962  16.659   3.423  28.270  0.3075 -0.2271  0.2488
33363W        W39963  17.261   6.270   2.052  0.0687  0.1645  0.0379
33364W        W39964  11.756   2.262   4.269  0.0251 -0.0794 -0.0442
33365W        W39965   5.660   0.766  24.321  0.0703 -0.0154  0.2335
33366W        W39966  23.287   6.494   8.602  0.1281  0.1449  0.2890
33367W        W39967  10.723   7.707  20.563  0.1117  0.0095 -0.0232
33368W        W39968   9.513   6.952  26.734 -0.2744  0.0048 -0.1193
33369W        W39969  24.491   5.489  21.753  0.1530 -0.1972 -0.2160
33370W        W39970  19.292   5.910  18.402 -0.0644 -0.0946 -0.0274
33371W        W39971   1.129   0.645  22.591  0.0306 -0.1320 -0.2565
33372W        W39972   4.077   5.504  16.303  0.1434 -0.2904 -0.1322
33373W        W39973  18.230   3.498  10.580 -0.2693 -0.0550  0.1777
33374W        W39974  22.323   5.201  30.462 -0.0948  0.1977  0.2060
33375W        W39975  16.750   6.785  23.126  0.2446 -0.1106  0.0272
33376W        W39976   5.011   5.802  19.027 -0.1970 -0.0202 -0.0214
33377W        W39977  20.512   3.571   7.763 -0.2385 -0.1590  0.1076
33378W        W39978  17.340   7.766  24.527 -0.2371 -0.1056  0.0206
33379W        W39979  12.279   2.976  27.615  0.1458 -0.2421  0.2711
33380W        W39980  16.526   2.807  10.499  0.0930  0.0021  0.0913
33381W        W39981  24.475   1.804  12.548  0.0060 -0.1648 -0.1685
33382W        W39982  18.717   2.982   2.247  0.0741 -0.1075  0.2191
33383W        W39983  18.386   7.243  10.073 -0.2530 -0.1880  0.2455
33384W        W39984  20.293   1.272  12.457 -0.2170  0.2603  0.1452
33385W        W39985  10.145   0.848  25.899 -0.1639  0.2020  0.0812
33386W        W39986   5.636   2.451  31.616 -0.3079 -0.1756 -0.0594
33387W        W39987  19.354   7.653   1.165 -0.0982  0.1053  0.0699
33388W        W39988   9.617   0.210  29.378 -0.1915  0.0114  0.2532
33389W        W39989   2.943   1.782  32.125 -0.0197 -0.1066 -0.3066
33390W        W39990   5.164   1.202  19.882  0.3211  0.1785 -0.1350
33391W        W39991   8.543   3.341  21.673  0.0590  0.0466  0.0646
33392W        W39992  17.933   4.930   6.885 -0.0333  0.0747 -0.1255
33393W        W39993   9.239   1.351  29.053  0.2342  0.1170  0.1274
33394W        W39994  22.822   2.769  10.225  0.0925 -0.2039 -0.2361
33395W        W39995  12.613   7.437   3.781 -0.0527  0.0519  0.0456
33396W        W39996   8.926   1.368   7.022 -0.0510 -0.0766 -0.0265
33397W        W39997   3.569   0.385  25.584  0.1561 -0.1105  0.2141
33398W        W39998  21.317   4.159   0.223  0.0389  0.0594  0.0587
33399W        W39999  17.951   7.045  16.551  0.2493  0.1392  0.3332
33400W        W40000  18.236   7.085   6.632  0.0775  0.2075  0.0263
33401W        W40001  23.656   7.489  24.645  0.0472 -0.0840 -0.0325
33402W        W40002  16.202   0.295  25.389 -0.0313 -0.2092  0.0320
33403W        W40003  16.387   6.340   7.599 -0.0882  0.1251  0.0024
33404W        W40004   6.971   5.169   6.881  0.0452  0.4253  0.1489
33405W        W40005   1.571   2.329   2.078 -0.0314  0.1233  0.0940
33406W        W40006   9.795   0.678   1.191  0.2655 -0.1538  0.3335
33407W        W40007  12.303   2.761   3.972  0.1717 -0.0443  0.2929
33408W        W40008  18.791   4.889   3.656  0.2508  0.0396  0.3542
33409W        W40009  19.287   3.659   0.183 -0.0978 -0.0190 -0.1959
33410W        W40010   2.337   4.825  24.376  0.0078 -0.1258 -0.0290
33411W        W40011  22.385   2.539  12.228 -0.1104  0.3108 -0.2898
33412W        W40012  13.932   5.979  20.242 -0.4381 -0.2035  0.0399
33413W        W40013  12.153   5.189  31.220  0.1173  0.0541 -0.0116
33414W        W40014  18.216   1.778   8.950  0.2604  0.1153  0.1359
33415W        W40015  12.687   3.525   2.675 -0.1657  0.1467 -0.1693
33416W        W40016  17.021   4.729   8.088  0.1147 -0.0609 -0.1145
33417W        W40017   7.236   0.654   2.834 -0.0454  0.0367  0.0351
33418W        W40018  15.671   0.977  29.165  0.2476 -0.0460 -0.1068
33419W        W40019   0.390   3.196   7.650 -0.2363  0.1009  0.1918
33420W        W40020  21.561   0.737   0.201  0.1393  0.0381 -0.2814
33421W        W40021   9.776   0.836   6.546 -0.3074 -0.2436 -0.3156
33422W        W40022   5.635   1.394  28.465  0.0542  0.3377  0.0541
33423W        W40023  10.437   1.894  32.332 -0.1309 -0.0039 -0.3123
33424W        W40024  17.653   6.855   5.647  0.2237  0.2696 -0.1349
33425W        W40025   1.123   2.267  21.894  0.1413  0.0134  0.4038
33426W        W40026  14.637   0.257  11.249 -0.0863  0.1478  0.1026
33427W        W40027  14.900   1.460  14.260 -0.0818  0.0055 -0.0055
33428W        W40028  16.134   4.736  15.201 -0.3723  0.0942  0.0897
33429W        W40029   1.199   0.662   3.811 -0.0479  0.0937  0.0319
33430W        W40030  12.698   5.078  32.005  0.0128  0.2553  0.0859
33431W        W40031  22.812   3.056   5.351  0.0418 -0.0706  0.2295
33432W        W40032  10.103   0.008   4.719  0.1240 -0.2211 -0.2583
33433W        W40033   8.056   4.987   6.726  0.0561 -0.1194  0.0388
33434W        W40034   4.050   3.183  23.019 -0.0302 -0.1833 -0.0513
33435W        W40035   0.779   3.084   2.642 -0.2183 -0.1517 -0.0950
33436W        W40036  19.619   4.063  12.047 -0.0416 -0.3078  0.4547
33437W        W40037  12.332   1.936  27.301 -0.0240 -0.1222  0.1173
33438W        W40038  15.841   1.894   0.467 -0.0449 -0.2634 -0.0913
33439W        W40039   4.307   7.054   4.840  0.1259  0.1863 -0.0404
33440W        W40040   6.896   4.031  27.000  0.2785  0.3828  0.1797
33441W        W40041   2.658   3.267  31.479  0.0061 -0.1046 -0.2489
33442W        W40042  16.794   5.057   2.827 -0.0336  0.2054  0.0410
33443W        W40043  16.009   3.852   4.818  0.0793  0.0052  0.1042
33444W        W40044   7.781   3.613   4.510  0.3789 -0.1189 -0.0642
33445W        W40045  13.536   4.745   9.595 -0.0549  0.1299  0.2568
33446W        W40046   9.187   1.511  22.687 -0.4274 -0.4548  0.3110
33447W        W40047  22.715   2.314  29.068 -0.0506  0.0968  0.0214
33448W        W40048  23.482   1.024  31.388 -0.2060  0.3169  0.2823
33449W        W40049  16.058   1.969   5.858  0.0698 -0.0651  0.0753
33450W        W40050   0.619   5.502  32.094  0.0479  0.2399 -0.1207
33451W        W40051   8.766   3.804   0.783 -0.1864 -0.0512  0.2262
33452W        W40052   3.799   5.710  27.342 -0.1144 -0.2853 -0.0813
33453W        W40053   4.515   3.419  18.589  0.1963  0.1766 -0.3622
33454W        W40054   6.390   4.789  32.565 -0.2523 -0.3657  0.0077
33455W        W40055   6.894   0.160  19.319  0.5998 -0.5851  0.5367
33456W        W40056  17.421   0.498  14.270 -0.1113 -0.2382  0.0508
33457W        W40057  14.760   6.023  25.922  0.2347 -0.0935 -0.2389
33458W        W40058  19.972   7.119  24.289  0.3632  0.1037  0.2699
33459W        W40059  19.154   2.286   3.775 -0.3621  0.0682  0.1056
33460W        W40060  18.784   2.639  28.379  0.1237  0.1823 -0.1374
33461W        W40061   4.068   5.228  22.144 -0.1414  0.1378  0.1072
33462W        W40062   6.909   4.371  24.988 -0.0500  0.0355  0.0611
33463W        W40063   8.650   1.121   2.260 -0.2044 -0.3296 -0.0433
33464W        W40064  21.557   0.407  26.098 -0.1818  0.0359  0.0347
33465W        W40065   9.513   1.530  28.687 -0.0741  0.2140 -0.1987
33466W        W40066  22.522   1.868   9.178 -0.1975 -0.1687  0.0828
33467W        W40067  17.643   0.214  13.820 -0.1002  0.3012  0.2364
33468W        W40068  17.020   1.068  15.523  0.1145 -0.2219  0.0881
33469W        W40069  19.655   7.234  29.777 -0.4245 -0.1284  0.1397
33470W        W40070   1.425   0.565  20.826 -0.1195 -0.0836 -0.1464
33471W        W40071   3.701   1.656  18.401 -0.1570 -0.4354  0.1760
33472W        W40072   7.219   7.040  16.277 -0.1024  0.1457 -0.0952
33473W        W40073  10.945   1.795  21.435  0.3428 -0.1479 -0.3254
33474W        W40074   0.208   5.448  20.013  0.1597  0.1082 -0.3286
33475W        W40075   6.516   7.479  26.539 -0.1810 -0.0111 -0.0960
33476W        W40076  17.585   1.577  17.671  0.0367 -0.1739  0.3349
33477W        W40077   5.922   2.575  29.592  0.2697 -0.0598 -0.0622
33478W        W40078  11.061   2.719  29.187  0.2805  0.0514  0.4615
33479W        W40079  22.866   7.125  23.505 -0.0658 -0.2459  0.0785
33480W        W40080   5.910   0.839  23.018 -0.0681 -0.1390 -0.0056
33481W        W40081  11.727   7.504  18.984  0.0305  0.1299  0.0920
33482W        W40082  24.404   5.369   1.278 -0.0051  0.1621 -0.0938
33483W        W40083  21.727   5.504   1.330  0.0159  0.1356  0.0144
33484W        W40084   3.286   0.019   9.259  0.0084  0.0410  0.0526
33485W        W40085  22.069   7.462  12.485 -0.0144  0.2651  0.1874
33486W        W40086   5.816   1.965  24.986 -0.0516  0.0286  0.2688
33487W        W40087  17.295   7.249   6.960  0.4020  0.0170  0.2269
33488W        W40088  11.509   0.606  26.425  0.2647  0.0816  0.0807
33489W        W40089   7.100   4.618   6.134 -0.2191 -0.0547 -0.2168
33490W        W40090   4.475   3.329  30.763  0.1742  0.2736  0.2702
33491W        W40091  24.017   3.801  20.477  0.0987  0.2154 -0.0805
33492W        W40092   9.711   1.158  16.014  0.1204 -0.1388 -0.0604
33493W        W40093  19.556   2.725  14.371  0.1685  0.1642  0.3497
33494W        W40094  14.882   1.466  11.223 -0.0569 -0.1786  0.4845
33495W        W40095   7.861   6.793  18.235 -0.1070 -0.0247  0.0217
33496W        W40096  18.696   3.479  10.749 -0.2531 -0.2051  0.0014
33497W        W40097  19.284   5.614   5.813 -0.1591  0.2107 -0.0395
33498W        W40098   7.724   6.578   1.241 -0.2381  0.0894 -0.3338
33499W        W40099  21.272   0.919   4.877 -0.2723 -0.3851 -0.3056
33500W        W40100  15.406   3.072  12.685 -0.0018 -0.1680  0.0035
33501W        W40101  16.870   0.469  31.368  0.0331  0.1518 -0.0740
33502W        W40102  18.616   2.373  14.734  0.1343 -0.1340  0.2385
33503W        W40103   1.785   7.238  19.432  0.1085  0.1494  0.0659
33504W        W40104   3.651   4.182   3.518  0.0809  0.1489 -0.1679
33505W        W40105  14.673   0.799   1.325 -0.4133  0.2465 -0.1459
33506W        W40106  20.371   4.677  23.239  0.2419 -0.1056 -0.0976
33507W        W40107  10.384   7.567   9.027  0.1919  0.0374 -0.0457
33508W        W40108  16.926   5.093  24.878 -0.3180 -0.0744  0.0976
33509W        W40109   8.600   5.087  27.828  0.0791  0.0147  0.0510
33510W        W40110   0.464   2.860  21.594 -0.0513 -0.2267 -0.2741
33511W        W40111   6.585   2.357   7.512  0.1057 -0.0022 -0.2637
33512W        W40112   9.262   2.584  14.951 -0.3777 -0.0026  0.0550
33513W        W40113   8.644   1.630  15.263 -0.0383 -0.0679 -0.0467
33514W        W40114  15.882   3.730  12.558 -0.0995 -0.2651 -0.3100
33515W        W40115  13.701   1.705  26.647 -0.1770 -0.0321  0.1587
33516W        W40116   6.135   7.623  27.389  0.0382  0.1733 -0.1744
33517W        W40117  23.391   1.134   1.084  0.3088 -0.1718 -0.0021
33518W        W40118  10.026   4.995   3.358  0.0967 -0.3505 -0.3197
33519W        W40119  13.266   7.402   7.219  0.1660  0.2078  0.3720
33520W        W40120   8.045   1.568   5.611  0.1943 -0.0359 -0.1708
33521W        W40121  21.582   1.584  15.452  0.1940  0.0410 -0.2177
33522W        W40122   4.780   1.556   3.908 -0.0518  0.2376  0.1937
33523W        W40123  12.911   3.000   7.962  0.3490  0.1549 -0.0842
33524W        W40124   5.132   1.865  21.145 -0.1180 -0.0235  0.1975
33525W        W40125  12.495   2.948  24.755 -0.0547 -0.2068  0.0149
33526W        W40126  18.488   7.773  30.572  0.1231  0.2422 -0.1730
33527W        W40127   8.607   4.158  27.224  0.1184  0.0402 -0.1950
33528W        W40128   0.764   2.334  20.895 -0.1490  0.1230  0.0127
33529W        W40129   8.950   0.968  24.865 -0.1864  0.2661 -0.0833
33530W        W40130  10.404   0.423  16.116 -0.1476 -0.3286  0.0517
33531W        W40131  11.844   5.345   8.781 -0.2847  0.1215 -0.0713
33532W        W40132  20.843   4.642   1.542  0.0871  0.0416 -0.0576
33533W        W40133  14.533   0.096  21.244  0.1543 -0.0036  0.0771
33534W        W40134   8.898   0.106  15.747 -0.1364 -0.0224 -0.1506
33535W        W40135  19.776   2.034  11.892 -0.1388 -0.1446 -0.0922
33536W        W40136   9.337   1.723   3.309 -0.2805 -0.1867 -0.1405
33537W        W40137   1.439   4.305  25.758 -0.1383  0.0367  0.3529
33538W        W40138  13.876   3.370   5.438 -0.0497  0.2136 -0.0457
33539W        W40139  19.082   4.823  24.003  0.0571 -0.0511 -0.1820
33540W        W40140  14.223   6.146  20.706 -0.1136  0.1479  0.1402
33541W        W40141   8.631   6.361   5.677  0.0688 -0.1458 -0.0025
33542W        W40142   4.216   4.855  26.676 -0.1082  0.0986 -0.2530
33543W        W40143  13.716   4.891  25.941 -0.0361 -0.3652 -0.2139
33544W        W40144  20.019   7.128  26.859  0.0174  0.0771  0.0366
33545W        W40145   3.412   0.083   9.813  0.0171 -0.0513  0.0135
33546W        W40146  15.130   4.778  27.506 -0.0131 -0.0693  0.0776
33547W        W40147  25.095   3.038   5.534 -0.0331 -0.1239  0.0150
33548W        W40148  21.370   0.933  25.228  0.1320 -0.2849 -0.0808
33549W        W40149   0.144   1.865   5.153 -0.4136 -0.1317  0.0450
33550W        W40150   1.490   0.338   5.613  0.0467  0.0413 -0.0622
33551W        W40151   8.870   5.024  15.167  0.0133  0.3540 -0.0125
33552W        W40152  25.067   1.928  27.460 -0.0313  0.2080  0.1592
33553W        W40153  23.900   0.649  23.108  0.0356 -0.0520 -0.2230
33554W        W40154  12.549   1.376   5.359 -0.1139  0.2249  0.1173
33555W        W40155   9.201   6.070  30.604 -0.1680  0.0559  0.1022
33556W        W40156   5.914   1.871   8.185  0.0741 -0.1253 -0.1479
33557W        W40157   9.901   4.740  31.160  0.0855 -0.1459 -0.0382
33558W        W40158  11.977   1.141  21.471 -0.1291 -0.1396  0.1846
33559W        W40159  15.142   1.339  32.046 -0.1149  0.0093  0.1812
33560W        W40160   7.203   1.110  24.554 -0.3926 -0.1911 -0.1590
33561W        W40161  24.688   4.234   6.252  0.1534 -0.0517 -0.0441
33562W        W40162  22.541   0.056   4.247 -0.0999  0.2962  0.2172
33563W        W40163   6.875   0.494  23.896 -0.5353  0.2297  0.4043
33564W        W40164  14.124   7.456  28.079 -0.3718  0.0838 -0.0210
33565W        W40165  18.166   0.996  17.358  0.0905  0.0054  0.0176
33566W        W40166  12.570   1.235  31.557 -0.2513 -0.2170  0.2758
33567W        W40167   2.974   4.243  17.042 -0.2142 -0.1144 -0.0572
33568W        W40168  24.277   4.503  29.844  0.2892 -0.2447 -0.3066
33569W        W40169  12.761   2.328  10.717 -0.1925 -0.1648 -0.1372
33570W        W40170   6.189   5.072  18.932  0.0663  0.1972  0.1362
33571W        W40171  19.936   5.559  13.949  0.0124  0.3307 -0.0092
33572W        W40172  14.841   7.296  29.456 -0.0955  0.0394  0.2016
33573W        W40173   4.167   2.349   5.108 -0.0863  0.1876 -0.0460
33574W        W40174   0.243   4.436   3.815  0.0255  0.1342  0.1483
33575W        W40175   9.857   5.637   9.023  0.0902 -0.1458 -0.1694
33576W        W40176  19.375   7.472   8.204 -0.1437  0.0358  0.1884
33577W        W40177  19.042   0.698  10.319 -0.2219 -0.2700 -0.1453
33578W        W40178  14.598   2.823  25.604 -0.0225 -0.1107 -0.2145
33579W        W40179  13.497   5.766   4.686 -0.0444  0.0686  0.1135
33580W        W40180   0.089   1.479  31.022 -0.2140 -0.1259 -0.0664
33581W        W40181   0.524   4.198   8.791  0.1875 -0.0533 -0.1730
33582W        W40182  16.191   1.872  24.006  0.0184  0.0242 -0.1227
33583W        W40183   1.660   0.256  22.099 -0.1878  0.3483 -0.3754
33584W        W40184   9.948   4.041  18.835  0.0027  0.0265 -0.0578
33585W        W40185   9.649   4.144  29.236  0.0762 -0.0341 -0.1913
33586W        W40186   1.809   5.356  10.644  0.0997 -0.2065 -0.2575
33587W        W40187  16.790   6.998  32.328  0.3385  0.3986  0.1270
33588W        W40188  16.672   0.022   8.665  0.0368  0.0315  0.2605
33589W        W40189  23.131   7.098  30.992 -0.2061 -0.1357  0.0426
33590W        W40190  22.985   3.283  23.650  0.1049  0.3625 -0.4396
33591W        W40191  11.904   7.390  10.560 -0.0414 -0.3071 -0.0619
33592W        W40192  13.395   0.609  11.082  0.0181 -0.0023  0.1452
33593W        W40193   5.440   7.720   7.543 -0.2170 -0.4758 -0.0358
33594W        W40194  21.130   7.068  17.414 -0.2247 -0.0472 -0.0622
33595W        W40195   1.059   0.206   5.839  0.1000 -0.1468 -0.0820
33596W        W40196  16.501   4.891  32.068  0.2850 -0.0400 -0.0716
33597W        W40197   6.888   5.766  26.145 -0.1556  0.0254 -0.0352
33598W        W40198   5.452   0.188  18.932 -0.1993 -0.1637  0.2131
33599W        W40199  20.622   5.796  26.425  0.0800 -0.1624 -0.0945
33600W        W40200  17.018   2.880  30.808  0.0217  0.0823 -0.1370
33601W        W40201  14.943   4.589   4.009  0.1044  0.0205  0.0540
33602W        W40202   1.982   1.896   3.321 -0.1571  0.2239  0.0328
33603W        W40203  17.501   6.110   4.689  0.1081  0.2567 -0.1486
33604W        W40204   3.838   4.533  25.874 -0.1328 -0.0514 -0.3555
33605W        W40205  19.412   5.664  14.152 -0.0481  0.2379  0.3532
33606W        W40206   8.359   1.047   5.659  0.0243  0.0330  0.3206
33607W        W40207   4.326   0.914  17.634 -0.3669 -0.0403  0.2093
33608W        W40208   6.935   2.125   0.475  0.2754 -0.1012  0.2387
33609W        W40209   8.259   5.771  30.766 -0.2320 -0.1059  0.1055
33610W        W40210  11.760   0.586  28.757  0.2614  0.0426 -0.1791
33611W        W40211  24.329   6.276  29.120 -0.2195 -0.1471  0.1662
33612W        W40212  20.425   3.984  10.830  0.0281  0.1090  0.1739
33613W        W40213  20.329   3.826  26.081 -0.2354 -0.0154 -0.0697
33614W        W40214  11.515   6.357   5.127 -0.1909  0.1026 -0.2444
33615W        W40215   1.060   7.839  19.713  0.0928 -0.0320 -0.6424
33616W        W40216   9.434   3.568  26.677 -0.1671 -0.0796 -0.2811
33617W        W40217  21.536   5.224  23.831  0.2066  0.0720 -0.1798
33618W        W40218   7.351   6.381  30.788  0.0696 -0.2017  0.0860
33619W        W40219  22.583   0.393  30.861 -0.0385 -0.2946 -0.3013
33620W        W40220  14.258   7.837   9.040  0.2632 -0.0626 -0.2334
33621W        W40221  24.603   0.727  27.687 -0.0339  0.0374  0.1101
33622W        W40222  24.538   0.606   5.245 -0.0482 -0.4005  0.2794
33623W        W40223  17.307   7.339  27.003 -0.0034  0.0529  0.3918
33624W        W40224  15.617   4.198  29.312  0.2876 -0.2907  0.0516
33625W        W40225   7.217   5.713  23.322 -0.1205  0.2409 -0.2419
33626W        W40226  24.748   2.982  29.842  0.3839  0.1222 -0.1720
33627W        W40227  13.728   0.045  31.208  0.1325  0.1084 -0.3245
33628W        W40228  23.904   0.030  21.027  0.2015  0.0292  0.1505
33629W        W40229  25.111   7.017  25.590 -0.0187 -0.1561  0.0728
33630W        W40230   6.805   7.015  22.068  0.3079 -0.0874  0.5763
33631W        W40231  22.049   6.858  28.237  0.0322  0.0002  0.1801
33632W        W40232  16.316   0.931  28.930  0.2750  0.0190 -0.1865
33633W        W40233  12.017   3.556   4.037 -0.1978 -0.0237  0.2187
33634W        W40234   8.936   3.575  30.105 -0.3232 -0.0851  0.1759
33635W        W40235  24.344   2.573   2.427  0.4473 -0.3246  0.2097
33636W        W40236   2.685   4.576  11.557 -0.0283 -0.1039  0.0729
33637W        W40237   6.972   5.622   4.265 -0.2933 -0.0013  0.1364
33638W        W40238   4.472   5.852  24.316  0.3334  0.0385 -0.0579
33639W        W40239   3.355   7.752  27.519 -0.0956  0.0382 -0.0287
33640W        W40240   9.897   6.261   0.490  0.3986  0.2115  0.2180
33641W        W40241   4.386   7.375  26.180  0.0872  0.0286  0.1205
33642W        W40242  19.042   2.962   7.666  0.1023  0.1129 -0.0263
33643W        W40243   7.764   5.349  19.751 -0.3274 -0.0830  0.1913
33644W        W40244  23.532   2.661   9.300 -0.2661 -0.1232  0.1893
33645W        W40245  14.704   2.440  10.760 -0.4380 -0.0493  0.0757
33646W        W40246  12.654   4.757  21.657 -0.4877  0.3659 -0.0900
33647W        W40247  17.621   1.003   9.095 -0.1055  0.2629 -0.1428
33648W        W40248  15.958   4.968  24.697 -0.0023 -0.1728  0.1169
33649W        W40249  13.675   0.343   6.270  0.1914 -0.0150 -0.2193
33650W        W40250  12.623   4.633  25.126 -0.0381  0.0511  0.0497
33651W        W40251  24.222   6.361  24.246 -0.0491 -0.2207  0.0760
33652W        W40252  20.633   5.442  24.397  0.1738 -0.1898  0.2654
33653W        W40253  14.013   7.618  30.899 -0.0920 -0.0698  0.0826
33654W        W40254   1.213   6.369  18.298 -0.0850  0.2444  0.1548
33655W        W40255  14.708   3.064  22.276 -0.0636 -0.3922 -0.2192
33656W        W40256  21.095   7.690  10.311 -0.0786 -0.0019  0.0432
33657W        W40257   9.687   2.011  31.847  0.0394  0.1545 -0.0236
33658W        W40258  20.429   6.465  10.305 -0.2404 -0.1623  0.2692
33659W        W40259   3.552   1.477   1.265 -0.0487 -0.0864 -0.3798
33660W        W40260  18.622   7.303  17.861  0.2978  0.0592 -0.0483
33661W        W40261   8.061   3.448  24.841 -0.0140  0.0881  0.1708
33662W        W40262   5.555   3.013   6.565  0.0839  0.1711  0.1448
33663W        W40263   9.034   4.477   5.559  0.0243  0.3646 -0.1634
33664W        W40264  21.107   6.017  32.115  0.1934 -0.0746  0.2885
33665W        W40265  21.736   0.464   3.745  0.2143 -0.0700 -0.1853
33666W        W40266  20.095   7.136  13.370  0.0118  0.1483 -0.0488
33667W        W40267  22.144   0.369   1.929  0.1145  0.1123  0.2427
33668W        W40268  20.094   7.449   6.769 -0.1918 -0.1482 -0.0660
33669W        W40269   6.439   1.843   9.479 -0.2317  0.1211 -0.1224
33670W        W40270  15.884   2.579  15.911 -0.1879 -0.2384 -0.1302
33671W        W40271   3.745   7.360  32.075  0.0687 -0.1589  0.1172
33672W        W40272  15.405   2.719  11.088 -0.1855 -0.1403  0.0948
33673W        W40273   1.032   0.675   3.336  0.1949 -0.0950  0.2186
33674W        W40274  22.025   2.236  30.887 -0.0673  0.1606 -0.0939
33675W        W40275   3.207   1.937   2.643  0.0470  0.0352 -0.1129
33676W        W40276  24.773   4.834   5.611  0.0014 -0.0273  0.0497
33677W        W40277   3.684   3.167   7.271 -0.0451 -0.0691 -0.0063
33678W        W40278  12.497   0.715  26.062  0.3230  0.1836  0.0138
33679W        W40279   8.298   2.978  32.342  0.2516 -0.0273  0.1956
33680W        W40280   2.173   7.261   5.738  0.2533  0.2994 -0.2377
33681W        W40281  22.000   0.939  22.770  0.1832  0.2612 -0.3515
33682W        W40282   3.720   6.242   0.366  0.0950  0.1276 -0.0726
33683W        W40283   5.760   3.022   7.398  0.3853  0.1348 -0.0287
33684W        W40284   3.890   1.890  20.236  0.1302 -0.2411 -0.1524
33685W        W40285  11.984   5.021   4.775  0.0223  0.0854 -0.0760
33686W        W40286   0.254   3.912  20.621  0.0129 -0.0659 -0.0535
33687W        W40287   9.848   0.199   3.131 -0.1099  0.0248 -0.0917
33688W        W40288  19.576   1.476  10.031  0.1384  0.1365  0.1031
33689W        W40289   8.012   4.135  22.315 -0.0237  0.1466  0.1030
33690W        W40290  23.129   6.606  13.676  0.1964 -0.1069 -0.1503
33691W        W40291  12.477   0.013   9.620 -0.2271 -0.0466  0.1503
33692W        W40292   4.686   6.120  18.022 -0.2500  0.2856 -0.1088
33693W        W40293  22.091   2.340   1.180  0.1575 -0.1919  0.0184
33694W        W40294  20.188   0.982  17.070 -0.1412 -0.2893 -0.2419
33695W        W40295   6.034   7.375  21.716 -0.0266 -0.1678  0.0815
33696W        W40296   4.134   6.576  24.228 -0.0577  0.1225 -0.0273
33697W        W40297  16.299   6.221   9.087 -0.2150 -0.1074  0.0982
33698W        W40298  11.526   2.745  20.827  0.0728  0.1624 -0.1757
33699W        W40299  21.949   1.123   0.296  0.0168 -0.1146 -0.1489
33700W        W40300  17.964   7.598   1.563 -0.1940 -0.1218 -0.1713
33701W        W40301  11.828   5.501  24.453  0.0479  0.1156  0.1245
33702W        W40302  19.498   0.706  10.554  0.2147  0.0492 -0.1195
33703W        W40303   0.952   7.492  20.117  0.0229 -0.0733 -0.3868
33704W        W40304   8.374   1.796  29.384 -0.1044 -0.1043 -0.0663
33705W        W40305  23.365   6.914  26.912 -0.0018  0.0150 -0.0248
33706W        W40306   4.195   2.536  18.603  0.0981  0.0012 -0.1740
33707W        W40307   4.479   2.871  28.498 -0.1846  0.0874 -0.0874
33708W        W40308  16.878   0.512   8.527  0.2261  0.2459  0.0520
33709W        W40309   8.210   2.225  17.502 -0.3152 -0.3278 -0.0794
33710W        W40310   3.998   6.005  30.656  0.3543  0.0372  0.0283
33711W        W40311   3.490   1.688  29.434  0.0695 -0.0094 -0.0926
33712W        W40312  21.231   6.594   2.806 -0.0308 -0.0768 -0.0576
33713W        W40313   9.918   2.450   1.406  0.0285 -0.2452  0.0928
33714W        W40314  21.203   6.982   0.797 -0.1732  0.0475  0.1346
33715W        W40315  10.762   7.323  11.178 -0.1157  0.1143 -0.0767
33716W        W40316  19.426   3.330  29.420  0.2797  0.2176 -0.1141
33717W        W40317  15.323   0.633  22.482  0.2403 -0.0195 -0.1158
33718W        W40318  13.655   6.869  26.399  0.1451  0.0104 -0.0888
33719W        W40319  22.433   0.206   4.852 -0.0507 -0.1794 -0.1887
33720W        W40320  21.177   4.057  11.665 -0.2057  0.1152  0.0643
33721W        W40321   5.267   0.520   0.963 -0.1776  0.2017  0.0469
33722W        W40322   8.737   1.269  20.981 -0.2602  0.0402  0.2032
33723W        W40323   9.566   7.123  22.427 -0.1686  0.3149 -0.2697
33724W        W40324  15.902   7.580   9.930  0.1258  0.0179 -0.1284
33725W        W40325  24.745   0.638  26.044  0.0959 -0.0512  0.3456
33726W        W40326   4.330   1.306  29.668  0.0378 -0.0687  0.2482
33727W        W40327  23.540   4.784   7.601 -0.0695  0.0170 -0.2665
33728W        W40328  14.522   4.631  29.221 -0.2017 -0.0123 -0.4065
33729W        W40329  21.900   5.032  23.054  0.4083  0.1963  0.1538
33730W        W40330   5.015   4.184  24.983  0.0991 -0.0525  0.2678
33731W        W40331  14.771   2.064  31.565  0.1858 -0.0318 -0.0565
33732W        W40332   8.017   4.379  17.965  0.1929 -0.2287  0.0110
33733W        W40333  19.887   7.700   4.712  0.1479 -0.2681 -0.3348
33734W        W40334   8.602   2.584  29.899  0.0463 -0.1306 -0.1765
33735W        W40335   1.819   5.447  23.210 -0.1442 -0.1773  0.0550
33736W        W40336  16.297   4.225  14.543  0.1270  0.0808  0.0841
33737W        W40337   2.062   5.638  31.493  0.2489  0.5074  0.0312
33738W        W40338  14.479   1.809  10.383  0.0853 -0.0493 -0.0984
33739W        W40339   6.180   6.712  23.601  0.1729  0.2099  0.2000
33740W        W40340  21.302   1.012  12.576 -0.2375  0.0396 -0.0229
33741W        W40341   9.740   6.258  26.260 -0.0870  0.0307  0.0225
33742W        W40342  22.583   7.652  23.249 -0.1682  0.0908  0.4249
33743W        W40343  18.567   1.708   3.292 -0.0800 -0.1435 -0.1301
33744W        W40344  10.140   7.812   9.386  0.2558 -0.0169 -0.1910
33745W        W40345   3.136   0.772  27.925  0.2382  0.2063  0.0864
33746W        W40346   5.795   7.078   3.351 -0.3100  0.3161 -0.0908
33747W        W40347   6.313   5.023  16.807 -0.0163  0.1099 -0.2246
33748W        W40348  22.449   3.224  12.268 -0.2027  0.0718  0.2023
33749W        W40349  13.855   1.858  28.313  0.1834  0.1014 -0.0973
33750W        W40350  13.950   7.132  32.192 -0.1518  0.2428 -0.0665
33751W        W40351  14.625   6.328   7.867 -0.2489  0.0065 -0.0938
33752W        W40352   2.097   1.650  18.045  0.1453 -0.0500 -0.3047
33753W        W40353  19.971   2.478  13.594  0.0938 -0.0139 -0.4178
33754W        W40354  24.279   7.370  25.522 -0.2235  0.1467  0.0126
33755W        W40355   0.839   2.260   8.426 -0.0198  0.1067  0.0894
33756W        W40356  10.080   4.105  19.725 -0.1906  0.2285  0.1555
33757W        W40357  14.283   4.093  32.328 -0.0006  0.1853 -0.2024
33758W        W40358  19.277   6.646  17.635  0.1650  0.2082  0.1028
33759W        W40359   4.444   6.755  32.027  0.0865  0.1344 -0.0007
33760W        W40360  23.452   0.516  20.902  0.1625  0.0055  0.4069
33761W        W40361   9.049   7.421  27.448 -0.0394 -0.1617 -0.0968
33762W        W40362  13.290   1.790  29.018  0.1938  0.0749 -0.0700
33763W        W40363  21.322   5.659  24.960  0.3872  0.0904 -0.0543
33764W        W40364   2.098   7.398  30.492 -0.0565  0.1114 -0.1846
33765W        W40365  18.424   5.032   1.443  0.2287 -0.0452  0.1425
33766W        W40366   2.708   1.025   8.147 -0.1143 -0.0106 -0.2048
33767W        W40367   4.786   3.413  22.151 -0.0590 -0.1534  0.0960
33768W        W40368  23.612   2.772   8.334  0.0914  0.0861 -0.1719
33769W        W40369  21.799   4.905   7.056  0.0006  0.0281 -0.0285
33770W        W40370  13.840   3.110   7.183 -0.0050  0.0778 -0.2297
33771W        W40371  10.228   2.386   5.604 -0.0064 -0.0313 -0.0563
33772W        W40372  24.029   6.723  10.587  0.0685 -0.3234 -0.0707
33773W        W40373   5.380   2.047   8.167  0.1002 -0.0589 -0.3483
33774W        W40374  11.297   1.634   5.782  0.0094 -0.1232  0.2119
33775W        W40375   1.088   3.980   6.055  0.4522  0.1439  0.0737
33776W        W40376   6.262   3.270   3.339  0.0814  0.0806 -0.1358
33777W        W40377  19.197   4.835  30.288 -0.0528 -0.0976 -0.2460
33778W        W40378   5.975   4.473  29.463  0.0260 -0.2832  0.1044
33779W        W40379   5.861   0.817   6.625  0.1391  0.1816 -0.1074
33780W        W40380   0.390   4.342  25.950 -0.2024 -0.0672  0.1282
33781W        W40381   8.755   1.154   7.756 -0.0088  0.1786  0.0861
33782W        W40382   9.770   7.520   6.785 -0.1694 -0.0399 -0.1076
33783W        W40383  16.077   6.349  27.988  0.1582  0.1722 -0.3552
33784W        W40384  10.806   7.544  17.809 -0.3497  0.2128  0.0017
33785W        W40385   5.897   3.262  28.400 -0.0605  0.1485  0.0780
33786W        W40386  14.255   3.624  24.053  0.0040  0.1169 -0.0513
33787W        W40387  17.502   6.176   3.467  0.0210 -0.3565  0.0686
33788W        W40388  13.241   6.830   3.863  0.1767  0.4281  0.0399
33789W        W40389  24.474   3.570   8.395 -0.3987 -0.1046  0.1264
33790W        W40390   9.778   1.436   0.296  0.1346  0.0574  0.1055
33791W        W40391   0.318   7.321  32.249  0.0356 -0.0885 -0.3398
33792W        W40392  14.867   1.326  12.901 -0.0465  0.2645 -0.2357
33793W        W40393  12.036   5.618  11.665 -0.0380  0.2530 -0.0528
33794W        W40394  17.867   5.743   9.916 -0.1243  0.1669 -0.2857
33795W        W40395  22.364   4.134   0.815  0.1643  0.0021  0.3078
33796W        W40396   8.978   0.895   6.772  0.0556  0.0054 -0.0461
33797W        W40397  17.060   5.664  30.382  0.1758  0.0702  0.1679
33798W        W40398  14.107   3.500  27.953  0.2886 -0.0290  0.1444
33799W        W40399  17.106   3.036  29.804  0.1470 -0.1998  0.0401
33800W        W40400  19.727   6.753  26.546  0.3935 -0.0872  0.0119
33801W        W40401   8.460   2.417  29.104  0.0774  0.0459 -0.1865
33802W        W40402  21.962   0.244  13.011  0.0057 -0.0512  0.0066
33803W        W40403   0.049   1.067  30.689  0.2884  0.2328  0.0254
33804W        W40404   5.689   1.949   2.912  0.0481 -0.0041  0.1235
33805W        W40405  24.979   2.589   5.926 -0.0880  0.3070  0.0189
33806W        W40406  12.223   2.300  26.786  0.2622  0.0588 -0.1449
33807W        W40407   4.504   4.168   6.054  0.3697 -0.2841  0.1757
33808W        W40408  16.690   0.726  28.630  0.0214  0.1149  0.0342
33809W        W40409  15.453   6.208   8.685  0.0226 -0.0870  0.1126
33810W        W40410  15.600   7.684   4.170 -0.2284  0.1074 -0.0739
33811W        W40411   6.433   6.756   8.262  0.2894  0.1380 -0.2938
33812W        W40412   0.479   3.831   5.408 -0.0770 -0.2607 -0.0898
33813W        W40413  20.263   2.566  16.556  0.0283  0.1554 -0.2242
33814W        W40414   2.477   3.705  31.304 -0.0471 -0.0925 -0.2466
33815W        W40415  20.729   6.488   4.156  0.0291  0.1669 -0.0644
33816W        W40416  10.740   7.216  25.784 -0.1824  0.0254  0.0651
33817W        W40417  24.170   1.691  32.561 -0.3166 -0.1183  0.0044
33818W        W40418  12.005   1.065  28.264  0.0896  0.2613 -0.1335
33819W        W40419  20.242   3.038   3.174  0.0785  0.0191  0.2146
33820W        W40420  11.759   7.575   0.820  0.1208 -0.2069  0.0345
33821W        W40421  10.806   6.536   6.170 -0.0710 -0.2662  0.0086
33822W        W40422  12.529   2.015  12.812 -0.0270 -0.1207  0.0858
33823W        W40423   7.126   7.235  14.789  0.2625 -0.1921 -0.1388
33824W        W40424  20.506   5.790  27.061  0.0296  0.1829  0.1315
33825W        W40425   6.650   1.574  18.635 -0.1253 -0.1071 -0.3161
33826W        W40426  15.992   0.607  29.256 -0.1942 -0.3355 -0.1387
33827W        W40427  24.547   3.870  29.205 -0.2397 -0.2174  0.0198
33828W        W40428  20.118   3.079  32.263 -0.0979  0.0289 -0.0222
33829W        W40429  13.473   2.299   7.803  0.0798  0.0301  0.0406
33830W        W40430   6.893   1.643   0.258  0.2402  0.0850 -0.2653
33831W        W40431  11.134   6.932   1.273 -0.1954 -0.0699 -0.1095
33832W        W40432  10.799   4.854  29.966 -0.0091  0.1370 -0.0759
33833W        W40433  19.554   6.456  16.117 -0.0849 -0.3924 -0.0631
33834W        W40434  21.160   0.483   0.000  0.2767 -0.0337 -0.2355
33835W        W40435   5.413   4.018   0.713 -0.2298 -0.1727 -0.1017
33836W        W40436  21.634   5.833  11.618  0.0357  0.2757  0.1399
33837W        W40437  21.585   6.759  10.278  0.1515 -0.1115 -0.1796
33838W        W40438   3.412   1.073   8.713  0.0245  0.0667  0.0698
33839W        W40439  23.552   1.676  21.793  0.1593  0.0362 -0.0115
33840W        W40440   4.476   7.280   3.283 -0.2592  0.1641  0.1397
33841W        W40441  23.616   5.230   9.817  0.0945  0.3699  0.1232
33842W        W40442   4.760   2.924  22.502  0.1792  0.1502  0.1223
33843W        W40443  24.840   4.713  29.612  0.4004  0.3113 -0.0765
33844W        W40444  23.709   0.961   5.180 -0.0022 -0.0585  0.0878
33845W        W40445  14.149   2.972   4.166  0.1264 -0.0046  0.2663
33846W        W40446  23.230   5.176  26.462 -0.3600 -0.1337 -0.0797
33847W        W40447   7.472   4.521  24.441  0.1610  0.3079 -0.0063
33848W        W40448   7.584   4.161   0.229  0.0628 -0.1618 -0.0532
33849W        W40449   9.727   7.493   5.865 -0.1139 -0.0656 -0.0676
33850W        W40450   3.773   0.923   9.062 -0.0315  0.0440 -0.1813
33851W        W40451   3.012   7.349   9.120 -0.0453 -0.1198 -0.2733
33852W        W40452  11.139   3.309   3.431 -0.2352  0.0771  0.2744
33853W        W40453   4.059   1.916  27.880 -0.2377 -0.0009 -0.0366
33854W        W40454  13.471   3.537  30.974  0.2668  0.2633 -0.0628
33855W        W40455  20.986   1.538  22.679 -0.1497 -0.0413  0.1739
33856W        W40456  11.779   5.637  23.822 -0.5513  0.0234 -0.4544
33857W        W40457   9.355   6.778  18.969  0.1840  0.2324 -0.1297
33858W        W40458  22.490   2.596   6.576  0.2306 -0.1649 -0.1044
33859W        W40459   7.948   7.088  20.956  0.0525  0.0997  0.1031
33860W        W40460   6.295   7.793   0.366 -0.5171 -0.2039  0.1160
33861W        W40461   6.854   7.063  29.874 -0.0053  0.3294 -0.3194
33862W        W40462  16.602   5.896  16.417  0.2895 -0.1745 -0.1104
33863W        W40463  22.381   6.961  30.481  0.0399 -0.0514  0.2409
33864W        W40464  18.018   6.045   6.520 -0.1443  0.1276 -0.1180
33865W        W40465  18.551   4.890   5.261  0.3325  0.0513 -0.2210
33866W        W40466   1.990   4.249  30.368  0.2771 -0.0672 -0.3396
33867W        W40467  21.846   0.618  16.092 -0.0288  0.2042 -0.0887
33868W        W40468  10.232   7.187  24.367  0.0251 -0.0080  0.0936
33869W        W40469  12.169   1.613  24.030  0.0317 -0.2807  0.1437
33870W        W40470  16.241   6.013   3.415  0.2903  0.1702  0.1819
33871W        W40471  22.213   2.337  15.665 -0.0085  0.0707 -0.2122
33872W        W40472   0.771   1.858  21.924 -0.0123  0.0686  0.2437
33873W        W40473  18.057   1.724  24.806  0.1367 -0.1138 -0.2085
33874W        W40474  17.636   7.085   1.732 -0.2802  0.0843  0.0348
33875W        W40475  16.409   7.639  13.653  0.2172  0.2675  0.0912
33876W        W40476  14.535   4.008  14.646  0.1252  0.1491  0.0582
33877W        W40477   8.878   1.554   8.133 -0.0393 -0.3534  0.1428
33878W        W40478  17.856   7.241  12.369  0.0261 -0.1872 -0.1937
33879W        W40479  20.750   1.501   2.812 -0.0639  0.0523 -0.3162
33880W        W40480  18.762   2.572   8.649 -0.3678  0.0738  0.1243
33881W        W40481   4.632   2.816  19.514 -0.1344 -0.0407 -0.0265
33882W        W40482   6.374   7.426  15.392 -0.1776 -0.1060 -0.1809
33883W        W40483  24.106   0.599   5.559  0.1074  0.0280  0.0717
33884W        W40484  10.164   2.981  28.548 -0.1746 -0.0542 -0.1682
33885W        W40485  24.364   7.457   5.908  0.1219 -0.0320  0.1299
33886W        W40486  12.184   6.969   8.240 -0.2429  0.0597  0.0715
33887W        W40487  13.534   2.507   2.188 -0.1324  0.0331 -0.0562
33888W        W40488  13.165   6.188   1.687 -0.2475 -0.1444  0.0534
33889W        W40489  14.122   6.555  24.365 -0.1798 -0.1244 -0.0074
33890W        W40490  20.587   1.366   0.128  0.0244 -0.0884  0.2286
33891W        W40491   3.328   3.224  19.164 -0.0373  0.0975 -0.4554
33892W        W40492  11.929   0.080   0.500 -0.1996  0.4259  0.0718
33893W        W40493  18.098   2.234  30.187  0.0263 -0.1059 -0.3355
33894W        W40494  15.549   6.328  22.210  0.0078 -0.2448  0.1834
33895W        W40495   6.865   7.495  16.987  0.1378 -0.1353 -0.0442
33896W        W40496  17.669   6.452  14.982 -0.1741  0.1597  0.0140
33897W        W40497  19.191   2.388   2.193 -0.1511  0.5278  0.1333
33898W        W40498  22.424   1.551   0.045 -0.0326 -0.0965  0.1782
33899W        W40499  16.917   0.021  30.194  0.1121  0.0397  0.4876
33900W        W40500  21.088   5.453  30.339 -0.1020  0.0541 -0.2240
33901W        W40501  13.303   5.923   8.736  0.0193  0.2125  0.0905
33902W        W40502  14.226   3.087  31.200  0.1136  0.2265  0.0140
33903W        W40503  11.777   0.863  29.811 -0.1976 -0.0300  0.3104
33904W        W40504  11.438   6.408  32.118  0.0481 -0.1936  0.2346
33905W        W40505  14.961   3.069  14.569  0.0591 -0.1784 -0.0255
33906W        W40506   6.694   5.882  23.247  0.0155  0.3423  0.0329
33907W        W40507  16.807   2.549   2.838  0.0113  0.0727  0.1262
33908W        W40508   5.364   7.144  24.826 -0.2967 -0.2169  0.1296
33909W        W40509   8.283   6.289   4.312 -0.1281  0.0958 -0.0937
33910W        W40510  23.177   2.815   1.976 -0.1116 -0.4164  0.0669
33911W        W40511  11.527   2.374  25.577  0.2820 -0.4552  0.2940
33912W        W40512  15.812   5.100  30.339 -0.1570 -0.1833 -0.4593
33913W        W40513   5.212   3.301   4.307  0.1283 -0.3560 -0.3550
33914W        W40514  15.670   3.616   9.232 -0.0386  0.2420  0.1428
33915W        W40515   3.065   0.238   4.429 -0.0218  0.1004 -0.2101
33916W        W40516   4.683   3.379   0.633 -0.0415 -0.0375  0.0999
33917W        W40517  10.516   3.983  17.154  0.3492  0.0493 -0.1499
33918W        W40518  23.733   6.994  28.760 -0.0066  0.0790 -0.0779
33919W        W40519   5.962   0.198   3.385 -0.2186  0.1221 -0.2862
33920W        W40520   4.955   3.043  24.832 -0.0817 -0.1816 -0.0970
33921W        W40521   1.077   5.550  20.372 -0.0149 -0.1908 -0.4004
33922W        W40522  18.831   3.869   0.289 -0.0694  0.0260 -0.0377
33923W        W40523   3.510   1.468  29.026 -0.1667 -0.0462  0.1273
33924W        W40524  17.744   3.409   3.024 -0.1039  0.3026  0.1114
33925W        W40525  19.453   7.837  11.794  0.1031  0.0185 -0.1286
33926W        W40526  23.254   2.499  10.213  0.1305 -0.3457  0.1557
33927W        W40527   5.640   7.284  31.299 -0.0943  0.1131  0.1869
33928W        W40528   7.304   0.762   0.420  0.1443 -0.4743  0.0952
33929W        W40529  23.882   6.105  27.894 -0.1499 -0.1254  0.2365
33930W        W40530   4.317   0.116   2.174 -0.0946  0.1419  0.3730
33931W        W40531   5.699   0.007   4.262 -0.1353 -0.1320 -0.1967
33932W        W40532  16.530   5.424  31.941  0.1121  0.0007  0.2388
33933W        W40533  14.929   3.002   3.782 -0.1142 -0.0467  0.1345
33934W        W40534   2.574   6.164  30.317  0.1282  0.0415  0.1750
33935W        W40535  15.582   4.047  16.083  0.0134 -0.0472 -0.2745
33936W        W40536  21.527   3.746   0.597  0.0942  0.1276 -0.2330
33937W        W40537  12.156   5.805   4.484 -0.0951 -0.1181  0.0773
33938W        W40538  21.666   3.944  21.746 -0.2932  0.1427  0.0060
33939W        W40539  19.427   4.534  15.928  0.1221  0.4012 -0.1526
33940W        W40540   3.441   1.042   1.051 -0.1271  0.2496  0.0574
33941W        W40541  19.158   0.927  25.416 -0.0993  0.1325 -0.3261
33942W        W40542   2.135   2.941  19.560 -0.0589 -0.2028  0.2558
33943W        W40543   1.222   2.942  32.046  0.2330  0.0338 -0.3844
33944W        W40544   3.051   5.887   6.327  0.2116 -0.1347 -0.1132
33945W        W40545   8.788   5.496  29.474 -0.2595 -0.1950 -0.1777
33946W        W40546   1.044   0.968   1.618  0.0313 -0.0957  0.0222
33947W        W40547  19.841   0.936   5.434  0.1451 -0.0234  0.0917
33948W        W40548  16.171   1.245   6.380 -0.3266 -0.1876 -0.1347
33949W        W40549  24.837   4.214   3.069  0.1292 -0.0372 -0.0730
33950W        W40550   9.149   2.370  26.658  0.0282  0.0125 -0.0305
33951W        W40551  13.771   3.624  14.196  0.2817 -0.1376  0.2164
33952W        W40552   7.919   0.619  25.168  0.0433 -0.0210 -0.4381
33953W        W40553   9.908   3.428  23.171 -0.0780  0.0814  0.1555
33954W        W40554   5.491   5.725   1.034  0.2810 -0.0249 -0.1076
33955W        W40555   8.800   6.374  30.555 -0.0325  0.1022  0.0687
33956W        W40556  16.680   6.585   9.184 -0.0890  0.1341 -0.2980
33957W        W40557  10.554   6.916   6.407  0.2540  0.1471 -0.3126
33958W        W40558  12.551   5.053  18.448 -0.1804 -0.1593 -0.1467
33959W        W40559   5.165   3.831  10.981 -0.0909  0.0731 -0.0741
33960W        W40560  24.132   5.818   6.405 -0.0301  0.0676  0.1074
33961W        W40561  17.420   3.918  29.467 -0.0443  0.1891 -0.1315
33962W        W40562   6.156   2.291   2.700 -0.1362  0.2164 -0.1631
33963W        W40563   1.836   3.755  19.938  0.0784 -0.2406  0.1232
33964W        W40564   5.395   3.203  16.664 -0.1543 -0.1803  0.1442
33965W        W40565   6.088   0.423  20.561  0.1191 -0.0655  0.1294
33966W        W40566  20.709   6.175  15.990  0.0510 -0.1494  0.0591
33967W        W40567  24.570   1.239  10.738 -0.2071  0.0378 -0.3335
33968W        W40568  17.194   1.524  15.844  0.4336  0.2329  0.2506
33969W        W40569  10.955   1.437   8.117  0.1454  0.1655 -0.0786
33970W        W40570  19.970   6.880  22.160 -0.1900 -0.0178  0.2328
33971W        W40571   1.648   1.027  11.467 -0.1615 -0.3036 -0.0231
33972W        W40572   8.395   5.550   7.236  0.0616  0.2187 -0.0181
33973W        W40573  11.549   0.620   4.398 -0.1162  0.2412 -0.2516
33974W        W40574  11.968   2.997  31.009  0.1787 -0.1459 -0.1588
33975W        W40575   7.620   6.197   2.079 -0.0724 -0.1143 -0.2312
33976W        W40576   0.402   3.825   3.215 -0.0794 -0.2634  0.0126
33977W        W40577   1.070   5.405   0.231 -0.0777 -0.0416 -0.0359
33978W        W40578   6.307   1.889  29.090 -0.6042  0.1558 -0.2748
33979W        W40579  18.089   3.393  27.942 -0.1504  0.4220  0.0573
33980W        W40580   4.137   5.419  18.553 -0.2379 -0.1201 -0.1389
33981W        W40581  19.217   7.047   8.698  0.2828  0.0830  0.0178
33982W        W40582  22.827   7.631  12.888 -0.0485  0.1165 -0.0106
33983W        W40583   0.644   7.817  24.272 -0.5524  0.0217 -0.0320
33984W        W40584  23.447   5.346  31.303 -0.1826 -0.0329 -0.0555
33985W        W40585  14.616   1.710  29.255 -0.1152 -0.1610 -0.1122
33986W        W40586   3.802   2.898  21.604 -0.0196  0.0058  0.0798
33987W        W40587   9.839   2.255   7.116 -0.2129 -0.2895 -0.1963
33988W        W40588  20.468   0.546   6.463  0.1009  0.0470  0.0651
33989W        W40589  13.357   4.077  11.116 -0.0554  0.2243  0.2756
33990W        W40590  21.390   5.052   0.265 -0.0009  0.2405  0.1283
33991W        W40591   0.135   3.474  12.450  0.1660  0.1051  0.3432
33992W        W40592  16.919   0.493   5.897  0.1134  0.1007  0.1176
33993W        W40593  17.393   4.223  27.409  0.0463  0.1548 -0.1950
33994W        W40594  11.557   4.649  30.085 -0.0118 -0.1598  0.2775
33995W        W40595   2.003   7.720  19.376 -0.0113  0.1409  0.0281
33996W        W40596  20.726   6.928  22.674  0.0057  0.1138  0.0534
33997W        W40597  18.402   7.553  11.027 -0.1912  0.2502 -0.1335
33998W        W40598   4.536   4.825   9.161 -0.0363 -0.0896 -0.1252
33999W        W40599   2.238   3.454  32.301 -0.0941 -0.1243 -0.1594
34000W        W40600  17.556   5.896  30.991 -0.4225 -0.0773  0.3876
34001W        W40601  17.410   1.491  25.798  0.2194  0.0962 -0.1095
34002W        W40602  24.059   5.691   2.959  0.5104  0.1972  0.1471
34003W        W40603  18.371   0.189  22.627  0.2380  0.0808 -0.3249
34004W        W40604  10.716   5.091   6.741  0.0481  0.0324 -0.0053
34005W        W40605   3.108   5.511   8.357 -0.1054  0.2185  0.0665
34006W        W40606  21.976   4.383  31.001  0.2922  0.2644 -0.1367
34007W        W40607  11.944   5.302   6.006 -0.0376  0.1093 -0.3433
34008W        W40608   0.840   7.072  12.216  0.2022 -0.0471  0.0909
34009W        W40609  18.574   6.338  25.919  0.0026 -0.1700 -0.1716
34010W        W40610  13.296   6.363   2.590 -0.1603 -0.1170  0.0805
34011W        W40611   8.501   2.665  19.243  0.0165 -0.2043  0.0537
34012W        W40612   4.454   2.320   2.752 -0.0742  0.1338  0.1276
34013W        W40613  22.960   4.034  15.122 -0.3043 -0.2952  0.3516
34014W        W40614  15.922   6.961  25.805  0.3013 -0.0746  0.0946
34015W        W40615  23.643   7.845  31.384 -0.2586 -0.1188 -0.1494
34016W        W40616   3.548   2.122  19.887  0.0408  0.0939 -0.3261
34017W        W40617  22.106   1.875  11.888 -0.2201  0.0677  0.1363
34018W        W40618  17.633   5.005  10.151 -0.2529  0.2773  0.0253
34019W        W40619  10.725   3.356  26.588 -0.3827  0.0650  0.2699
34020W        W40620  19.759   6.067   0.259 -0.2082  0.2806 -0.0605
34021W        W40621   9.244   6.552   4.321 -0.2212 -0.2087  0.1441
34022W        W40622   3.427   4.135   8.102 -0.2629 -0.1631 -0.2458
34023W        W40623  23.831   7.722   3.221  0.0052 -0.0319  0.1935
34024W        W40624  10.982   4.665  21.319 -0.2559 -0.0384  0.0814
34025W        W40625  24.860   0.948   5.079 -0.1091 -0.1642  0.2512
34026W        W40626  18.597   2.931  13.100 -0.1369 -0.0743  0.0112
34027W        W40627   5.919   1.783  30.638  0.3025 -0.0014  0.3847
34028W        W40628  19.377   2.954  16.582  0.2533  0.0833 -0.1932
34029W        W40629   0.416   1.281  10.413  0.2931 -0.0542 -0.0201
34030W        W40630  12.527   4.878  25.588  0.1242 -0.1336 -0.4484
34031W        W40631  15.225   3.192  15.542  0.0164  0.3371 -0.2783
34032W        W40632   0.048   1.442  22.168 -0.1383 -0.0175 -0.0068
34033W        W40633   1.025   7.492  10.580  0.3443 -0.1222  0.1990
34034W        W40634   8.601   5.786  17.261 -0.0452 -0.2785 -0.0734
34035W        W40635   9.805   2.391  10.196 -0.3401 -0.1106 -0.0310
34036W        W40636  18.724   7.030   4.353 -0.0520  0.0355 -0.0064
34037W        W40637  21.066   4.032  22.114 -0.3174  0.1303  0.1396
34038W        W40638  23.819   1.926  23.619  0.1830 -0.1985 -0.5347
34039W        W40639   6.615   1.549   2.719 -0.3197 -0.1242  0.0725
34040W        W40640  14.553   2.331  13.505  0.1189  0.0309 -0.2326
34041W        W40641  21.813   3.396  28.417 -0.1199 -0.1524  0.1500
34042W        W40642   6.024   7.790  10.083 -0.0323  0.0795 -0.0155
34043W        W40643  17.141   7.304  24.386  0.0826 -0.0792 -0.2139
34044W        W40644   6.723   5.389  21.720 -0.0547 -0.0519  0.0347
34045W        W40645  12.067   3.666  26.323 -0.0266  0.1732 -0.2137
34046W        W40646  20.286   2.002  25.516 -0.1051 -0.1680 -0.0127
34047W        W40647  24.137   0.116  23.406  0.1432 -0.0052 -0.0106
34048W        W40648   5.903   0.614  25.799 -0.3244  0.1738  0.2036
34049W        W40649  15.727   6.483  29.628 -0.0135 -0.2825 -0.0173
34050W        W40650   1.855   2.759  18.553 -0.0270  0.2833 -0.1156
34051W        W40651   8.681   2.472   2.314 -0.0234  0.0419  0.0122
34052W        W40652  14.760   0.270  22.849  0.1725  0.0499  0.2972
34053W        W40653   0.621   3.390   0.626 -0.1283 -0.2067 -0.1612
34054W        W40654   7.698   4.690  15.400  0.1113  0.2344  0.1492
34055W        W40655   6.020   1.669  17.546 -0.1832 -0.0364  0.1970
34056W        W40656   7.967   5.107   3.700 -0.2191  0.0106 -0.0181
34057W        W40657  11.745   0.682   1.521  0.2108  0.1277  0.0208
34058W        W40658  14.792   4.445  26.762 -0.1603  0.1264 -0.2356
34059W        W40659  15.499   0.135   4.576 -0.1216  0.3471 -0.0675
34060W        W40660   3.062   6.758  32.383 -0.2104  0.0531 -0.0278
34061W        W40661   0.145   0.688   6.717  0.1025  0.1415  0.2941
34062W        W40662  19.298   4.430   0.532  0.2068 -0.1509 -0.2106
34063W        W40663   8.612   4.072  23.159 -0.0012  0.2150 -0.3038
34064W        W40664  15.046   0.027  14.799 -0.0604 -0.1407  0.2045
34065W        W40665   0.948   2.738  28.023 -0.1085  0.0199  0.1975
34066W        W40666   6.945   5.726   1.837  0.1213  0.1314  0.0029
34067W        W40667   9.252   5.570  24.945 -0.4174 -0.0931 -0.1595
34068W        W40668  25.150   3.545   6.131  0.1173  0.0525  0.1560
34069W        W40669   5.275   4.237  16.479  0.1676  0.1966  0.3317
34070W        W40670   7.108   7.256   6.447  0.0817 -0.0781  0.2219
34071W        W40671   9.253   2.795   6.891 -0.1212  0.1566  0.0553
34072W        W40672  15.466   5.926  26.690 -0.2314 -0.1639 -0.1095
34073W        W40673  15.144   4.580  15.099  0.2046  0.0204  0.2140
34074W        W40674  11.785   1.112  24.981  0.0245  0.0051  0.3166
34075W        W40675   5.608   6.614  27.194 -0.1680  0.2099 -0.1280
34076W        W40676   3.745   7.490  17.301  0.3028 -0.2109  0.0801
34077W        W40677  15.592   7.094  28.694 -0.0750  0.0593  0.1494
34078W        W40678  22.393   2.325   4.729  0.1385 -0.2014 -0.0745
34079W        W40679  14.736   4.818  27.186  0.0744 -0.0503  0.0294
34080W        W40680   4.937   6.474   9.773 -0.1583 -0.2212 -0.0088
34081W        W40681   3.139   6.133  23.423  0.0387 -0.1786  0.0109
34082W        W40682   4.222   1.837  14.888  0.0191 -0.0625 -0.1251
34083W        W40683  13.317   1.639   2.245 -0.1828  0.0845  0.2891
34084W        W40684  13.317   1.281   9.626  0.0198 -0.1041  0.1170
34085W        W40685   6.928   3.882  27.879  0.0259  0.0660  0.0187
34086W        W40686  20.911   1.590  15.995  0.0975 -0.1547 -0.0371
34087W        W40687   7.245   5.683  15.863  0.0832  0.1378  0.3277
34088W        W40688  13.270   2.662  27.540 -0.0528  0.0533 -0.0925
34089W        W40689  18.892   6.686  25.543 -0.0121  0.4028  0.0279
34090W        W40690  12.524   1.805   9.715  0.0783  0.1358 -0.0609
34091W        W40691  19.669   0.020  24.832  0.0661  0.0414 -0.0725
34092W        W40692   0.651   2.807   1.318  0.0941  0.3753 -0.2459
34093W        W40693  13.677   5.273  28.635 -0.2827  0.0357 -0.1187
34094W        W40694   7.758   0.243   2.186 -0.1564  0.1511  0.2048
34095W        W40695   0.956   2.388   1.186  0.0002  0.4353 -0.2264
34096W        W40696   9.397   4.400  24.212  0.0496  0.0256 -0.0822
34097W        W40697   7.643   7.094   6.658 -0.1837  0.2360  0.0733
34098W        W40698   0.124   0.895   5.393  0.0519 -0.2139  0.0410
34099W        W40699  10.262   7.049  23.761 -0.0784  0.2025 -0.1429
34100W        W40700   4.270   7.472  16.452  0.1083  0.1771 -0.2848
34101W        W40701   7.600   2.808  27.192 -0.0945 -0.0228 -0.2772
34102W        W40702  11.059   3.315   5.833 -0.0649  0.0622  0.2221
34103W        W40703  18.700   3.055  31.806  0.0993  0.0554 -0.2404
34104W        W40704  23.866   6.895   0.856  0.0336 -0.1330 -0.0299
34105W        W40705   6.839   5.033  29.427 -0.0526 -0.2384 -0.1247
34106W        W40706  24.771   1.540  32.403 -0.1275 -0.1794 -0.0752
34107W        W40707   4.370   1.267   6.821 -0.1421 -0.2974 -0.0292
34108W        W40708  12.975   0.878  21.209 -0.0922  0.3343  0.0270
34109W        W40709  14.687   3.701   0.517  0.2126 -0.0252  0.1214
34110W        W40710  15.532   2.784  31.784 -0.0083  0.0034  0.0131
34111W        W40711  15.636   5.210   8.642 -0.0616 -0.0981  0.0970
34112W        W40712  12.843   7.290   4.654 -0.1121  0.1022  0.0972
34113W        W40713  12.259   7.193  10.885  0.2220 -0.0594  0.0162
34114W        W40714  16.668   2.611   2.189  0.0036  0.3668 -0.1096
34115W        W40715  12.693   0.966  25.662  0.1161 -0.1370 -0.1738
34116W        W40716  11.872   7.451  32.479  0.0384  0.1360  0.2327
34117W        W40717  22.773   6.979   0.876  0.0018 -0.0453 -0.2373
34118W        W40718  20.922   4.662   4.151 -0.1006 -0.2448 -0.1537
34119W        W40719  18.264   4.708   9.624  0.0661 -0.0127  0.2320
34120W        W40720   9.908   6.746   9.820  0.1397  0.3182 -0.2564
34121W        W40721  20.861   2.608  15.575 -0.3649 -0.0600 -0.1991
34122W        W40722  17.313   0.571  23.438  0.1595 -0.2255  0.0122
34123W        W40723  10.276   0.801   6.484 -0.0275  0.2267 -0.0114
34124W        W40724   7.505   2.297   5.888 -0.0903 -0.0238 -0.1176
34125W        W40725  19.703   0.749   3.051 -0.4752  0.0420 -0.1760
34126W        W40726  12.508   2.086  26.412  0.2887 -0.1733 -0.3232
34127W        W40727   4.475   4.656  21.586  0.1534  0.2219  0.1231
34128W        W40728  20.420   7.173   1.332  0.1279  0.0443  0.0517
34129W        W40729   9.703   1.140  26.514 -0.0946  0.1645  0.0848
34130W        W40730  20.576   0.121  25.946  0.1636  0.0535 -0.0595
34131W        W40731  19.470   0.558  14.124  0.1111 -0.0540 -0.3374
34132W        W40732  20.008   0.512  14.060 -0.1805  0.1599 -0.0346
34133W        W40733   5.827   2.924  16.822  0.1974 -0.0240  0.2400
34134W        W40734  18.112   0.596  27.884  0.2259 -0.2991  0.2151
34135W        W40735   9.397   6.430   6.863 -0.0320 -0.1052 -0.1530
34136W        W40736   0.945   4.845   1.037  0.2922 -0.0087  0.2720
34137W        W40737  23.953   4.221  23.043 -0.2636 -0.0516 -0.0611
34138W        W40738  14.387   7.045   1.826 -0.1924  0.0121 -0.0037
34139W        W40739   3.688   1.634  31.990  0.0618 -0.1019  0.0976
34140W        W40740  13.961   3.917  28.243 -0.1224 -0.3207  0.4334
34141W        W40741  12.183   4.475  25.246  0.3097 -0.1894 -0.0010
34142W        W40742  13.046   5.661  11.045 -0.2124 -0.1378 -0.2400
34143W        W40743  14.186   7.397   4.298 -0.0419  0.1512 -0.1050
34144W        W40744   6.812   0.923  30.067 -0.0743  0.2856 -0.0115
34145W        W40745  11.693   7.137   8.447 -0.0720 -0.1658 -0.2666
34146W        W40746   4.462   6.789  31.229 -0.1930 -0.2424 -0.1596
34147W        W40747   4.769   1.950  25.292 -0.3333 -0.0961 -0.0941
34148W        W40748  23.195   7.780  21.714 -0.1658 -0.0798 -0.3169
34149W        W40749   3.266   2.161   9.895  0.1250  0.1834 -0.0297
34150W        W40750  12.118   2.593   3.511  0.0740 -0.1416  0.2846
34151W        W40751  12.686   4.619   1.610 -0.0189  0.0090  0.2067
34152W        W40752   7.593   5.243   6.908 -0.1120  0.1144  0.0531
34153W        W40753   8.505   7.028  19.409 -0.1167 -0.2772 -0.0107
34154W        W40754  23.264   2.030  12.345 -0.0026 -0.0108  0.2619
34155W        W40755   4.337   7.131   6.837 -0.6455  0.0539 -0.1200
34156W        W40756  17.355   3.973   4.107 -0.0560 -0.1964  0.1187
34157W        W40757  19.210   6.993  28.708 -0.0553 -0.0240 -0.0385
34158W        W40758  11.275   7.646   4.417  0.1235  0.0782 -0.2770
34159W        W40759  20.569   3.703   2.358 -0.0887  0.0149  0.0558
34160W        W40760   6.985   3.171   8.184  0.2597 -0.0416  0.1808
34161W        W40761   0.578   2.998  28.823 -0.0621  0.2211 -0.1006
34162W        W40762  13.598   7.249   2.415  0.0177  0.1267 -0.0361
34163W        W40763   4.759   3.729  16.707 -0.0620  0.0683 -0.2754
34164W        W40764  14.255   5.681  22.241 -0.0097  0.4180  0.1115
34165W        W40765  14.985   4.076  11.561  0.2674  0.0260 -0.2015
34166W        W40766  17.362   1.736   0.930  0.1176 -0.2175 -0.1710
34167W        W40767   9.910   3.884  25.064  0.0018  0.0257 -0.1027
34168W        W40768   2.580   2.487   3.033 -0.1697 -0.0047  0.2956
34169W        W40769  17.709   2.662   3.859  0.0839 -0.0727  0.0840
34170W        W40770  10.634   7.550  10.684  0.1055  0.0733  0.2848
34171W        W40771  16.350   3.902  10.413  0.2438 -0.0257 -0.1528
34172W        W40772   4.591   2.706  24.240  0.0601  0.2096  0.1213
34173W        W40773   7.621   4.613  30.207  0.0466  0.0421  0.0491
34174W        W40774  15.154   1.646   5.699  0.2222 -0.2056  0.0733
34175W        W40775   1.500   6.878  18.212 -0.0184  0.1683 -0.3112
34176W        W40776   3.868   1.261   3.077  0.2118 -0.3256  0.0464
34177W        W40777   7.105   1.199   1.389 -0.0948 -0.1184 -0.5235
34178W        W40778  19.824   0.510  13.004  0.2517 -0.1295  0.0476
34179W        W40779   6.333   7.179  23.067 -0.3860  0.2874  0.1387
34180W        W40780   6.397   7.743   3.446  0.4400 -0.0245 -0.2568
34181W        W40781  10.705   2.425  20.147  0.0913  0.0955 -0.1355
34182W        W40782  23.368   0.361  10.005  0.0223  0.0934 -0.1303
34183W        W40783  18.143   1.084  27.728  0.4978 -0.0209  0.0403
34184W        W40784  16.326   7.417  17.138  0.0778  0.1530  0.1990
34185W        W40785  10.361   6.603  27.056 -0.1302  0.0233  0.2517
34186W        W40786   1.207   2.573   2.244  0.3308  0.1847 -0.1342
34187W        W40787  15.670   4.726   4.862  0.0421  0.3566 -0.1382
34188W        W40788   2.329   0.312   6.979  0.2031 -0.0566  0.3662
34189W        W40789  18.578   4.212  32.038  0.1264 -0.0784 -0.1128
34190W        W40790  22.047   2.724  27.675  0.0914  0.0072 -0.0821
34191W        W40791   4.506   4.468   6.486  0.0761  0.1170  0.2348
34192W        W40792  21.337   6.310  10.197  0.0199  0.3072  0.2981
34193W        W40793  21.910   6.404   9.140 -0.0338  0.0947 -0.0136
34194W        W40794  22.619   7.837   9.607 -0.2365 -0.0895 -0.1809
34195W        W40795  19.344   1.874  12.023  0.0379 -0.2621  0.0621
34196W        W40796  14.652   4.024   1.326  0.0091 -0.1973 -0.0550
34197W        W40797  13.373   0.052   2.672  0.4137 -0.2039  0.1208
34198W        W40798  14.813   2.026  32.533  0.2538 -0.0127 -0.1930
34199W        W40799  15.524   4.215   5.592  0.1123  0.2843  0.1267
34200W        W40800  13.190   3.947   9.426 -0.1769  0.5260 -0.0176
34201W        W40801   7.284   1.561  13.462  0.0105 -0.0411 -0.1173
34202W        W40802  24.825   1.678  13.373 -0.1080 -0.1115  0.3325
34203W        W40803  14.916   5.018  24.984  0.2135  0.1570 -0.4619
34204W        W40804  18.055   3.681  10.136 -0.0140 -0.1118 -0.1486
34205W        W40805  16.491   5.291   6.163  0.3192  0.0576 -0.1823
34206W        W40806   4.166   7.025  20.566  0.0180  0.0140 -0.4171
34207W        W40807   1.459   5.806  11.282  0.0729  0.2470  0.2515
34208W        W40808  16.157   3.638   0.461 -0.2629  0.1963 -0.0885
34209W        W40809   2.577   4.748  27.392 -0.3108 -0.1055 -0.2494
34210W        W40810   7.226   1.363   7.673  0.1249  0.1417  0.0223
34211W        W40811  13.778   0.012  28.196  0.0737 -0.0338  0.0246
34212W        W40812  13.894   1.137  12.846  0.0788  0.1728  0.1757
34213W        W40813  22.812   3.536  29.412  0.3830 -0.1068  0.0768
34214W        W40814   5.883   7.620  22.736 -0.0196 -0.1832 -0.0798
34215W        W40815  10.125   3.346   1.527 -0.2530 -0.0669  0.1904
34216W        W40816  23.877   5.406  28.806  0.0523  0.0398 -0.2450
34217W        W40817   2.603   2.539   9.065  0.1222  0.1558 -0.1420
34218W        W40818  11.923   6.908   5.465 -0.1120  0.0372  0.3149
34219W        W40819  24.836   5.163  30.435 -0.1633 -0.3903  0.0563
34220W        W40820  12.459   4.086  12.712 -0.1478 -0.2787 -0.1005
34221W        W40821   6.609   0.422  17.026 -0.1900  0.3086 -0.1473
34222W        W40822   2.709   3.883  31.692 -0.1452 -0.0790  0.2857
34223W        W40823   2.267   0.636  32.421  0.1981  0.1057  0.1603
34224W        W40824  21.819   6.994   2.775 -0.0897  0.0318  0.0788
34225W        W40825  21.815   7.287   2.336 -0.2158  0.1036  0.3010
34226W        W40826  22.822   2.748  30.007 -0.0486  0.0278  0.1073
34227W        W40827  12.149   4.719  27.801  0.0352 -0.1126  0.1787
34228W        W40828  22.162   0.799  26.854  0.1334 -0.3904  0.1852
34229W        W40829   9.349   1.278   9.954 -0.1701 -0.1299  0.1233
34230W        W40830  19.077   0.367  10.701 -0.0132  0.2640  0.1829
34231W        W40831  16.771   5.714   6.218  0.0991  0.1118 -0.1025
34232W        W40832  14.238   6.634  25.265  0.0335  0.1678  0.2293
34233W        W40833  24.340   0.443  28.002 -0.1692  0.0859 -0.3251
34234W        W40834  14.003   0.653  31.575 -0.0071 -0.0648  0.0463
34235W        W40835   7.744   7.671   9.931  0.0998 -0.0302  0.1013
34236W        W40836  16.715   2.267  32.034 -0.3490  0.1431  0.2828
34237W        W40837  14.981   4.054  12.456 -0.0956 -0.0461 -0.0702
34238W        W40838  13.926   3.925   7.543  0.2059 -0.0889  0.1167
34239W        W40839  16.606   6.777  12.555  0.0723  0.1853  0.0996
34240W        W40840   5.921   6.299  15.711  0.1143  0.1823 -0.0178
34241W        W40841   4.042   6.258   7.539 -0.0745  0.3329  0.0508
34242W        W40842  12.848   0.700   6.585  0.1374  0.0635 -0.1254
34243W        W40843  11.221   7.578  11.156 -0.0860  0.1251  0.0650
34244W        W40844   0.751   4.250  12.232 -0.0395 -0.2675 -0.0063
34245W        W40845  19.767   6.609  27.055  0.1938 -0.0135 -0.1855
34246W        W40846   4.316   6.576   0.827  0.1151  0.1385  0.2500
34247W        W40847   5.818   3.481  19.965 -0.2235 -0.0233 -0.1984
34248W        W40848  15.567   4.726   5.321  0.2162  0.1844 -0.3081
34249W        W40849  12.361   2.028  21.056  0.1319 -0.0166  0.2297
34250W        W40850  19.926   6.255  13.846  0.2596  0.4225  0.2177
34251W        W40851  17.412   5.120   8.124  0.1465  0.0123  0.0282
34252W        W40852  18.311   5.059  31.179  0.0100  0.2049  0.2957
34253W        W40853   2.887   1.589  24.041 -0.0835  0.0485  0.0733
34254W        W40854   2.459   6.915   1.735 -0.0241 -0.1535 -0.2248
34255W        W40855  12.906   0.525   3.911 -0.1790  0.0066 -0.5024
34256W        W40856   2.744   1.509  25.939 -0.0725  0.0289 -0.0341
34257W        W40857  12.199   1.889   0.920 -0.3302 -0.1163  0.1029
34258W        W40858   7.496   2.074   2.398  0.0809 -0.0043  0.1580
34259W        W40859  14.805   3.272  15.845  0.0022  0.4327 -0.2418
34260W        W40860  18.051   5.644  11.371 -0.2357  0.0043 -0.0219
34261W        W40861  18.171   4.201  23.925 -0.0297 -0.4224  0.1080
34262W        W40862  13.669   1.994   9.145 -0.1026  0.3046 -0.0063
34263W        W40863  19.836   5.147  11.417 -0.1392 -0.3869  0.1321
34264W        W40864   9.831   0.108  26.802 -0.1823  0.1350  0.1185
34265W        W40865   8.899   4.054  30.969  0.0014  0.2929  0.2006
34266W        W40866  13.101   7.387  32.463  0.0072 -0.0484  0.0129
34267W        W40867  17.740   1.144  25.944 -0.2241  0.0062 -0.0173
34268W        W40868  19.167   4.882  29.256 -0.1053 -0.0055 -0.4046
34269W        W40869  16.404   7.488  12.800 -0.4483  0.0735  0.0432
34270W        W40870   5.908   6.278  18.211 -0.3713 -0.0922  0.2518
34271W        W40871   2.286   5.772  17.663  0.2228  0.0913 -0.2618
34272W        W40872   5.295   3.629  24.271  0.0289 -0.0718 -0.1093
34273W        W40873  24.143   3.692   4.777  0.0387  0.4018  0.1751
34274W        W40874  15.561   2.107  29.057  0.3074  0.1560 -0.1434
34275W        W40875  22.603   1.640   2.758 -0.0900  0.2237 -0.2413
34276W        W40876  19.383   0.946   5.484  0.0785 -0.0770 -0.1144
34277W        W40877   4.227   6.468  21.569  0.0233  0.3985  0.0052
34278W        W40878  11.453   0.057  28.070 -0.3132 -0.0087 -0.1467
34279W        W40879   9.307   5.108   3.033  0.0373  0.3094  0.2561
34280W        W40880  18.008   0.486   3.709  0.0849 -0.3778 -0.0434
34281W        W40881  15.909   4.447  25.469 -0.1905  0.0126 -0.0512
34282W        W40882   2.101   0.076  24.968  0.0422 -0.0907 -0.5148
34283W        W40883  15.757   7.252  27.791 -0.2587 -0.0601 -0.3906
34284W        W40884  15.886   4.420  12.252  0.0977  0.2625  0.1014
34285W        W40885  15.267   7.780   3.247 -0.1904  0.2612 -0.1821
34286W        W40886   7.010   3.997   2.475  0.0405 -0.0230  0.0442
34287W        W40887   8.193   3.736   1.884 -0.0931  0.1728 -0.0414
34288W        W40888   3.332   2.704   8.703 -0.1396 -0.0371  0.1178
34289W        W40889   2.164   7.441  10.638  0.0210 -0.1123 -0.4010
34290W        W40890  18.448   0.237  25.116  0.1184 -0.0793  0.0881
34291W        W40891  10.218   4.402  25.510  0.1047 -0.1869  0.1713
34292W        W40892  23.519   0.883  21.225 -0.3369  0.1888 -0.0870
34293W        W40893  15.708   1.439  30.370 -0.2823 -0.1089 -0.1319
34294W        W40894   8.355   3.853  21.708 -0.1434 -0.3215  0.0188
34295W        W40895  11.509   1.423  18.439 -0.1420 -0.1207  0.3397
34296W        W40896   8.236   1.540  19.256 -0.1843  0.0416 -0.0018
34297W        W40897   0.490   7.389  18.863  0.1022  0.2683  0.0433
34298W        W40898  17.972   5.306   5.067  0.0776 -0.1492 -0.1465
34299W        W40899  10.578   4.004   0.432  0.0118  0.1971 -0.0027
34300W        W40900  23.701   2.594  25.866  0.2152 -0.3108  0.0059
34301W        W40901   9.149   5.766  18.159  0.4995 -0.1802  0.1770
34302W        W40902  24.409   4.337   3.285 -0.1005 -0.0008  0.0827
34303W        W40903  20.614   3.459  30.607  0.0153 -0.3179 -0.0930
34304W        W40904   8.141   7.452   4.536 -0.0882  0.2995 -0.1725
34305W        W40905   4.818   3.477  24.684  0.2436  0.1978 -0.0371
34306W        W40906   7.939   3.493  20.671  0.0862  0.2150  0.2731
34307W        W40907  15.630   3.077  22.655 -0.1435  0.0014  0.0125
34308W        W40908  16.012   5.440  16.672 -0.0226  0.0389 -0.0854
34309W        W40909   1.547   7.170   0.236  0.0503 -0.1025 -0.1037
34310W        W40910   5.752   7.345  31.806  0.2032 -0.1540 -0.0492
34311W        W40911  11.679   3.527  28.827  0.0538  0.2125 -0.0315
34312W        W40912   4.449   2.426   8.481 -0.3106 -0.1473 -0.2085
34313W        W40913  22.394   3.812  31.943 -0.0262  0.0602 -0.0275
34314W        W40914  15.768   5.222  29.196 -0.1310  0.0937 -0.0200
34315W        W40915  14.679   4.697  11.943  0.2279  0.0787  0.1413
34316W        W40916   1.763   1.468  10.536  0.2593 -0.3643  0.0895
34317W        W40917  16.997   7.674  28.868  0.1136 -0.1817  0.2861
34318W        W40918  20.894   3.426   6.405  0.3362  0.0790 -0.0089
34319W        W40919   3.211   5.777  27.688 -0.0532  0.1160  0.0082
34320W        W40920   5.297   2.001  26.455  0.1743  0.1274 -0.0127
34321W        W40921   2.743   4.469  29.674 -0.0224 -0.0663 -0.2810
34322W        W40922  19.135   0.677  27.882 -0.4141  0.3178  0.1443
34323W        W40923   6.354   5.737  31.111  0.3587 -0.2385 -0.0873
34324W        W40924   7.633   4.422   7.731 -0.3203  0.1222  0.0419
34325W        W40925  14.202   4.903  13.502 -0.3873  0.1157 -0.0340
34326W        W40926   6.348   0.571  14.339  0.1131 -0.0495  0.1491
34327W        W40927  22.632   7.564   7.946  0.2640  0.0683  0.0883
34328W        W40928  14.766   1.038  14.466  0.1202  0.0650 -0.2251
34329W        W40929   7.648   3.481   1.076 -0.1667  0.0484 -0.3020
34330W        W40930  16.220   3.861  14.906  0.0890  0.1239  0.1329
34331W        W40931   5.331   7.629  19.216 -0.2131  0.4521  0.0729
34332W        W40932  21.096   4.195  15.399  0.2554 -0.1340 -0.3515
34333W        W40933  12.136   3.168  32.312  0.1008  0.0918  0.1104
34334W        W40934  21.326   2.191  22.065 -0.0675  0.1057 -0.1152
34335W        W40935  13.643   1.169  30.474 -0.0693 -0.1105  0.0586
34336W        W40936   5.058   5.104  18.154 -0.2227 -0.1112 -0.1114
34337W        W40937   0.886   5.837  30.429  0.2076  0.1976  0.1057
34338W        W40938  16.385   1.288  29.810  0.1531 -0.1921  0.1493
34339W        W40939  18.065   6.680  13.618  0.1945  0.0813 -0.0576
34340W        W40940   1.438   2.133   9.499  0.0103  0.0814 -0.0274
34341W        W40941  12.260   5.046  26.001  0.2256 -0.0029 -0.4504
34342W        W40942   8.140   2.925   7.275 -0.0633  0.0209  0.2381
34343W        W40943  19.883   0.301  10.480 -0.1000 -0.0239  0.0215
34344W        W40944   3.617   6.110  28.144 -0.2457 -0.3179 -0.3322
34345W        W40945  13.835   7.829  26.352  0.0209  0.0544  0.0322
34346W        W40946   9.877   3.450   7.048 -0.0850  0.2152  0.2126
34347W        W40947  13.430   5.036   5.088  0.3383 -0.1157  0.1310
34348W        W40948  20.263   0.383   1.981 -0.0611  0.0191 -0.0820
34349W        W40949   7.125   5.720   7.017  0.2328  0.2571 -0.1586
34350W        W40950  16.208   7.351  25.893 -0.1369 -0.0096 -0.1648
34351W        W40951   4.019   1.194  28.905 -0.0301  0.1166  0.3571
34352W        W40952   3.965   3.036  22.562  0.2667  0.1137  0.2698
34353W        W40953   8.676   4.376   1.471 -0.2568  0.0024 -0.1160
34354W        W40954   3.015   0.768   4.335 -0.1826 -0.1113 -0.0926
34355W        W40955  24.783   0.354   7.226  0.0917  0.0230 -0.2849
34356W        W40956  16.093   1.215   0.053 -0.1416 -0.0144  0.2592
34357W        W40957   8.472   7.144   7.711  0.0437  0.0574  0.3543
34358W        W40958  10.196   3.747  24.029 -0.0173  0.1913  0.1776
34359W        W40959  17.322   6.744  25.822  0.2346 -0.0320 -0.1567
34360W        W40960   3.220   6.101   3.176  0.0148  0.2158 -0.0385
34361W        W40961   1.311   1.826  22.088 -0.2283 -0.2389  0.0229
34362W        W40962  14.256   3.941   0.240  0.2086  0.1017 -0.2589
34363W        W40963   5.573   2.898  28.315 -0.1586 -0.1517  0.0643
34364W        W40964  12.755   7.075   9.055  0.0948 -0.0719 -0.0772
34365W        W40965  16.917   5.391  23.809  0.0367 -0.0339 -0.2515
34366W        W40966  15.934   5.380  14.304  0.0083 -0.1212 -0.0505
34367W        W40967   5.797   3.103  15.048 -0.3174  0.4818 -0.1644
34368W        W40968  14.528   7.448   5.267 -0.0099  0.1858  0.2287
34369W        W40969  13.133   4.730  27.679 -0.0082  0.0608 -0.2346
34370W        W40970  13.555   3.643  26.490 -0.0274  0.2282  0.1024
34371W        W40971   5.733   6.172   8.992 -0.2102 -0.0657  0.0136
34372W        W40972   4.467   2.247  16.015 -0.3784  0.2417  0.0751
34373W        W40973  11.231   0.174   2.083  0.2360 -0.1357  0.0040
34374W        W40974   7.657   3.783   5.746 -0.3031 -0.0555 -0.1859
34375W        W40975  14.236   6.502  27.195 -0.3066 -0.0112 -0.0499
34376W        W40976  19.775   2.285  17.329 -0.0400 -0.2282 -0.1655
34377W        W40977  21.963   4.882   3.054 -0.1047  0.0070  0.3396
34378W        W40978   5.941   6.726  15.936 -0.0473  0.1990  0.2129
34379W        W40979  20.274   3.072  23.016 -0.0670  0.1272  0.0142
34380W        W40980   3.471   3.100   9.064  0.0692 -0.1230 -0.0390
34381W        W40981   9.641   6.702   1.221  0.3749  0.0580 -0.0484
34382W        W40982  11.168   5.720  22.362  0.1838  0.3270 -0.1304
34383W        W40983  15.455   4.205  24.395 -0.2290  0.0645 -0.1300
34384W        W40984  14.923   3.156  27.980  0.2354  0.0278  0.0577
34385W        W40985  12.279   1.124   3.881 -0.1806 -0.0484 -0.2411
34386W        W40986   6.988   6.707   6.607 -0.2542 -0.0411 -0.1644
34387W        W40987   0.435   7.832   2.802 -0.0638  0.1955 -0.0718
34388W        W40988  11.180   7.671  19.212 -0.0072 -0.0870  0.1069
34389W        W40989  15.552   7.628   2.074  0.0517 -0.2861  0.0775
34390W        W40990   6.959   1.577  23.731 -0.1744 -0.4144 -0.3521
34391W        W40991  18.946   7.119   8.278 -0.0314 -0.2616 -0.1584
34392W        W40992  18.402   6.965  15.743  0.1258 -0.1271 -0.0354
34393W        W40993  22.692   4.241   3.790 -0.2049 -0.2196 -0.1515
34394W        W40994   4.771   2.930  30.003  0.1533  0.1125 -0.1899
34395W        W40995  20.087   5.208   1.143  0.0212 -0.0060 -0.1982
34396W        W40996  11.675   0.505   1.986  0.0853  0.1888  0.1362
34397W        W40997  18.775   0.857   9.039  0.0280  0.1696 -0.3126
34398W        W40998  18.617   1.280   4.604  0.0351  0.0431  0.0516
34399W        W40999  13.076   7.601   1.532 -0.2017 -0.1281 -0.0023
34400W        W41000  13.118   2.517   8.153  0.2496 -0.0338  0.0988
34401W        W41001  23.436   0.769  11.182  0.1857  0.2523  0.2287
34402W        W41002   4.314   4.517  18.037  0.3319 -0.1870  0.0342
34403W        W41003   7.513   1.653   3.084 -0.0030 -0.0238 -0.3447
34404W        W41004   2.422   3.149  30.415  0.0759 -0.0008 -0.2346
34405W        W41005   8.507   2.657   9.722 -0.1427  0.2011  0.0340
34406W        W41006  12.854   5.723  21.486 -0.1405  0.0827 -0.3013
34407W        W41007   9.717   4.446   4.984  0.0912 -0.1891 -0.2299
34408W        W41008   4.134   0.192   7.826  0.3744  0.1251  0.4209
34409W        W41009  21.146   4.073  12.214 -0.2496  0.0949  0.1648
34410W        W41010   1.161   6.303   5.561  0.2537  0.0540 -0.2132
34411W        W41011   8.709   3.767  22.707 -0.1071  0.1676 -0.2586
34412W        W41012  14.345   0.968  12.609 -0.1399  0.1574  0.3338
34413W        W41013  12.139   5.349  24.846 -0.2321  0.0461 -0.0404
34414W        W41014  13.417   0.972  27.664 -0.0871  0.3214 -0.3066
34415W        W41015  17.761   2.639  16.671 -0.1548 -0.0044 -0.0260
34416W        W41016   4.700   7.477   7.149  0.0326  0.1532  0.3385
34417W        W41017   4.493   0.553   7.768 -0.0873 -0.2407 -0.1899
34418W        W41018  18.505   0.198  26.958 -0.0588  0.0027  0.0498
34419W        W41019  10.242   3.560  17.276 -0.0119 -0.2911 -0.0930
34420W        W41020  15.544   2.592  13.937  0.1788  0.1654  0.2670
34421W        W41021   0.498   6.687  29.173  0.0814  0.0127 -0.0105
34422W        W41022  22.478   0.955  24.446  0.2073 -0.2002 -0.3226
34423W        W41023   6.244   5.851   9.097  0.0157 -0.0261 -0.3321
34424W        W41024  15.679   4.044   2.145  0.0994 -0.0245  0.0580
34425W        W41025   4.191   0.543   5.568  0.0009  0.2401  0.1412
34426W        W41026  11.975   6.983  28.180  0.1411 -0.1253  0.0509
34427W        W41027  19.121   4.073  15.262 -0.1531  0.0580 -0.3203
34428W        W41028  20.861   1.726   7.676  0.2438  0.0276 -0.0537
34429W        W41029  23.963   0.165   8.075 -0.0309 -0.0849  0.0170
34430W        W41030   1.024   4.662  26.991  0.1321 -0.0004 -0.1120
34431W        W41031  18.161   4.818  14.339  0.0048  0.2491  0.1135
34432W        W41032  21.364   5.853  23.056  0.0235 -0.0783 -0.2003
34433W        W41033  12.811   1.401   7.549  0.3241 -0.2960 -0.0005
34434W        W41034  25.022   1.880   7.538  0.3545  0.2098 -0.0082
34435W        W41035  20.935   4.359   4.742  0.0626 -0.1885  0.2434
34436W        W41036  13.675   3.016  10.939  0.1164  0.1296  0.0639
34437W        W41037   1.953   6.537   3.767 -0.0402 -0.0309 -0.0447
34438W        W41038  22.871   5.921  15.462  0.1341  0.0357 -0.2279
34439W        W41039   1.643   0.678  25.304 -0.0696 -0.0031 -0.0262
34440W        W41040   0.715   5.921  20.215  0.3012  0.2539  0.1842
34441W        W41041   5.209   4.148   4.395  0.2043 -0.4280 -0.0587
34442W        W41042   5.922   5.669   2.320 -0.1736 -0.0177 -0.0487
34443W        W41043   9.067   5.748  18.793 -0.1273  0.2076 -0.1119
34444W        W41044  12.990   0.645   8.980 -0.0572  0.2901  0.2419
34445W        W41045  16.030   6.278  15.304 -0.0354 -0.0643 -0.0678
34446W        W41046   1.589   6.501   4.116  0.0998  0.1785  0.0743
34447W        W41047   1.360   6.226   9.508 -0.1466 -0.3417  0.2487
34448W        W41048  16.155   3.037  29.681 -0.2763  0.3355  0.0754
34449W        W41049   5.084   1.035  32.308 -0.4038 -0.0579 -0.2733
34450W        W41050  24.931   5.339  26.643 -0.0885 -0.1058  0.0006
34451W        W41051   8.288   1.689  20.726  0.0979  0.1116  0.0495
34452W        W41052   1.250   6.257   1.679 -0.0573 -0.0121 -0.0224
34453W        W41053  24.523   2.781  30.772 -0.1123  0.1310  0.0616
34454W        W41054  21.742   4.316  11.338 -0.3453 -0.0692 -0.1436
34455W        W41055  11.522   5.705  21.984 -0.0442 -0.2388  0.0153
34456W        W41056   4.495   6.584  28.245 -0.0311 -0.0785 -0.1343
34457W        W41057  15.439   5.547  28.194  0.0330  0.1619 -0.3275
34458W        W41058  12.251   7.731   4.541 -0.1910  0.1318  0.2678
34459W        W41059  11.716   0.980   4.067 -0.0272  0.1838 -0.1592
34460W        W41060   9.727   4.900  31.621 -0.1027 -0.1170  0.0195
34461W        W41061  20.428   5.150  14.482 -0.0056  0.0156 -0.1108
34462W        W41062   0.091   4.167  22.354  0.2969  0.1894 -0.3330
34463W        W41063  17.651   2.481  27.027 -0.3465  0.2381 -0.0044
34464W        W41064   5.384   2.747  20.488 -0.0322 -0.0392  0.0719
34465W        W41065  17.291   1.713   4.212  0.3378 -0.1100  0.1167
34466W        W41066   0.381   1.324   5.272 -0.2201 -0.0312 -0.1152
34467W        W41067   5.389   6.172  24.436 -0.2417  0.2119 -0.2476
34468W        W41068  14.132   4.052   8.803  0.0364 -0.1646  0.5514
34469W        W41069   5.133   7.154  18.929  0.2623  0.2744  0.0668
34470W        W41070  18.674   7.092  24.304  0.1507  0.1994 -0.1960
34471W        W41071  21.003   6.563   9.063  0.0757 -0.1947  0.0616
34472W        W41072  23.124   5.911  25.027  0.1902 -0.0272 -0.0272
34473W        W41073   1.614   7.697   6.412  0.0269  0.3482 -0.3137
34474W        W41074  17.393   4.010  27.872  0.2548  0.3030 -0.3115
34475W        W41075  20.951   4.437  13.338  0.0006 -0.2084  0.2104
34476W        W41076  15.247   5.863   8.265 -0.1069 -0.1077  0.0562
34477W        W41077  14.997   2.843  10.766  0.0803 -0.2461  0.3018
34478W        W41078  20.257   2.327   7.715 -0.0585  0.3672  0.0347
34479W        W41079   3.083   1.939  18.078  0.3273 -0.0436 -0.2234
34480W        W41080   4.998   3.374  22.611  0.2527 -0.1196 -0.1786
34481W        W41081  24.539   6.454  28.675 -0.0708 -0.0706  0.1389
34482W        W41082  18.076   2.146   7.199  0.2555  0.0442  0.2414
34483W        W41083  22.151   5.632   7.085 -0.1344  0.2076 -0.2793
34484W        W41084  23.655   4.100  12.551 -0.2902 -0.2842 -0.1827
34485W        W41085   6.445   5.683  27.800  0.1107  0.3672 -0.0871
34486W        W41086   7.232   0.942   9.384  0.2592 -0.0497 -0.1583
34487W        W41087  14.300   2.243   4.017 -0.0318  0.0703  0.1058
34488W        W41088   8.644   0.512  19.937  0.0041 -0.0345 -0.1394
34489W        W41089  19.564   3.940  30.123 -0.3281  0.2088  0.3343
34490W        W41090   2.164   7.190   2.584  0.0217  0.1195 -0.2172
34491W        W41091   0.801   5.932   4.782 -0.1511 -0.1337 -0.2054
34492W        W41092  22.779   7.848   0.862  0.2358  0.1588 -0.1664
34493W        W41093  19.978   5.840  24.014 -0.1594  0.1353  0.1492
34494W        W41094   5.532   1.340  22.445 -0.0958  0.0927 -0.1946
34495W        W41095   5.984   3.413   8.809  0.2591 -0.0389 -0.0369
34496W        W41096   3.827   1.564  18.875  0.4004 -0.1591  0.0477
34497W        W41097  13.101   1.553  30.621  0.0718  0.0708  0.0330
34498W        W41098  10.057   3.899  30.876  0.1150  0.0908 -0.1940
34499W        W41099  13.831   7.535  24.861 -0.1255  0.4044  0.2464
34500W        W41100  23.497   4.242  30.566  0.2058 -0.0293 -0.0252
34501W        W41101   0.983   6.872  27.669  0.0775  0.1450 -0.0772
34502W        W41102  11.069   6.795   7.942  0.3294 -0.1400  0.0588
34503W        W41103  16.520   0.399  28.318  0.4862  0.1636  0.3876
34504W        W41104  13.568   0.549   4.535 -0.0818  0.5448  0.0593
34505W        W41105   0.649   1.552  28.542 -0.1445  0.2496  0.0949
34506W        W41106  17.623   4.893  29.953 -0.0035 -0.0641  0.0105
34507W        W41107   5.128   5.762  10.327  0.1682  0.0321  0.2933
34508W        W41108  21.910   5.126  16.067 -0.1519 -0.2538 -0.0539
34509W        W41109  13.597   4.285   3.958 -0.1306  0.2540  0.0663
34510W        W41110  20.016   0.586   8.112  0.1479  0.1597  0.3542
34511W        W41111  18.726   2.764   6.525  0.0450  0.2539 -0.2678
34512W        W41112  14.511   3.831   4.350 -0.0320  0.0207 -0.0689
34513W        W41113  19.866   7.229  11.423 -0.1127 -0.0025  0.2239
34514W        W41114  22.547   3.307   9.477 -0.2500 -0.0020  0.2816
34515W        W41115   5.150   0.352  14.612  0.1772  0.6233 -0.0502
34516W        W41116  18.812   5.191  25.513 -0.4153  0.2389  0.2052
34517W        W41117  16.709   5.955  25.964 -0.1182  0.1417 -0.1646
34518W        W41118  10.318   5.254   6.431  0.1461  0.1462  0.1379
34519W        W41119   4.659   2.552  28.041  0.2312 -0.1395 -0.0647
34520W        W41120  10.860   3.950  18.445 -0.1804 -0.1719 -0.0089
34521W        W41121  24.441   7.386  14.614  0.1651  0.0178  0.1130
34522W        W41122  22.291   4.283   7.847 -0.2226 -0.0996 -0.0994
34523W        W41123  10.928   5.165   9.036 -0.0550 -0.1159  0.0399
34524W        W41124  19.255   6.279   0.413 -0.0390  0.1120 -0.1425
34525W        W41125  17.239   3.535  31.560 -0.0458  0.1849 -0.2251
34526W        W41126   4.916   2.998  27.812  0.2653 -0.0348  0.1937
34527W        W41127   0.637   0.674   0.154 -0.1766  0.1412 -0.2183
34528W        W41128   5.387   3.926  21.520 -0.2436  0.3710  0.1182
34529W        W41129   5.597   2.279   7.749  0.3363 -0.2127  0.0597
34530W        W41130  18.033   7.216   0.075  0.1299  0.0538 -0.0217
34531W        W41131   5.581   5.959  26.563 -0.0867 -0.0140 -0.0920
34532W        W41132   0.595   5.140  21.192  0.0915 -0.0620 -0.1894
34533W        W41133   5.319   2.925  32.045 -0.3246  0.1980  0.0666
34534W        W41134  11.288   2.688   4.782 -0.1106  0.4024 -0.0480
34535W        W41135  21.981   4.892  23.646 -0.1982  0.0630 -0.1166
34536W        W41136  12.357   0.271  27.070  0.2001 -0.1655 -0.0734
34537W        W41137  17.995   1.222  17.810  0.0836  0.1593 -0.0104
34538W        W41138  16.578   7.164   3.916 -0.0959 -0.0992 -0.2237
34539W        W41139  12.790   2.821  28.493  0.0537  0.0204  0.0471
34540W        W41140  14.995   6.473   3.510  0.2158 -0.0330  0.0657
34541W        W41141   5.443   0.805  20.225  0.0700 -0.0139  0.4033
34542W        W41142   1.149   1.501   1.778  0.1846 -0.0713 -0.2580
34543W        W41143  11.988   6.906   9.474 -0.0984 -0.1823  0.0019
34544W        W41144  22.753   0.715  29.198  0.2136  0.2071 -0.4132
34545W        W41145  18.996   3.001   7.084 -0.1957  0.2688 -0.0089
34546W        W41146  12.343   6.095  20.574  0.0291  0.1359 -0.0848
34547W        W41147  23.973   4.048  12.160 -0.0194  0.0873  0.0582
34548W        W41148   6.181   4.638   4.078  0.1632  0.3264  0.1368
34549W        W41149  13.558   7.799  27.273 -0.4499 -0.2535 -0.0947
34550W        W41150   2.359   0.598   3.874  0.1616 -0.0571  0.0434
34551W        W41151  15.655   7.380  25.582  0.0793 -0.2505  0.5651
34552W        W41152  21.788   6.607  13.407 -0.1614 -0.0740  0.0548
34553W        W41153   5.476   4.534   0.883 -0.0680 -0.1270  0.0450
34554W        W41154   4.127   0.255  27.305  0.1885  0.1023 -0.1943
34555W        W41155   8.697   0.706   4.826 -0.1094 -0.0060 -0.2617
34556W        W41156  19.200   1.815   9.902  0.0960 -0.0683 -0.1300
34557W        W41157  22.479   1.184  26.648 -0.0008  0.0671 -0.0204
34558W        W41158  22.704   6.349  12.014 -0.0231 -0.2422  0.0148
34559W        W41159   8.686   6.075  28.286 -0.1502 -0.0776  0.0759
34560W        W41160   8.738   1.437   8.616  0.0230 -0.0733 -0.1948
34561W        W41161  19.815   6.984   4.121  0.1138 -0.0569 -0.0569
34562W        W41162  17.595   0.000   1.141  0.2641  0.2552 -0.0500
34563W        W41163  22.247   3.943   5.929 -0.0090  0.0621  0.0489
34564W        W41164   8.403   4.919  16.916 -0.0390 -0.0201  0.0682
34565W        W41165  17.065   6.291   7.048 -0.1647  0.1586 -0.0073
34566W        W41166   8.969   4.847  20.069  0.2197  0.1624 -0.3974
34567W        W41167  23.732   2.442  11.130  0.0361 -0.0273  0.0453
34568W        W41168  24.304   4.752  22.055  0.0699 -0.2923  0.1971
34569W        W41169  22.465   2.247  13.747  0.1953 -0.0297 -0.0027
34570W        W41170  11.677   7.215  29.735  0.1941 -0.1500 -0.0433
34571W        W41171  13.366   3.632  32.236 -0.2453  0.0125  0.0127
34572W        W41172   9.575   7.472  18.337  0.1386  0.1130  0.3102
34573W        W41173   8.856   5.391   4.918 -0.0072  0.1925 -0.0868
34574W        W41174   2.594   6.127   5.138  0.1582 -0.1135  0.1121
34575W        W41175  13.848   4.651  30.028  0.1299  0.3410  0.1823
34576W        W41176  10.289   0.133  28.473 -0.1572 -0.3185 -0.1047
34577W        W41177  14.738   6.691   6.040  0.0548 -0.3382 -0.0113
34578W        W41178  11.180   7.141  26.530 -0.0615  0.1962  0.1026
34579W        W41179  10.890   1.869  20.009 -0.3315 -0.1170  0.0076
34580W        W41180  24.931   7.820   5.407  0.2260  0.3872  0.2509
34581W        W41181   0.531   2.974  11.193 -0.2327 -0.2134 -0.1596
34582W        W41182  23.122   0.365   5.164  0.0828  0.1087 -0.4793
34583W        W41183  22.286   1.145  27.190  0.1752 -0.2099 -0.1019
34584W        W41184  14.699   5.112   3.476  0.1066  0.0737  0.2370
34585W        W41185  21.514   6.267  26.231 -0.0822  0.1001 -0.0924
34586W        W41186  22.861   1.806  29.841  0.1095  0.1524 -0.0425
34587W        W41187  24.549   6.693   5.287  0.0599 -0.0309  0.1844
34588W        W41188  18.808   4.346  13.720 -0.1467 -0.2565 -0.3438
34589W        W41189   8.010   2.995  20.809  0.3204  0.0423 -0.0942
34590W        W41190  24.083   2.711   4.729 -0.3818 -0.0493  0.0549
34591W        W41191   6.169   4.656  23.129 -0.0012 -0.0795  0.1761
34592W        W41192   0.124   1.411   9.042  0.0683 -0.0520  0.0218
34593W        W41193  20.036   3.381  12.292  0.1840  0.1165  0.4376
34594W        W41194  25.107   4.370  22.947 -0.1000  0.2863  0.0525
34595W        W41195  20.246   5.376   5.837  0.0107 -0.1638  0.1380
34596W        W41196  13.330   5.273   3.288 -0.0108 -0.0325  0.0266
34597W        W41197  18.179   1.368  14.403  0.0246 -0.0494 -0.2298
34598W        W41198  18.986   3.890  10.783 -0.1686 -0.0861  0.3819
34599W        W41199   4.198   1.641   9.014  0.0284 -0.0445 -0.0027
34600W        W41200   9.075   6.871  23.842 -0.1449  0.0669 -0.0731
34601W        W41201  17.204   3.570  26.650  0.1501 -0.1596 -0.1752
34602W        W41202  15.406   4.044  23.926 -0.1851  0.0085  0.1599
34603W        W41203  17.075   6.534  10.424 -0.1756 -0.1815 -0.0656
34604W        W41204  15.124   0.291   2.256 -0.1154  0.0834 -0.0713
34605W        W41205   7.342   2.178   8.510  0.0790 -0.1584  0.4722
34606W        W41206   9.704   5.252  26.656 -0.0779  0.1469  0.1932
34607W        W41207   1.967   1.627  28.698  0.0537 -0.1893 -0.4448
34608W        W41208  23.713   3.658   7.107  0.1598  0.1277 -0.0777
34609W        W41209   3.043   5.321  32.337 -0.1625  0.1122 -0.0182
34610W        W41210   0.096   2.916  23.496  0.1049 -0.0064  0.1119
34611W        W41211   7.270   2.262  22.715  0.2365 -0.3362 -0.1697
34612W        W41212   1.388   2.734  23.018  0.4256 -0.0672 -0.0342
34613W        W41213   1.475   5.376   4.668 -0.0281  0.2793  0.0062
34614W        W41214  16.274   6.356   4.840 -0.1049 -0.1208  0.0113
34615W        W41215  14.006   5.508  26.431 -0.0658  0.0617 -0.0730
34616W        W41216  24.111   2.469   5.545  0.0841  0.1721 -0.1039
34617W        W41217   7.884   7.288  28.136  0.3731  0.0077  0.2228
34618W        W41218  10.128   0.338  31.570 -0.1973  0.1700  0.0897
34619W        W41219  11.193   4.645  17.757  0.1283  0.3888  0.1044
34620W        W41220  15.510   4.390  25.990  0.1186 -0.0753 -0.1914
34621W        W41221   4.396   1.977  21.628  0.0301  0.0929  0.0258
34622W        W41222   4.065   1.037  22.195 -0.0360 -0.0385  0.1983
34623W        W41223   0.653   1.822  29.826  0.0201  0.0746 -0.3213
34624W        W41224  22.733   0.423  29.853 -0.1814  0.2361 -0.1513
34625W        W41225   8.374   2.830  30.269 -0.0077  0.0776 -0.0004
34626W        W41226  19.692   2.197  14.551 -0.1336 -0.0467  0.0009
34627W        W41227   5.025   2.035  29.487  0.2081  0.0800 -0.2670
34628W        W41228  23.389   7.385  22.937  0.1825 -0.2588 -0.3627
34629W        W41229  13.007   5.593   9.598 -0.0915  0.0289  0.0251
34630W        W41230  20.885   0.767   6.471 -0.2314  0.4433  0.2738
34631W        W41231  17.524   1.243   1.918 -0.0853  0.1014  0.3699
34632W        W41232  22.427   5.109  28.553  0.2346 -0.0530  0.1862
34633W        W41233  10.527   7.609   6.993  0.0304  0.0223 -0.0399
34634W        W41234   9.347   6.920  28.193  0.1758  0.2190 -0.0211
34635W        W41235  15.096   0.782  31.204  0.0293 -0.1850  0.1807
34636W        W41236  14.027   2.008  24.128  0.0884  0.1207 -0.2322
34637W        W41237  16.029   7.285  28.694  0.1454  0.0571 -0.0709
34638W        W41238  12.500   6.728  27.412  0.0747 -0.3988  0.2277
34639W        W41239  20.533   4.131   5.618  0.0141  0.2585 -0.1234
34640W        W41240   7.403   6.790   5.711  0.1143  0.1238 -0.3554
34641W        W41241  19.293   4.159  11.632 -0.1198  0.2257  0.2529
34642W        W41242   0.608   5.432  28.201  0.2847 -0.1649 -0.2049
34643W        W41243   8.702   5.888  20.548 -0.0669  0.0058 -0.1874
34644W        W41244   6.134   6.182  21.617 -0.2291  0.3457  0.1037
34645W        W41245  18.096   4.223   8.239  0.1315  0.3273 -0.4135
34646W        W41246   9.112   5.373  18.442 -0.0089 -0.0468  0.0545
34647W        W41247   1.326   4.766  23.785  0.0500  0.1261  0.0105
34648W        W41248  10.744   3.089   4.213 -0.2418  0.1155 -0.0917
34649W        W41249   7.969   3.274   0.041  0.1875  0.2070 -0.0964
34650W        W41250  17.756   2.907  12.657 -0.1177  0.0923 -0.2042
34651W        W41251  19.722   5.971  16.462  0.0173 -0.0345  0.0407
34652W        W41252   7.109   0.782  18.205  0.1767  0.0532 -0.2231
34653W        W41253  21.180   1.908  15.050 -0.0025 -0.0617 -0.0039
34654W        W41254   5.161   2.582  10.613  0.2696  0.1575 -0.0858
34655W        W41255  15.625   0.775  10.793 -0.4214 -0.2000  0.1113
34656W        W41256  20.691   2.989   8.603 -0.0737  0.1835  0.0720
34657W        W41257  13.626   2.707  12.343  0.0782 -0.0209  0.0965
34658W        W41258   5.923   7.243  29.527 -0.0886  0.0483  0.0802
34659W        W41259   4.783   2.581  16.226  0.1714 -0.1240 -0.0751
34660W        W41260  17.513   5.289   4.018 -0.3543 -0.0343 -0.1284
34661W        W41261  15.350   3.713  12.370 -0.1784  0.1234  0.0170
34662W        W41262  18.260   5.140  29.349 -0.0657 -0.4309  0.0281
34663W        W41263   6.797   2.291   4.436 -0.0099  0.0599 -0.0081
34664W        W41264  11.036   5.904  26.904  0.3243  0.0380  0.0602
34665W        W41265  24.746   4.894  21.222  0.0826 -0.0793 -0.0318
34666W        W41266  19.904   4.166  14.447  0.0422 -0.0348  0.0607
34667W        W41267  21.749   2.190  12.816  0.2081  0.1786 -0.3356
34668W        W41268  20.072   4.244   6.435 -0.1454  0.3588 -0.0787
34669W        W41269  23.405   6.758   6.570 -0.0482  0.1545 -0.2490
34670W        W41270  15.791   6.777  32.155  0.0071  0.1393 -0.2794
34671W        W41271  20.467   6.379  31.709  0.1699 -0.0833 -0.1371
34672W        W41272   6.179   7.203  16.311 -0.3632 -0.0685  0.0168
34673W        W41273  15.353   0.161  13.517  0.2506 -0.0802  0.1536
34674W        W41274  11.775   1.176  19.162 -0.3610  0.1512 -0.3600
34675W        W41275  22.962   4.665  28.904  0.0364 -0.2948 -0.0234
34676W        W41276  14.267   3.811  31.877 -0.0018  0.1616 -0.2925
34677W        W41277  19.043   0.619  29.811 -0.2092  0.3685  0.2933
34678W        W41278   2.864   6.803   3.247  0.0305  0.1610 -0.1210
34679W        W41279   4.943   7.600   4.515  0.2193  0.0013 -0.0038
34680W        W41280  15.327   3.954  30.713  0.1220 -0.0141  0.0257
34681W        W41281   0.276   3.329   5.719 -0.0667 -0.0550  0.1895
34682W        W41282   6.685   0.786  32.459 -0.0805  0.0888 -0.0336
34683W        W41283   9.180   0.627   8.383 -0.0646  0.0048 -0.2353
34684W        W41284  14.602   5.224  25.912 -0.2600  0.1463  0.0622
34685W        W41285  12.638   3.756  25.612  0.1253 -0.3726  0.0624
34686W        W41286   5.425   5.505  16.887 -0.2250 -0.1141 -0.2141
34687W        W41287  22.746   7.607  23.761  0.2806  0.1070  0.0352
34688W        W41288   0.781   1.484  21.505  0.2178 -0.1490  0.1971
34689W        W41289  24.512   1.125   8.436 -0.2993 -0.0290 -0.1890
34690W        W41290   6.167   2.008   7.693  0.1169 -0.1510 -0.1405
34691W        W41291  10.178   3.564  25.838  0.1820  0.1775  0.1698
34692W        W41292   7.084   1.162   8.170 -0.0757 -0.0229 -0.2675
34693W        W41293  21.587   5.926  32.061  0.0854  0.5204 -0.0054
34694W        W41294   9.249   1.319   3.003 -0.0613  0.0423 -0.2207
34695W        W41295  19.405   0.574  16.673  0.2108 -0.0396 -0.0059
34696W        W41296  19.178   5.381  18.024  0.1869  0.1095  0.1003
34697W        W41297   3.826   4.781  27.042 -0.2663 -0.3174 -0.2440
34698W        W41298  10.225   2.302   2.850  0.0768 -0.1498  0.1205
34699W        W41299  24.816   3.817   6.481  0.2677 -0.4818 -0.0793
34700W        W41300   2.834   7.514   7.597  0.1749  0.2163  0.0774
34701W        W41301   3.249   7.150   3.344 -0.1343 -0.0528 -0.2235
34702W        W41302  13.675   2.419   2.924  0.2568  0.1222  0.2301
34703W        W41303  18.052   3.720   6.349 -0.1668  0.0273  0.0743
34704W        W41304  11.725   3.244  28.431 -0.0245 -0.1750  0.3327
34705W        W41305  13.636   0.746   9.767  0.2018  0.4134  0.0684
34706W        W41306  23.270   1.055  32.404  0.4088  0.2656 -0.1025
34707W        W41307  22.035   2.101   6.480 -0.2129  0.2714  0.1988
34708W        W41308   8.308   2.058  30.794  0.2265  0.2266 -0.2572
34709W        W41309  12.220   7.308  12.140 -0.0895 -0.2795  0.1431
34710W        W41310  12.537   1.709   2.629 -0.1232  0.1981  0.0532
34711W        W41311  22.928   3.060   7.361 -0.2018  0.2984 -0.2642
34712W        W41312   2.537   2.149   9.427  0.0381 -0.1756  0.2446
34713W        W41313  14.861   4.224   4.421 -0.2154 -0.0578 -0.2416
34714W        W41314  23.989   2.346   8.114  0.1354 -0.0824 -0.3291
34715W        W41315   5.840   5.820   5.881  0.0919  0.2938 -0.3432
34716W        W41316   5.894   5.840   4.606  0.0071  0.0382  0.0538
34717W        W41317  18.000   4.098  23.132  0.0327  0.2070  0.0620
34718W        W41318  11.968   5.128   0.899  0.0825  0.0907 -0.1902
34719W        W41319  20.257   6.666  27.225 -0.0452  0.2138 -0.1633
34720W        W41320  18.628   5.686  13.897 -0.2207  0.0051 -0.0392
34721W        W41321   6.521   3.423   2.897 -0.0758  0.0322  0.2845
34722W        W41322  13.302   5.295   4.624  0.1137  0.1230  0.2798
34723W        W41323  12.509   4.000  25.097  0.0924  0.0271 -0.3865
34724W        W41324   0.463   0.995   9.036 -0.0361 -0.1326 -0.0383
34725W        W41325   1.967   1.932   1.381  0.1142  0.2795 -0.1907
34726W        W41326  19.003   5.785  23.109 -0.0118 -0.1400 -0.0838
34727W        W41327  18.095   4.617  26.456 -0.1852 -0.4046  0.0423
34728W        W41328   7.263   4.900  19.368 -0.0154 -0.1078  0.1158
34729W        W41329   6.317   0.701   2.312 -0.0210  0.1183 -0.1208
34730W        W41330  20.312   2.025  26.443 -0.1194 -0.0101 -0.1013
34731W        W41331   0.872   4.794  11.588 -0.0623 -0.0724 -0.0017
34732W        W41332  14.117   0.306  26.794  0.1269  0.0860 -0.1497
34733W        W41333  15.140   5.420  28.629  0.3242  0.0670 -0.0957
34734W        W41334  23.796   7.615  32.167 -0.2741  0.2535  0.1158
34735W        W41335  18.021   1.027   8.301 -0.0292  0.2792 -0.2069
34736W        W41336   1.987   0.595   7.390 -0.0163  0.3008  0.2242
34737W        W41337   9.631   3.234   9.235 -0.2715  0.2815  0.0167
34738W        W41338   1.461   4.808   1.054  0.2454 -0.2288 -0.0702
34739W        W41339  10.595   0.934  21.007  0.3825 -0.3257  0.0349
34740W        W41340  22.051   0.833   1.765 -0.0164 -0.2214 -0.0365
34741W        W41341  20.072   1.572   4.789  0.1719  0.0691 -0.1572
34742W        W41342  16.827   7.860  10.283  0.1588 -0.1273 -0.1519
34743W        W41343   5.870   1.446   5.005 -0.1624  0.1166 -0.0359
34744W        W41344   8.924   0.453  22.011 -0.0566 -0.0708 -0.2620
34745W        W41345   0.628   1.495   7.586  0.1535  0.1563 -0.1805
34746W        W41346  23.219   0.464  10.833  0.0167  0.0052  0.0494
34747W        W41347  20.938   4.929  25.185  0.1470  0.2653 -0.0061
34748W        W41348   8.817   6.014  15.127 -0.1090  0.2647  0.0415
34749W        W41349   4.076   0.045  20.072  0.0339 -0.0047  0.2175
34750W        W41350  23.712   2.426  30.834 -0.2686 -0.1914  0.1774
34751W        W41351  20.697   0.314   2.266  0.3164 -0.0352  0.0517
34752W        W41352   4.167   5.799   4.186 -0.1382  0.1793 -0.0925
34753W        W41353  23.297   1.780   4.875 -0.2456  0.3625 -0.4324
34754W        W41354   1.119   6.206   9.951  0.2252  0.1843 -0.0184
34755W        W41355   7.722   0.715   3.435  0.1906  0.2779  0.0116
34756W        W41356   4.530   1.535  25.151 -0.0443  0.1376 -0.1084
34757W        W41357  22.697   7.104  13.747  0.4789  0.1405  0.2313
34758W        W41358   7.530   0.480  17.846 -0.1191 -0.1364  0.1315
34759W        W41359   7.634   5.672   9.128  0.2083  0.1169  0.0923
34760W        W41360  12.880   5.213  24.218 -0.1004 -0.0382  0.3222
34761W        W41361  20.669   2.551  16.181 -0.1528 -0.1111  0.0417
34762W        W41362  20.977   7.806   8.631 -0.0407  0.0903  0.1530
34763W        W41363  15.976   5.631   2.335 -0.2116  0.0048  0.3408
34764W        W41364  22.457   5.041  22.851  0.1119  0.0265 -0.0645
34765W        W41365  18.046   6.736   2.829 -0.3087  0.0720  0.1807
34766W        W41366   4.208   4.772  24.981  0.2549  0.0015  0.1585
34767W        W41367  15.147   7.431  22.737 -0.2077  0.1542 -0.1600
34768W        W41368   6.808   4.256  18.802  0.0147  0.0353 -0.0132
34769W        W41369  12.708   1.347  30.166  0.5364  0.1798  0.1083
34770W        W41370  12.712   3.815  21.233 -0.0824 -0.1556 -0.3684
34771W        W41371  20.710   3.545  25.248  0.0976 -0.0023  0.0731
34772W        W41372  14.629   2.813  30.196  0.4001 -0.2498  0.1666
34773W        W41373  25.114   3.317   0.216 -0.0110 -0.1727 -0.0039
34774W        W41374  20.682   6.950   4.402  0.0996 -0.0736  0.0007
34775W        W41375   1.741   0.900  27.764 -0.2951  0.2569 -0.1706
34776W        W41376   9.264   0.229  28.161 -0.0949 -0.2022 -0.0509
34777W        W41377  24.244   3.150  31.268  0.0987  0.2258  0.0576
34778W        W41378   8.524   2.503  16.827  0.3354  0.0542 -0.1916
34779W        W41379   0.027   0.260   7.498  0.0274 -0.0317 -0.0355
34780W        W41380  23.198   5.924  29.100 -0.0125  0.0748  0.1739
34781W        W41381   8.919   7.682  17.123 -0.0348 -0.2188  0.1445
34782W        W41382  14.506   5.912  21.224 -0.0688  0.1708  0.0062
34783W        W41383   6.955   6.960  31.050  0.0690  0.0703 -0.1380
34784W        W41384  23.063   6.514  10.503  0.2759 -0.1736  0.1845
34785W        W41385   9.051   6.032  19.855 -0.0616 -0.2331  0.0277
34786W        W41386  14.638   2.894   5.902  0.0269 -0.1669 -0.1104
34787W        W41387   0.010   5.222  28.871  0.0424  0.1084  0.1699
34788W        W41388  22.257   3.594   7.513  0.3077  0.1259 -0.1842
34789W        W41389  11.910   5.927  26.070 -0.1318  0.1865  0.2444
34790W        W41390  23.348   2.807  27.513  0.1049  0.1428 -0.0358
34791W        W41391   9.379   7.514   4.849 -0.3709  0.1206 -0.1414
34792W        W41392   3.276   1.888  31.778 -0.0249  0.2141 -0.1399
34793W        W41393  22.213   2.671  13.534  0.1525  0.0882  0.0852
34794W        W41394   5.712   6.816   1.879 -0.2798 -0.1394 -0.0049
34795W        W41395  18.074   7.794   4.512 -0.2171  0.4480  0.1166
34796W        W41396  24.687   1.630  11.279 -0.4247 -0.0230 -0.1189
34797W        W41397  21.977   0.279  14.743 -0.1194 -0.3243 -0.0119
34798W        W41398   6.949   6.463   8.644 -0.1539 -0.1263  0.2124
34799W        W41399  14.006   1.937   8.645  0.0636 -0.2730 -0.1409
34800W        W41400   7.120   4.596  27.628  0.3458  0.0453  0.0923
34801W        W41401  15.586   3.659  29.147 -0.2396  0.1558  0.0108
34802W        W41402  11.072   0.583   9.926 -0.1177 -0.2128 -0.1463
34803W        W41403   6.117   5.432   0.311  0.0471 -0.0878  0.2662
34804W        W41404  14.775   3.177  29.277 -0.1277  0.1178 -0.2012
34805W        W41405  22.816   4.268  28.674 -0.1006 -0.1486  0.0283
34806W        W41406   3.727   1.735   6.361  0.0526  0.2829  0.0166
34807W        W41407   7.453   2.193  15.698 -0.1234  0.1896  0.0776
34808W        W41408  15.611   0.461  31.903 -0.3406  0.2165 -0.0112
34809W        W41409   9.192   7.344  31.915  0.0397 -0.2895  0.1357
34810W        W41410   1.762   7.545   0.641  0.4401 -0.0093 -0.1731
34811W        W41411  23.318   1.727  22.699  0.2477 -0.1115 -0.3327
34812W        W41412   9.823   7.523   3.105  0.0971  0.0674  0.1958
34813W        W41413   7.508   6.164   1.060  0.2005  0.1883  0.0475
34814W        W41414  19.587   7.094  14.298  0.1944 -0.0523 -0.1170
34815W        W41415   8.241   5.220  29.544  0.0620  0.2515  0.0139
34816W        W41416   7.718   6.290  20.348 -0.2469 -0.0855 -0.0714
34817W        W41417   9.261   5.564   4.620 -0.2890 -0.0375  0.2877
34818W        W41418  19.395   3.114   0.371 -0.0231 -0.0848  0.1176
34819W        W41419  24.481   4.990  25.586 -0.0337  0.3677 -0.1347
34820W        W41420   2.324   5.886   3.719  0.0154 -0.4411 -0.2002
34821W        W41421  21.199   2.013  26.340 -0.1346 -0.0889  0.2645
34822W        W41422   5.788   3.916  24.379  0.2234 -0.1424  0.1510
34823W        W41423  18.479   0.141  11.468 -0.1847  0.0089  0.1128
34824W        W41424  17.498   0.586   0.405 -0.0755  0.0130 -0.0673
34825W        W41425  24.150   1.492   8.499  0.0936  0.2293 -0.0796
34826W        W41426  14.671   3.095   9.920 -0.3923  0.0172 -0.4943
34827W        W41427   1.897   1.133  31.764  0.2754 -0.1158  0.3290
34828W        W41428  19.477   6.595   7.101  0.0477 -0.0901  0.1308
34829W        W41429  15.109   0.404   4.741 -0.0906  0.0629 -0.3078
34830W        W41430   3.081   7.269  29.068  0.1218 -0.2822 -0.0669
34831W        W41431  24.025   2.927   7.490 -0.1920  0.0669 -0.1534
34832W        W41432  17.212   1.000  25.036 -0.0571  0.1458  0.0199
34833W        W41433  14.891   3.741  32.543 -0.0050  0.1377  0.0336
34834W        W41434   6.325   1.483  10.458  0.2512 -0.0870 -0.0594
34835W        W41435   5.272   4.505   7.650  0.3046 -0.0171 -0.3278
34836W        W41436   0.474   2.254   2.603 -0.1713 -0.0768 -0.0721
34837W        W41437   2.560   0.644  29.651 -0.0446 -0.0970 -0.0063
34838W        W41438   0.047   1.062  27.251 -0.2119 -0.0462  0.0256
34839W        W41439  23.531   1.946  10.691  0.0176 -0.0734  0.0495
34840W        W41440  11.343   2.691   3.143 -0.1515 -0.1323 -0.1221
34841W        W41441   9.938   5.506  22.822 -0.0541  0.0764 -0.0497
34842W        W41442  18.813   2.970  11.786 -0.3934 -0.0349  0.2427
34843W        W41443   8.438   7.610  25.848 -0.1636 -0.3495 -0.1391
34844W        W41444   9.544   3.591   0.124  0.0920 -0.3506  0.1583
34845W        W41445   8.336   1.540   2.040  0.0480  0.0393  0.2491
34846W        W41446  15.076   0.195  21.643 -0.1304  0.1962  0.0693
34847W        W41447  19.133   1.647  16.841  0.3297 -0.1620  0.0780
34848W        W41448   2.869   1.918   5.174 -0.0030 -0.2275  0.0956
34849W        W41449   3.995   5.149  32.115  0.1497  0.1009 -0.1758
34850W        W41450  16.173   1.115  30.361 -0.2334 -0.2837 -0.0052
34851W        W41451   1.884   3.525  23.911 -0.1769 -0.0830 -0.0097
34852W        W41452  19.446   0.824   4.555  0.0723  0.0058 -0.2086
34853W        W41453   2.742   1.761   8.552  0.0148 -0.0482 -0.2486
34854W        W41454  17.140   4.365  11.503 -0.0939 -0.0604  0.2368
34855W        W41455  17.585   7.469  24.145 -0.1982  0.2323  0.1443
34856W        W41456  19.943   1.204   3.103 -0.0055 -0.0649  0.1585
34857W        W41457   8.899   0.737   2.545 -0.0156 -0.0246 -0.0343
34858W        W41458   7.155   3.404  30.100 -0.0851  0.1721 -0.0483
34859W        W41459  23.077   4.263   6.226 -0.1521 -0.1854 -0.0236
34860W        W41460  12.992   7.080  31.218  0.0199 -0.0747 -0.1662
34861W        W41461   5.352   2.049  31.532 -0.1661  0.2989 -0.2310
34862W        W41462  25.004   1.684  28.392 -0.1439  0.2131  0.3420
34863W        W41463  23.220   4.799   0.529  0.0025  0.3599 -0.0442
34864W        W41464   9.855   5.070  32.381 -0.1094  0.0524 -0.0947
34865W        W41465   4.233   3.119   6.801 -0.0117  0.0069  0.3721
34866W        W41466   7.265   2.866   4.266 -0.1647  0.0309 -0.0281
34867W        W41467  10.187   2.945  30.998 -0.0505 -0.5814  0.1845
34868W        W41468   3.764   0.731  25.959 -0.0168  0.2295 -0.0919
34869W        W41469  15.825   0.828  23.887 -0.0379 -0.1576 -0.1666
34870W        W41470  21.293   5.803  26.544 -0.0686  0.1409 -0.2288
34871W        W41471  19.791   2.301   7.984 -0.1790  0.2374  0.0085
34872W        W41472  10.237   7.089   7.703  0.0454 -0.1324  0.0088
34873W        W41473  19.612   5.171   9.687 -0.2249  0.2317  0.1720
34874W        W41474  11.985   1.572  25.002  0.2010  0.3196 -0.1336
34875W        W41475  14.800   5.306  30.074  0.2059 -0.2160  0.0875
34876W        W41476  11.631   3.850   9.834  0.1301 -0.0088 -0.1453
34877W        W41477  11.072   6.082  28.798  0.2002 -0.1262  0.0420
34878W        W41478  23.084   6.324  25.673 -0.3826 -0.3060 -0.0172
34879W        W41479  24.448   1.558   9.951  0.0507  0.5765  0.4399
34880W        W41480  22.146   7.293  13.050  0.0986  0.0133 -0.0747
34881W        W41481  19.292   4.197  25.597  0.0680  0.0017  0.0389
34882W        W41482   1.879   1.345  25.715 -0.0367  0.0939  0.0960
34883W        W41483   4.158   1.590  20.730 -0.1751  0.0519  0.0030
34884W        W41484   2.739   5.998  28.435  0.1195  0.1161  0.5361
34885W        W41485  15.744   2.789  29.007 -0.2219 -0.2422  0.0313
34886W        W41486  20.882   2.721   4.769  0.2427  0.1574 -0.0664
34887W        W41487  21.554   3.638   0.090 -0.0719 -0.0678  0.0205
34888W        W41488   1.639   1.638  17.893  0.2603 -0.0657 -0.0861
34889W        W41489  17.363   3.234  22.481 -0.1171 -0.1368 -0.1475
34890W        W41490   8.569   5.229  23.163  0.0970 -0.2741 -0.2334
34891W        W41491  19.258   4.792   8.561 -0.0811 -0.3011 -0.0360
34892W        W41492  14.842   1.006  32.300 -0.1811  0.0536  0.1625
34893W        W41493  17.835   6.316  31.259  0.0606 -0.1669  0.1551
34894W        W41494  14.786   6.956  31.037 -0.0793  0.0200 -0.1802
34895W        W41495  19.428   6.720  27.405 -0.0756  0.0749  0.1406
34896W        W41496  19.654   2.465   3.800 -0.2678 -0.0741  0.0505
34897W        W41497  14.007   0.975  26.089  0.1670  0.0315 -0.2787
34898W        W41498  14.342   1.243  29.382  0.2907  0.0454  0.1081
34899W        W41499   9.922   1.069   4.948 -0.0160  0.0827  0.1703
34900W        W41500  11.911   7.127  23.546  0.0491  0.1078 -0.1456
34901W        W41501  10.995   7.817   0.681 -0.0843  0.1008  0.0021
34902W        W41502  15.921   0.261   2.856 -0.0704 -0.1463 -0.2814
34903W        W41503  18.045   7.672   0.968 -0.0695 -0.0245  0.1843
34904W        W41504  21.173   6.592  30.875  0.0210 -0.0317 -0.0289
34905W        W41505   2.524   0.448   9.639 -0.1844  0.0296 -0.1585
34906W        W41506  22.145   2.177  15.143  0.0375  0.2260 -0.3202
34907W        W41507  18.699   0.597   8.638  0.2146  0.0448 -0.2228
34908W        W41508   8.341   6.089   3.420 -0.0725  0.1732  0.4024
34909W        W41509  25.047   4.277  30.323  0.2470 -0.2521 -0.5056
34910W        W41510   4.686   3.561  15.996 -0.2117 -0.2152  0.2805
34911W        W41511   9.548   0.004   5.544 -0.0608  0.3665  0.1366
34912W        W41512   0.199   6.280  12.896 -0.0954 -0.0524 -0.1336
34913W        W41513  19.026   5.488   2.797 -0.1796 -0.2617  0.0629
34914W        W41514  25.086   6.088  31.185  0.0900  0.3584 -0.3685
34915W        W41515   2.393   0.693  18.749 -0.1451 -0.2257 -0.1750
34916W        W41516   8.117   4.099   8.536 -0.1020 -0.2436  0.2686
34917W        W41517  10.274   6.814  30.908  0.1887  0.4822 -0.0351
34918W        W41518  17.358   6.150   0.829 -0.1555 -0.1539  0.1634
34919W        W41519   0.276   5.143  27.970  0.2073  0.0768  0.0602
34920W        W41520   0.781   7.435  32.348  0.1423  0.3364 -0.0556
34921W        W41521   0.899   6.944   8.018  0.0531 -0.2181 -0.3603
34922W        W41522  11.780   5.422  11.078 -0.0650 -0.0100 -0.0298
34923W        W41523  16.336   3.209  10.789 -0.0184 -0.1005 -0.4094
34924W        W41524   4.444   0.488  28.654  0.0584  0.1575 -0.2496
34925W        W41525  22.020   3.472   3.284  0.1026 -0.0743 -0.2878
34926W        W41526   0.670   0.209  12.103 -0.3906  0.1048  0.1814
34927W        W41527  15.510   3.361  11.487  0.1501  0.1932  0.0785
34928W        W41528  14.997   5.853  14.866 -0.1163 -0.0120 -0.0742
34929W        W41529  15.900   6.484   8.513  0.0404  0.2241 -0.2174
34930W        W41530   6.683   5.318  16.700 -0.0349 -0.1552  0.1438
34931W        W41531   8.144   1.498   4.116  0.0104 -0.1937 -0.0992
34932W        W41532   0.734   6.284  27.629 -0.1060  0.0887  0.1392
34933W        W41533  24.561   7.293  30.651 -0.2447  0.1894  0.2080
34934W        W41534  21.404   3.711  30.338  0.1477  0.0139  0.2674
34935W        W41535   1.930   5.412  20.373  0.3161 -0.0694  0.0501
34936W        W41536   5.873   6.044   5.098  0.2355 -0.1155  0.1106
34937W        W41537   0.258   0.621  31.436  0.0501  0.5473  0.1066
34938W        W41538  20.352   5.063  22.406 -0.2655  0.0758  0.0447
34939W        W41539  16.401   7.561   8.320 -0.1180  0.1083  0.0600
34940W        W41540  14.188   0.126   5.411  0.0697  0.0542  0.0585
34941W        W41541   0.561   0.945   5.517 -0.1009 -0.2143 -0.0180
34942W        W41542   6.700   4.389   6.423 -0.1584  0.1358 -0.0382
34943W        W41543  22.908   3.524  25.000  0.0359 -0.2015 -0.0702
34944W        W41544  14.393   1.947  21.276  0.0970  0.0318  0.1654
34945W        W41545  19.039   7.855   7.058 -0.0592 -0.3087  0.1251
34946W        W41546  10.538   5.413  10.730  0.1575 -0.1064 -0.0664
34947W        W41547  17.266   3.290  14.465  0.2065 -0.1073  0.1648
34948W        W41548  23.361   1.561  12.604  0.1431 -0.0750  0.0193
34949W        W41549  20.890   2.689   7.621  0.1025  0.0459 -0.0178
34950W        W41550  17.395   4.505   6.406  0.3699 -0.1290 -0.0349
34951W        W41551   0.042   1.240  32.057 -0.0145 -0.0459 -0.3930
34952W        W41552   6.594   4.330  14.757 -0.1445  0.0242  0.4822
34953W        W41553  20.274   3.034  12.660  0.1124  0.0356 -0.0524
34954W        W41554  15.284   3.340   5.566 -0.0002  0.3184  0.0999
34955W        W41555  19.103   4.807  23.019 -0.1051 -0.3376  0.1984
34956W        W41556  20.008   6.227  15.472 -0.2204  0.0858 -0.2809
34957W        W41557  15.335   4.165  13.445  0.1641  0.0997  0.3262
34958W        W41558  11.968   0.869  24.197  0.0645 -0.3890  0.0616
34959W        W41559   9.970   6.355  32.579 -0.1577 -0.0262 -0.0048
34960W        W41560   2.585   1.780   9.702  0.0543 -0.1852  0.2297
34961W        W41561   4.516   4.170  21.959 -0.0460 -0.3264 -0.0638
34962W        W41562  18.485   6.488  29.167  0.2855  0.1251  0.0024
34963W        W41563  17.058   1.902   8.766 -0.0871 -0.0456 -0.0212
34964W        W41564   9.505   3.933  24.277 -0.1957 -0.6375  0.2192
34965W        W41565  19.937   0.033  27.895  0.0646 -0.1187  0.1053
34966W        W41566  17.157   2.298  27.753 -0.0966 -0.1562  0.0055
34967W        W41567  19.330   4.432  13.706 -0.2131  0.0982  0.2115
34968W        W41568  19.624   6.190  23.836 -0.0793  0.0336  0.1185
34969W        W41569  15.339   0.663  14.850  0.3322  0.0596 -0.1067
34970W        W41570   3.594   5.120   5.421 -0.5500 -0.3902 -0.0756
34971W        W41571  17.030   5.406   2.522  0.4515 -0.0920 -0.0544
34972W        W41572   6.962   0.091  29.540  0.0927 -0.0617 -0.1132
34973W        W41573  10.146   6.009  25.995  0.0332  0.0147 -0.3450
34974W        W41574   9.297   4.917  31.909  0.0160  0.1693 -0.0343
34975W        W41575  16.695   5.676  14.160 -0.3167 -0.0607 -0.1047
34976W        W41576  10.342   7.212   1.630 -0.2879  0.0711  0.2870
34977W        W41577  12.013   3.239  25.498  0.1780 -0.1808 -0.0344
34978W        W41578  16.289   7.192   5.422 -0.0334 -0.0551  0.0355
34979W        W41579  19.592   6.638  26.100 -0.0682 -0.1078  0.1484
34980W        W41580   9.588   3.451   4.840  0.0941  0.0306 -0.0626
34981W        W41581  19.863   5.693   5.703  0.1920  0.3924  0.0670
34982W        W41582  23.643   3.301  11.504  0.5241  0.2724  0.0334
34983W        W41583  10.004   1.030   0.065  0.0798  0.0521  0.0414
34984W        W41584  22.933   2.951   6.709  0.0776  0.0213 -0.0707
34985W        W41585   9.233   4.224  32.190  0.0589 -0.1488 -0.0453
34986W        W41586  17.624   5.613  27.244 -0.3040  0.1397  0.2401
34987W        W41587   7.606   5.757  21.021  0.0311  0.3394 -0.1876
34988W        W41588  20.648   7.169  26.350 -0.1129  0.3193 -0.1078
34989W        W41589  10.096   4.558   8.440 -0.1413 -0.1396 -0.3712
34990W        W41590  13.566   6.548  23.526 -0.0110  0.0602  0.1111
34991W        W41591   7.854   3.962  26.747  0.0538  0.2314  0.2391
34992W        W41592   5.081   1.652   4.386 -0.3100  0.2115 -0.2999
34993W        W41593  24.841   7.051   5.043  0.1363 -0.2706 -0.0324
34994W        W41594  22.907   3.555  31.146 -0.3665  0.0681 -0.1448
34995W        W41595  13.302   7.332   6.325  0.2407  0.1517 -0.2519
34996W        W41596  23.492   1.371   7.763 -0.0997  0.1395  0.0371
34997W        W41597   4.771   6.040   9.014 -0.1152 -0.1057  0.1895
34998W        W41598   8.873   2.135  20.062 -0.0463 -0.0013  0.1237
34999W        W41599   6.591   0.229   4.943 -0.0997 -0.0551 -0.1260
35000W        W41600  21.023   4.043  16.289  0.0182  0.0611  0.0298
35001W        W41601   9.688   4.167  32.498  0.0666  0.1873 -0.2235
35002W        W41602  14.339   3.660   5.307 -0.1302 -0.1231 -0.0370
35003W        W41603  16.439   0.012  12.425  0.1996  0.0482 -0.1463
35004W        W41604  20.913   0.764  30.182  0.0623  0.0207 -0.2753
35005W        W41605   9.439   0.320  32.293  0.1494  0.0739 -0.2950
35006W        W41606  12.675   3.279  31.534  0.0122 -0.0997 -0.0856
35007W        W41607   4.047   5.058  27.614  0.1869  0.1885 -0.1345
35008W        W41608  21.631   7.737  24.197  0.3085  0.1033  0.3359
35009W        W41609  13.124   2.450  11.641  0.1115  0.0577 -0.0461
35010W        W41610   6.048   1.363  24.010 -0.0385 -0.1985 -0.0015
35011W        W41611  21.429   3.373   7.629 -0.1364  0.0924  0.3171
35012W        W41612  13.682   6.755   9.876  0.1144  0.4187  0.2758
35013W        W41613  10.491   0.814   4.859  0.2039  0.0274 -0.1488
35014W        W41614  22.866   5.247   3.885 -0.1154  0.0596 -0.1825
35015W        W41615   2.345   3.479  25.008 -0.1054 -0.1107  0.0929
35016W        W41616  17.972   0.593  26.409 -0.0335 -0.1223  0.0148
35017W        W41617   2.337   6.795  32.546 -0.0174 -0.0216  0.0888
35018W        W41618   2.624   4.588   4.700  0.3848 -0.3264  0.0749
35019W        W41619  17.429   3.956   0.837  0.0077  0.0924 -0.1627
35020W        W41620  10.012   5.057  21.849 -0.0659  0.0760  0.1969
35021W        W41621  22.895   2.237  28.158 -0.0853  0.0024  0.0816
35022W        W41622   1.535   5.242  22.189 -0.2701 -0.1975 -0.5326
35023W        W41623   8.623   5.240  20.717  0.3804 -0.1434  0.1119
35024W        W41624  22.189   2.560  11.504 -0.1514  0.2105  0.0706
35025W        W41625   1.708   6.638  18.575  0.0881 -0.0292  0.0497
35026W        W41626  19.029   2.363   5.123 -0.0663  0.1574  0.2982
35027W        W41627  11.618   0.476  22.902  0.5634  0.3079 -0.2331
35028W        W41628  20.666   3.118  13.942 -0.0171 -0.0319 -0.1067
35029W        W41629   0.847   0.406  24.349 -0.2607 -0.0467 -0.1574
35030W        W41630   5.406   5.884   9.286  0.1498  0.1887 -0.1763
35031W        W41631  11.062   4.682  19.605  0.0965  0.1488  0.1894
35032W        W41632  17.273   5.424   0.579  0.1464  0.0412 -0.0415
35033W        W41633  22.388   0.284  26.962 -0.4879 -0.0082 -0.2692
35034W        W41634   0.367   0.014  11.725 -0.0901 -0.2267  0.0765
35035W        W41635   7.341   5.298   7.342 -0.2076 -0.1234  0.0874
35036W        W41636   5.175   6.390  20.465  0.0649  0.1336 -0.2408
35037W        W41637  22.458   1.296  22.549 -0.0788 -0.2577  0.1930
35038W        W41638  22.264   6.833  12.189 -0.3578  0.2658 -0.1272
35039W        W41639  19.075   4.992  10.668 -0.0149  0.2598 -0.2166
35040W        W41640   9.246   2.267  23.135 -0.2096 -0.2241 -0.2811
35041W        W41641  23.810   1.614  13.488  0.0401 -0.0876  0.2633
35042W        W41642  10.602   4.005   5.267  0.0705 -0.6500  0.2318
35043W        W41643  22.102   4.331   9.120  0.0233  0.2504 -0.0386
35044W        W41644  15.021   5.668  29.743  0.0677 -0.1065 -0.0716
35045W        W41645  15.581   1.527   7.765  0.1553  0.1102 -0.0819
35046W        W41646  20.911   3.057  22.176  0.0399 -0.1015  0.2202
35047W        W41647   6.404   5.518  23.740 -0.2072 -0.3731  0.0641
35048W        W41648  17.111   4.105   9.751 -0.1612 -0.1796 -0.3834
35049W        W41649  14.104   7.005  24.034 -0.0119  0.0117  0.0247
35050W        W41650  24.459   6.179  26.336 -0.2675 -0.0708 -0.0681
35051W        W41651  17.720   3.275  14.156  0.3752  0.1741 -0.0566
35052W        W41652  13.456   0.674  25.857  0.0795  0.1199  0.0751
35053W        W41653  14.316   2.840  28.457  0.0648  0.2988  0.2400
35054W        W41654  21.101   5.023   3.841  0.1519 -0.2161  0.0201
35055W        W41655   5.933   6.960  30.414 -0.1349 -0.0921 -0.3480
35056W        W41656  22.123   0.628   9.815  0.1385 -0.0950  0.4024
35057W        W41657  17.109   7.728   1.134 -0.2132 -0.1026 -0.0653
35058W        W41658  18.472   2.149  28.248  0.0587 -0.0044 -0.0043
35059W        W41659  22.497   0.547   0.074 -0.1241 -0.1043  0.2067
35060W        W41660   6.969   3.016  29.376 -0.5182 -0.0328 -0.2340
35061W        W41661  17.212   2.330  12.813  0.2810  0.0568  0.1007
35062W        W41662   0.613   2.665  30.604 -0.2774  0.4238  0.0742
35063W        W41663   0.096   7.469  11.525 -0.0048  0.1454 -0.2559
35064W        W41664   3.887   0.092   6.873  0.1278 -0.3071  0.0632
35065W        W41665  24.441   7.208  13.697 -0.2239 -0.0356 -0.1740
35066W        W41666  18.899   7.293   7.330  0.4974  0.3199  0.1056
35067W        W41667   7.489   5.834  18.638  0.0058  0.0428  0.0709
35068W        W41668   9.831   6.350   8.696 -0.0941  0.1659  0.1022
35069W        W41669   6.862   2.358  25.454 -0.1010 -0.1632  0.2632
35070W        W41670  17.451   0.321  22.914  0.1807  0.0506  0.0652
35071W        W41671   8.286   4.131  23.611  0.0489 -0.3271  0.0537
35072W        W41672  19.119   7.688  15.868  0.2228 -0.0284  0.2142
35073W        W41673  18.876   2.188  24.632  0.0854 -0.1779 -0.3008
35074W        W41674   7.717   1.604  19.850  0.0469  0.0834  0.2964
35075W        W41675   4.976   4.277  11.011 -0.4118  0.1331 -0.0072
35076W        W41676  17.513   1.005  17.935  0.1781 -0.1839  0.0720
35077W        W41677  16.484   6.214   5.714  0.3380 -0.0332  0.3249
35078W        W41678   2.930   7.235   8.031  0.0156  0.1138 -0.2612
35079W        W41679   4.946   3.341  29.205 -0.0783  0.3226  0.0045
35080W        W41680  19.576   6.189  30.255  0.1410 -0.2262  0.1732
35081W        W41681   0.916   4.298  26.078 -0.1161 -0.1116  0.1412
35082W        W41682   0.563   0.391  27.703 -0.1244  0.0111 -0.2470
35083W        W41683  21.618   5.959   0.456 -0.0269  0.0426 -0.0134
35084W        W41684  13.740   2.547  26.651 -0.0288  0.2636  0.1076
35085W        W41685  17.590   5.478   3.531  0.2308  0.1140 -0.1177
35086W        W41686   2.556   6.949   4.804  0.2429 -0.0297 -0.1318
35087W        W41687   2.614   5.556   1.294  0.2398  0.1147  0.0927
35088W        W41688   1.811   6.439   9.261 -0.2967 -0.0923 -0.1077
35089W        W41689  21.982   1.344  24.469 -0.0195 -0.0937 -0.4312
35090W        W41690  22.395   4.959  29.017  0.0141 -0.0582 -0.0069
35091W        W41691   1.777   1.822   2.163  0.1860  0.0466 -0.2316
35092W        W41692   1.937   4.469  26.649 -0.2960  0.2012 -0.0819
35093W        W41693   9.666   5.483  19.892  0.0615  0.3631 -0.0948
35094W        W41694   7.214   0.991  10.248  0.4036 -0.2040  0.0484
35095W        W41695  24.895   5.551   2.555 -0.2094 -0.0299 -0.0854
35096W        W41696   4.337   1.752   5.992  0.1405 -0.2575 -0.0378
35097W        W41697  19.432   4.519  16.435  0.0085 -0.2707 -0.0110
35098W        W41698  20.383   0.335   0.577  0.0841  0.0357 -0.2149
35099W        W41699   3.182   2.677  22.449  0.0534  0.0998 -0.0356
35100W        W41700  22.691   0.280  32.268 -0.1235  0.2770  0.3919
35101W        W41701  22.291   6.973   6.752  0.5380 -0.2364  0.0636
35102W        W41702   3.659   6.965   3.585  0.0114  0.1329  0.0900
35103W        W41703   7.190   7.009  21.098 -0.0149  0.0185 -0.0288
35104W        W41704  15.386   0.055  21.226  0.0548 -0.0385 -0.2007
35105W        W41705   5.851   3.783  25.966 -0.1337 -0.0986 -0.3759
35106W        W41706   3.761   3.134   2.017 -0.2331 -0.1754  0.0620
35107W        W41707   8.089   7.017   5.136 -0.0637 -0.0498 -0.2093
35108W        W41708   7.110   3.719  26.137  0.2114  0.1294 -0.1286
35109W        W41709  13.650   6.621   4.790  0.1127  0.1653 -0.2331
35110W        W41710  22.928   2.972   3.138  0.1366  0.0193 -0.1737
35111W        W41711  17.741   1.333   5.311 -0.0951 -0.3938 -0.4309
35112W        W41712   7.151   5.152  32.042  0.1172 -0.2233 -0.1608
35113W        W41713  15.821   7.830  27.742 -0.2712 -0.1424  0.0256
35114W        W41714   6.332   3.288   7.737  0.2827 -0.3823 -0.1223
35115W        W41715   0.030   6.484  29.309 -0.1270 -0.0666 -0.1429
35116W        W41716  22.284   2.088   9.707 -0.1192  0.0961 -0.0500
35117W        W41717  20.604   0.190  25.075 -0.1362 -0.2584  0.0720
35118W        W41718  13.467   4.914  11.044 -0.0317 -0.0937  0.0348
35119W        W41719  15.857   1.249   8.810 -0.0937 -0.0984  0.1363
35120W        W41720   6.075   4.172  31.633  0.0421  0.1298  0.1993
35121W        W41721  23.945   5.497   1.418 -0.2093 -0.0231 -0.0207
35122W        W41722  13.606   0.154   5.447  0.4003  0.2889 -0.0167
35123W        W41723  15.820   2.923   7.701 -0.0302 -0.1501  0.2112
35124W        W41724   4.641   4.178   0.979 -0.0739  0.0930  0.0792
35125W        W41725   2.510   3.574  20.900  0.0164  0.0974  0.1144
35126W        W41726  20.406   3.105  24.074  0.0276  0.2266  0.0802
35127W        W41727   3.322   7.654  18.521 -0.1712 -0.0626 -0.1711
35128W        W41728  18.330   3.710  12.908 -0.0701 -0.0876 -0.0555
35129W        W41729  22.958   0.365  15.167  0.1505 -0.2206  0.3297
35130W        W41730  24.269   7.182   2.757  0.0486  0.0844  0.1910
35131W        W41731   5.272   0.168   7.186 -0.1987 -0.3734 -0.5778
35132W        W41732   4.157   4.063  30.025 -0.0099  0.0539 -0.0537
35133W        W41733  11.635   7.824  22.341 -0.0825  0.0669  0.2612
35134W        W41734  18.423   1.781  32.446  0.0252 -0.1080 -0.1729
35135W        W41735  20.234   4.351  14.808 -0.1158  0.0506 -0.0986
35136W        W41736  17.142   1.708  31.291  0.1326 -0.2408  0.1871
35137W        W41737  13.272   3.907  21.098 -0.0656 -0.1124 -0.1026
35138W        W41738   3.679   0.469   1.516 -0.2177 -0.1074 -0.2914
35139W        W41739   7.035   5.749  18.443 -0.0446 -0.2752  0.0142
35140W        W41740  15.153   0.650  10.788 -0.0700  0.2149 -0.0958
35141W        W41741  18.222   5.920  24.551  0.2269 -0.0282 -0.0221
35142W        W41742  24.278   0.270   3.490 -0.4085  0.0720 -0.0391
35143W        W41743  18.344   2.718  22.558  0.0014  0.3678 -0.2724
35144W        W41744   4.128   7.647  28.114  0.1562 -0.1031  0.3142
35145W        W41745   3.016   5.790   1.029  0.1335  0.2612  0.1933
35146W        W41746  19.896   6.288   5.669 -0.0984  0.2218 -0.1232
35147W        W41747   2.808   6.310   3.359  0.0755  0.0301  0.0492
35148W        W41748   2.625   5.434  17.508 -0.1985  0.1663 -0.0330
35149W        W41749  19.871   3.630  11.889 -0.1786  0.0666  0.0944
35150W        W41750  16.379   0.166  11.665 -0.1240  0.0774 -0.3023
35151W        W41751   3.037   2.677  10.032 -0.1903 -0.0491  0.1982
35152W        W41752  15.454   1.336  15.453  0.1522  0.4500  0.1216
35153W        W41753  18.335   2.502  11.412  0.0847  0.0960 -0.0676
35154W        W41754  20.467   1.705  22.774 -0.0899  0.2718  0.0064
35155W        W41755   9.342   3.592   9.461  0.0215  0.2412 -0.0555
35156W        W41756   3.698   3.770  21.578  0.1772 -0.2273  0.0211
35157W        W41757  21.177   5.964  15.956 -0.1193 -0.1393  0.0031
35158W        W41758  18.220   1.956   6.659  0.3940  0.1290  0.1084
35159W        W41759   1.298   4.120  13.251  0.2079  0.0515 -0.0081
35160W        W41760  17.391   7.716  26.408 -0.1197  0.0496 -0.1464
35161W        W41761  18.557   1.588   2.239 -0.1320  0.1329 -0.1047
35162W        W41762  23.166   0.090  13.128 -0.3865  0.1776  0.1746
35163W        W41763  19.437   1.440  14.953 -0.0028  0.1432 -0.0188
35164W        W41764  16.169   6.183   6.689 -0.0873  0.1205  0.2890
35165W        W41765  16.930   4.206  15.074  0.2828  0.0461 -0.0110
35166W        W41766   9.338   6.965  26.157  0.1830  0.0855 -0.1258
35167W        W41767  23.836   4.516   6.706 -0.1297 -0.1508 -0.2622
35168W        W41768  24.235   5.462   9.868 -0.2647 -0.1250 -0.3713
35169W        W41769  19.859   4.990  15.246 -0.5393 -0.1521 -0.2187
35170W        W41770  22.840   4.880   8.776 -0.2537 -0.3426  0.0156
35171W        W41771  21.104   0.743  24.845  0.0587 -0.0606  0.2401
35172W        W41772   4.773   5.279   4.855  0.4180 -0.0311 -0.0601
35173W        W41773  21.187   2.901  15.806 -0.1063 -0.0496 -0.0647
35174W        W41774  19.318   3.939   5.560 -0.1434  0.1675 -0.1337
35175W        W41775   1.320   4.020  27.542 -0.1312  0.3159 -0.3939
35176W        W41776   0.344   7.117  31.820  0.0914 -0.1814  0.0506
35177W        W41777  12.034   2.593  11.848 -0.0347  0.1900 -0.0137
35178W        W41778  12.595   2.432  32.266  0.2053 -0.2906  0.1240
35179W        W41779  12.088   1.400  22.684 -0.0616 -0.4118  0.1356
35180W        W41780  16.256   4.511  24.619 -0.0125  0.1934  0.1286
35181W        W41781   6.431   5.414   9.994 -0.3483  0.0137  0.0886
35182W        W41782  22.894   0.301  25.174 -0.1020  0.0696  0.1055
35183W        W41783   3.068   1.434  29.358 -0.3070  0.1010 -0.0771
35184W        W41784   8.701   3.689  27.398 -0.0377 -0.0969  0.3339
35185W        W41785  10.345   7.091   8.250  0.1473  0.2680  0.3177
35186W        W41786   8.864   0.264  16.877  0.3366 -0.1307  0.3196
35187W        W41787  15.682   1.107   6.275 -0.3991 -0.1219 -0.2054
35188W        W41788   7.636   7.103  29.866 -0.0514  0.2466  0.1503
35189W        W41789  21.882   4.559  27.509 -0.0381 -0.1332  0.2802
35190W        W41790   8.408   6.176  25.624  0.2112 -0.1249  0.0420
35191W        W41791   9.499   4.234  25.885  0.0975  0.4528 -0.0474
35192W        W41792   0.148   2.673  27.378  0.1650 -0.3845  0.0551
35193W        W41793  17.808   4.668  25.521 -0.0631  0.1936  0.1085
35194W        W41794  10.101   1.536  21.872 -0.0026  0.1151 -0.0442
35195W        W41795  23.831   1.065  11.432  0.1542  0.0451 -0.2498
35196W        W41796  14.727   4.550  12.401  0.1050 -0.0901 -0.3684
35197W        W41797   5.100   6.213  10.177 -0.2491 -0.1401 -0.2309
35198W        W41798   4.822   6.358  23.170 -0.0126 -0.0119 -0.0524
35199W        W41799   9.293   6.005  25.562 -0.1333 -0.1628  0.1822
35200W        W41800  13.746   7.070   6.485 -0.0639 -0.1209 -0.2359
35201W        W41801  24.314   4.998  13.618  0.1532 -0.3021  0.3393
35202W        W41802   0.015   3.318   8.626 -0.2934 -0.0212  0.0442
35203W        W41803  19.060   1.603  27.090  0.2109 -0.0593 -0.0207
35204W        W41804  23.068   1.796   0.468  0.0993  0.0119 -0.3232
35205W        W41805  24.960   2.845  27.761 -0.1977  0.0467 -0.1770
35206W        W41806  17.046   4.116  24.701 -0.0798 -0.0229 -0.0612
35207W        W41807  16.181   4.893  30.847  0.0545  0.0860  0.0302
35208W        W41808  15.284   2.673  28.732 -0.0532  0.0056 -0.1520
35209W        W41809  15.354   0.660  23.781 -0.1913 -0.0493 -0.1378
35210W        W41810  11.374   0.381   8.362  0.1694 -0.0284  0.0550
35211W        W41811  19.738   4.489  31.572 -0.0800 -0.4094 -0.1294
35212W        W41812  12.142   7.386   3.728  0.1929  0.1268  0.0272
35213W        W41813  17.611   7.832   4.255 -0.1173 -0.1932 -0.1895
35214W        W41814   1.665   1.488  30.477  0.4975 -0.1851  0.1667
35215W        W41815   8.831   3.065  30.176  0.3142  0.1408  0.1295
35216W        W41816  22.573   5.145  27.625  0.3448 -0.2312  0.3137
35217W        W41817  24.369   0.776   3.567 -0.0342 -0.1897  0.3617
35218W        W41818  10.302   3.889  25.450 -0.0639 -0.0394 -0.1041
35219W        W41819  17.237   6.692  28.565  0.1867  0.0581 -0.0640
35220W        W41820  23.209   4.915   1.452 -0.1926 -0.3788 -0.1016
35221W        W41821   9.060   4.652  16.990  0.1806 -0.3267  0.3403
35222W        W41822   0.339   6.159  26.357  0.0487 -0.0622 -0.1626
35223W        W41823  13.392   7.005  32.220 -0.0088  0.1510 -0.1349
35224W        W41824   4.112   5.236   5.535  0.1937  0.1376 -0.1503
35225W        W41825  17.887   7.614  31.077 -0.2266 -0.2110  0.1084
35226W        W41826  19.037   2.914   5.819 -0.3498 -0.2409  0.0806
35227W        W41827   9.505   1.626  24.435  0.0082  0.0611 -0.2476
35228W        W41828  14.080   7.463  14.017 -0.1073 -0.0219  0.0420
35229W        W41829   8.250   5.356   6.420 -0.0907  0.0722  0.0792
35230W        W41830  23.450   4.635   3.411 -0.4569 -0.1209  0.0969
35231W        W41831  23.248   3.155  14.391 -0.2291  0.0446  0.0216
35232W        W41832   8.117   0.544  18.066  0.0554 -0.1631 -0.1667
35233W        W41833  23.165   3.894  11.046  0.0796  0.4792  0.1184
35234W        W41834  20.075   3.379  17.598  0.0246 -0.0480  0.0807
35235W        W41835  10.558   1.358  22.265  0.2198 -0.5158  0.0460
35236W        W41836  25.046   4.789   7.151 -0.3070  0.1743  0.1564
35237W        W41837  17.253   3.825  30.904 -0.0671  0.0820 -0.1208
35238W        W41838   8.485   1.872   3.384  0.0976 -0.4096 -0.1059
35239W        W41839   2.438   2.184   6.805 -0.0566 -0.3418  0.0681
35240W        W41840  19.457   7.737  27.946  0.0344  0.3089 -0.1050
35241W        W41841   4.419   3.881  29.596 -0.0914  0.0180 -0.0593
35242W        W41842   9.612   1.373  19.040 -0.0038 -0.0431 -0.0534
35243W        W41843  21.581   2.517   0.084  0.0987 -0.2126  0.1180
35244W        W41844   7.306   6.718  27.077  0.1861  0.1919  0.1031
35245W        W41845   8.656   7.583   3.176  0.1268 -0.0237 -0.1393
35246W        W41846  19.327   6.108   9.374 -0.1524 -0.0016  0.1792
35247W        W41847  10.695   2.872  29.528  0.1357  0.1548 -0.1801
35248W        W41848   0.653   3.134   4.012 -0.2088 -0.3514 -0.0914
35249W        W41849  23.744   0.975  10.746 -0.0839  0.1697 -0.2998
35250W        W41850  12.105   3.734   0.881  0.1135  0.2750  0.0205
35251W        W41851  16.997   6.808  26.197 -0.0120  0.0176 -0.0765
35252W        W41852   3.545   2.587  25.464 -0.1389  0.2331 -0.0942
35253W        W41853  23.069   0.336   3.170  0.0689 -0.2267 -0.2476
35254W        W41854   6.911   7.128  26.141  0.0383  0.0533  0.1778
35255W        W41855  22.013   6.063  28.306  0.0568 -0.1389  0.0925
35256W        W41856  17.268   4.275  10.905 -0.2180 -0.1356  0.0968
35257W        W41857   0.888   0.950  22.175  0.1388  0.0877 -0.1077
35258W        W41858   1.133   6.195   5.088  0.1446  0.0083  0.0859
35259W        W41859  21.477   5.870   3.241  0.2344 -0.2635 -0.1462
35260W        W41860  13.066   4.753   2.051  0.0886 -0.3250  0.1767
35261W        W41861  11.885   3.243   6.402  0.0703 -0.0108  0.2605
35262W        W41862   1.442   4.633  24.563  0.0163  0.1796  0.1368
35263W        W41863   0.884   1.910   4.184 -0.2853  0.2001 -0.1792
35264W        W41864  24.984   0.002   0.142  0.2118  0.1048  0.1422
35265W        W41865   0.857   1.892   2.691  0.0579 -0.2685  0.2377
35266W        W41866   5.503   7.701  22.343 -0.2682  0.0422 -0.2934
35267W        W41867   6.902   3.388  14.763  0.4032  0.0577  0.0361
35268W        W41868  20.926   5.757  23.488  0.1877 -0.1113 -0.1690
35269W        W41869  19.117   4.494   6.079  0.1772  0.0438 -0.0600
35270W        W41870   8.887   3.045  19.203 -0.0916  0.1852 -0.1259
35271W        W41871  12.318   3.037   5.261  0.1450 -0.3325  0.0184
35272W        W41872  23.413   4.041   7.985 -0.3377 -0.3227  0.1946
35273W        W41873  12.303   1.508  21.518  0.0184  0.2958  0.1319
35274W        W41874  21.690   4.208  27.217 -0.0985  0.1223 -0.0043
35275W        W41875   9.196   4.004   3.772  0.0474  0.1204 -0.1616
35276W        W41876  10.249   2.668  20.042  0.1427 -0.1213  0.0892
35277W        W41877  16.849   0.496  10.704  0.1492 -0.2302 -0.0449
35278W        W41878  20.122   4.727  10.627  0.2707  0.0363 -0.2690
35279W        W41879  19.982   3.893   3.486 -0.2545 -0.2665 -0.2493
35280W        W41880   6.864   4.621  19.993 -0.1789  0.2295 -0.1120
35281W        W41881   7.340   6.652  31.261  0.0885  0.0352 -0.0915
35282W        W41882  22.474   4.312   0.380 -0.2400  0.0789 -0.2712
35283W        W41883  20.936   0.533  28.932  0.1555  0.1567 -0.2477
35284W        W41884  14.148   5.503   8.225  0.4278 -0.0280 -0.3018
35285W        W41885  20.579   6.187  22.491 -0.0707  0.1224  0.2302
35286W        W41886   9.975   5.724  31.318 -0.0311 -0.4361 -0.1374
35287W        W41887  21.762   7.142   6.616  0.1592  0.1511  0.0528
35288W        W41888  19.100   7.756   5.208 -0.0533 -0.0250  0.1091
35289W        W41889  19.323   0.014  15.412  0.3309 -0.2504 -0.2602
35290W        W41890  20.751   5.438  11.796  0.1384  0.0185  0.1804
35291W        W41891  24.301   1.470  27.248  0.2575 -0.2025  0.0554
35292W        W41892   6.530   6.442   1.263  0.0364  0.0550 -0.5682
35293W        W41893   6.239   1.630  16.301 -0.2204  0.0341 -0.1508
35294W        W41894   4.434   6.472   1.287 -0.2715  0.0219  0.2373
35295W        W41895   7.544   3.446   7.371  0.1572 -0.0996  0.0439
35296W        W41896  25.062   6.271   9.007  0.1443 -0.2723 -0.4198
35297W        W41897   9.587   5.210  23.119  0.1031 -0.4023 -0.0217
35298W        W41898  16.525   6.299  13.470 -0.1813  0.0504  0.0865
35299W        W41899  14.164   3.525  23.551  0.1923  0.0531 -0.1279
35300W        W41900  21.684   1.480  26.231 -0.2201  0.2098 -0.1232
35301W        W41901  16.515   4.701  24.171 -0.0782 -0.1103  0.0116
35302W        W41902  17.314   7.703  14.829  0.5521  0.2446 -0.2255
35303W        W41903  10.114   6.347  30.543  0.1421 -0.0613  0.0086
35304W        W41904   7.217   3.446  29.595  0.0293 -0.0319  0.2135
35305W        W41905  16.328   7.665  30.490 -0.0789 -0.1840 -0.1100
35306W        W41906   2.056   3.817  24.693 -0.0826 -0.3508  0.0388
35307W        W41907   6.555   5.833   8.627 -0.2032 -0.0764  0.0857
35308W        W41908   8.971   1.957  27.432 -0.0518 -0.0470  0.3590
35309W        W41909   2.194   6.345   5.308  0.3709 -0.0613 -0.1782
35310W        W41910   3.298   0.325  32.154 -0.0548  0.1238 -0.0207
35311W        W41911  16.254   5.592  11.368 -0.0620 -0.0205  0.3222
35312W        W41912  19.740   3.017  26.342  0.2381  0.0630 -0.0823
35313W        W41913  16.469   5.364  14.447  0.1343  0.0361  0.0904
35314W        W41914   0.114   1.714  25.353  0.2025 -0.2911 -0.0236
35315W        W41915   1.009   2.761  31.581 -0.0315 -0.3499 -0.1487
35316W        W41916  16.210   5.018   3.812  0.0225  0.0638  0.0420
35317W        W41917  19.024   7.765  25.595 -0.2494 -0.1209  0.1318
35318W        W41918  16.750   1.891  32.403  0.1127  0.0324 -0.2249
35319W        W41919  11.182   0.660  25.642  0.1713  0.0530  0.0435
35320W        W41920  13.890   6.190  23.718  0.1867  0.0947  0.2473
35321W        W41921   4.565   2.371  30.474  0.3388 -0.0362 -0.1434
35322W        W41922  11.356   1.119  21.637  0.2114 -0.2292  0.2790
35323W        W41923  17.313   2.867   7.705 -0.1517  0.0206  0.2233
35324W        W41924  21.714   1.684  11.126 -0.2001 -0.1394  0.0471
35325W        W41925   7.932   3.408  15.332  0.3985  0.0094 -0.0363
35326W        W41926  24.077   7.116  31.437  0.0397 -0.1120 -0.1787
35327W        W41927  19.781   4.983   8.547 -0.0191 -0.2099 -0.1967
35328W        W41928  13.321   1.677  19.811 -0.0102  0.0212  0.1481
35329W        W41929   2.097   6.601  17.843  0.2471 -0.0825 -0.0894
35330W        W41930   4.927   0.141   1.559  0.2086  0.2471 -0.0768
35331W        W41931  19.818   3.239   5.654 -0.1084 -0.1565 -0.0358
35332W        W41932   0.171   0.755  22.859  0.1173 -0.1938 -0.0540
35333W        W41933  19.506   2.310  15.163  0.2283 -0.3213  0.1159
35334W        W41934  11.596   0.527   1.009 -0.2302  0.2375  0.2072
35335W        W41935  12.641   5.764  20.332 -0.0348  0.2805  0.1720
35336W        W41936   4.222   5.537  27.576 -0.0353  0.2602  0.2593
35337W        W41937   9.599   4.881  25.697  0.0438 -0.0498 -0.3065
35338W        W41938  21.614   1.884  16.657  0.1056  0.1574  0.1248
35339W        W41939  13.495   3.300  21.291 -0.1623 -0.0099 -0.0243
35340W        W41940  11.232   0.352  16.385 -0.0648 -0.0807 -0.1367
35341W        W41941  21.891   3.309  15.853 -0.4220  0.1132 -0.1123
35342W        W41942  13.460   5.956   2.317 -0.1568 -0.0130  0.2537
35343W        W41943  20.565   4.745  14.154  0.2133 -0.2598  0.1104
35344W        W41944  18.508   6.661  13.857 -0.0601  0.2738  0.1488
35345W        W41945   5.599   7.419  30.675  0.2201  0.0307  0.1270
35346W        W41946  16.289   2.365   1.492  0.1433  0.1443  0.2048
35347W        W41947   9.990   2.426  27.693  0.0200 -0.0418 -0.1215
35348W        W41948  11.086   7.370   5.855 -0.0712  0.2308 -0.0273
35349W        W41949  13.934   1.912   4.082  0.3199 -0.0049  0.0321
35350W        W41950   0.976   5.862  20.745 -0.0953 -0.2868 -0.0522
35351W        W41951  14.548   2.114  26.697  0.1612  0.2488 -0.0317
35352W        W41952  22.105   7.237  11.507  0.3132 -0.2434  0.2804
35353W        W41953   6.296   3.106   1.917 -0.2292 -0.1865 -0.0442
35354W        W41954  22.061   1.614  26.797  0.1585 -0.1121  0.2066
35355W        W41955  10.375   4.826  31.026  0.0461  0.3598 -0.0438
35356W        W41956  21.702   2.705  25.756  0.2899  0.0106 -0.0112
35357W        W41957   3.727   6.984   9.023  0.0530 -0.0042  0.0787
35358W        W41958  23.895   3.796  11.401  0.0162  0.0680  0.0005
35359W        W41959   2.968   7.346   5.647  0.1222  0.3199 -0.1239
35360W        W41960  25.091   5.965  21.676  0.3289 -0.0906  0.1242
35361W        W41961  18.763   5.579  16.472  0.0707  0.3178 -0.2545
35362W        W41962  21.014   7.080   3.044  0.0503  0.0176  0.0891
35363W        W41963   4.657   4.481   8.212 -0.1635 -0.1296  0.3524
35364W        W41964   1.517   4.306  27.024 -0.0663  0.2255 -0.0449
35365W        W41965  18.199   2.095   4.622  0.1541  0.1277  0.1755
35366W        W41966  16.869   1.422   8.918 -0.0920 -0.2496 -0.2144
35367W        W41967  14.088   1.964   2.020  0.0228  0.1167  0.0543
35368W        W41968   7.363   5.453   5.128 -0.1356 -0.1574  0.2273
35369W        W41969  12.778   7.711  25.567 -0.0105 -0.0549 -0.1688
35370W        W41970  11.882   1.413   8.548  0.0685 -0.0468  0.1355
35371W        W41971  14.057   2.692   0.024  0.1586  0.0197  0.0610
35372W        W41972  23.529   2.212  22.234  0.1212 -0.1689  0.1813
35373W        W41973  14.707   0.438  31.998 -0.1327  0.1934 -0.0482
35374W        W41974  12.554   0.093   1.474  0.1088  0.0743 -0.2001
35375W        W41975  23.497   7.204  22.381 -0.1393 -0.1022 -0.2353
35376W        W41976  14.994   6.600  30.627 -0.4206 -0.3105  0.0649
35377W        W41977   2.462   6.009  29.836  0.1740  0.1773 -0.0245
35378W        W41978  19.720   3.403   1.359  0.1866  0.0966  0.0199
35379W        W41979   9.746   1.017   8.845 -0.2410  0.3147  0.0613
35380W        W41980   1.085   7.789  24.752 -0.1993 -0.0034 -0.2862
35381W        W41981  19.153   7.299   7.762 -0.1460 -0.4289 -0.0182
35382W        W41982  11.547   6.095  23.663 -0.2441 -0.0725  0.2606
35383W        W41983   5.731   7.204  32.446 -0.0345  0.0150  0.0919
35384W        W41984  14.959   2.817  30.640 -0.0243  0.2679  0.2977
35385W        W41985  20.379   4.817  14.971 -0.0492  0.1870  0.2100
35386W        W41986  20.879   1.438  16.487  0.0780 -0.1996  0.0511
35387W        W41987   4.151   0.865  16.030 -0.1911 -0.1767  0.1539
35388W        W41988  13.946   7.089   3.086 -0.1618 -0.0960 -0.2068
35389W        W41989   9.000   7.664  21.597  0.2436  0.0626 -0.1829
35390W        W41990   4.163   1.194  27.657  0.0683  0.0764 -0.1077
35391W        W41991  14.955   1.181  26.142 -0.2843 -0.3709 -0.0808
35392W        W41992  12.345   6.190   1.546 -0.2312 -0.3242  0.3474
35393W        W41993  20.638   4.513  13.680 -0.0407 -0.1370 -0.1447
35394W        W41994   5.519   4.053  26.278 -0.2076  0.0984 -0.2115
35395W        W41995   5.925   7.739  20.043  0.2763 -0.2035 -0.1008
35396W        W41996   5.970   4.745  17.718  0.1365  0.0453  0.2534
35397W        W41997  10.580   3.060   1.777  0.1833  0.0593  0.0128
35398W        W41998   9.255   1.046   4.196 -0.1512 -0.4427  0.1021
35399W        W41999   2.636   4.931  20.350 -0.3089 -0.0495  0.0495
35400W        W42000  13.712   6.505  12.630 -0.0699 -0.0171  0.1192
35401W        W42001  22.981   7.709   2.293 -0.1513  0.1816 -0.0267
35402W        W42002  25.016   2.602  13.735 -0.3006 -0.1249 -0.1265
35403W        W42003  18.113   2.321   0.435 -0.0066 -0.3043  0.4455
35404W        W42004  16.155   6.612  14.869  0.0051  0.2909  0.0419
35405W        W42005  18.697   5.819   9.455  0.0856  0.3635 -0.1756
35406W        W42006   5.105   1.374  28.203 -0.2162  0.1059  0.0773
35407W        W42007   5.375   3.954  25.839  0.0588  0.1630  0.2946
35408W        W42008  22.530   7.125  32.197 -0.1761 -0.5769 -0.3332
35409W        W42009   8.389   6.545  23.107  0.0237 -0.2040 -0.0146
35410W        W42010  17.947   1.218   1.589  0.1087 -0.0346 -0.1082
35411W        W42011  24.015   4.924   6.382 -0.2573  0.1382  0.0755
35412W        W42012   2.039   4.139   6.367  0.2649  0.0307 -0.2312
35413W        W42013  22.907   0.781   6.908  0.0069  0.1976  0.0339
35414W        W42014   6.641   0.148  17.774  0.0669 -0.2725 -0.3141
35415W        W42015  13.992   7.475  32.534 -0.0474  0.0897 -0.2261
35416W        W42016  13.249   3.847  26.797 -0.0771 -0.3548  0.0640
35417W        W42017   3.541   2.824   1.649  0.1163  0.2117  0.3146
35418W        W42018  14.892   2.415   4.588 -0.0199 -0.0174  0.1771
35419W        W42019   6.557   2.188  32.078 -0.0130  0.2003 -0.1718
35420W        W42020  20.613   3.800  27.691 -0.0750 -0.0345 -0.1397
35421W        W42021   4.346   1.175  25.450 -0.0963 -0.0768  0.0413
35422W        W42022  20.106   2.962   5.048 -0.0042  0.2147 -0.0816
35423W        W42023   6.297   7.350  19.505 -0.0113  0.1135  0.0923
35424W        W42024  17.760   4.701   3.062 -0.0618 -0.1842  0.2419
35425W        W42025   8.581   1.249  27.969 -0.1079  0.2988 -0.1548
35426W        W42026   0.508   7.319   2.693 -0.2845  0.2792 -0.1043
35427W        W42027   2.119   4.884   9.188 -0.0732 -0.0475 -0.0951
35428W        W42028  15.303   1.783  24.443  0.1001  0.1208 -0.0843
35429W        W42029  16.884   1.011   5.407  0.1147 -0.0889 -0.1808
35430W        W42030   2.069   4.087  30.851  0.0153  0.2409 -0.0871
35431W        W42031   1.888   5.298  24.936  0.1834 -0.1847  0.3480
35432W        W42032  14.795   1.502  22.585  0.0146 -0.0763 -0.1860
35433W        W42033  13.138   5.422   9.173 -0.2115 -0.1269 -0.1783
35434W        W42034  11.345   6.075  25.384  0.1763 -0.0190  0.0578
35435W        W42035   5.150   6.523  21.784  0.2035  0.0310 -0.1330
35436W        W42036   6.017   3.334   4.544 -0.0005  0.0485  0.2888
35437W        W42037  14.020   0.148  29.125 -0.2130 -0.1401 -0.0011
35438W        W42038   5.143   3.753   3.007  0.0186  0.1516  0.0817
35439W        W42039   3.557   7.023  16.351 -0.0659 -0.0378 -0.1866
35440W        W42040   1.692   3.165  29.308 -0.0035  0.0051 -0.1327
35441W        W42041  19.264   5.640  10.215  0.0958  0.3191 -0.1729
35442W        W42042  10.170   4.802   6.174  0.0170  0.1325 -0.1058
35443W        W42043  24.279   4.698   1.276  0.0166 -0.0364 -0.2326
35444W        W42044   9.835   5.790  26.899 -0.0228  0.5324 -0.0706
35445W        W42045   8.354   5.219   2.596 -0.0440  0.2393 -0.3217
35446W        W42046   1.163   0.556   7.410  0.3357  0.1417 -0.1731
35447W        W42047   2.282   0.623  10.437 -0.0193  0.1806 -0.1519
35448W        W42048  23.808   2.156   4.080 -0.4024  0.0376  0.0395
35449W        W42049  12.582   0.661   2.196 -0.0069 -0.0003  0.1200
35450W        W42050   4.310   0.062   1.624 -0.0591  0.3455 -0.1273
35451W        W42051   8.348   3.698  28.472  0.2104  0.1864 -0.3240
35452W        W42052  21.273   6.092  29.576  0.2231 -0.0957  0.1895
35453W        W42053   2.551   0.811   2.562 -0.0665  0.0899 -0.1415
35454W        W42054   8.897   0.509   0.268 -0.3937  0.1996  0.0666
35455W        W42055   6.494   2.163   2.345 -0.4836  0.0319 -0.0030
35456W        W42056  14.403   7.713  22.175 -0.1648  0.0285  0.2557
35457W        W42057  14.623   3.443   2.473 -0.1671  0.2098 -0.0215
35458W        W42058  18.416   2.392  29.874 -0.3242  0.1493 -0.0657
35459W        W42059   2.954   4.027  26.528  0.0511 -0.0155  0.0787
35460W        W42060   9.759   6.843  27.756  0.0300 -0.0675  0.2393
35461W        W42061   3.848   6.312  25.366  0.2627  0.1725 -0.1204
35462W        W42062   4.248   5.409   6.261  0.1139  0.0638 -0.3048
35463W        W42063   8.915   7.671  27.897  0.3304 -0.0354  0.1214
35464W        W42064  11.502   5.815  11.061 -0.0740  0.0367  0.1174
35465W        W42065   8.005   2.087   4.421 -0.2149  0.1343 -0.2723
35466W        W42066   9.377   0.304  26.784 -0.0302 -0.0304  0.1029
35467W        W42067  10.070   5.607  32.166  0.1709  0.2563 -0.0232
35468W        W42068  14.486   6.801  11.483  0.1324 -0.1714 -0.3166
35469W        W42069   0.397   5.728   2.486  0.0690  0.2216  0.0155
35470W        W42070  10.162   4.395   2.558  0.2246 -0.4378 -0.3360
35471W        W42071   1.021   6.949   9.329 -0.1832 -0.1933  0.0031
35472W        W42072  23.863   3.294   2.767  0.1421  0.4307  0.0676
35473W        W42073   0.628   2.603  18.686  0.1658  0.1457 -0.0242
35474W        W42074  19.769   6.914  32.370  0.0268  0.1177 -0.1425
35475W        W42075  12.955   4.741  22.039  0.3025  0.0814  0.0300
35476W        W42076  23.816   5.111   2.155 -0.0465 -0.0219 -0.0726
35477W        W42077   3.947   2.828   5.508  0.0183  0.1903 -0.0624
35478W        W42078  20.946   1.224   8.533  0.1291 -0.1897  0.0468
35479W        W42079   5.897   2.391   8.134  0.0549 -0.1856  0.0971
35480W        W42080  23.943   1.574   5.501  0.3922 -0.2040 -0.2767
35481W        W42081   3.502   3.960   9.350 -0.1293  0.2264  0.2553
35482W        W42082  14.996   5.056  29.642  0.0121 -0.4096  0.2251
35483W        W42083  21.469   3.352   2.794 -0.3037 -0.1717  0.0351
35484W        W42084  12.164   0.674  29.135  0.1741  0.0067  0.0500
35485W        W42085  17.220   0.375   3.472 -0.1196  0.1022 -0.4778
35486W        W42086   0.011   1.811   0.743 -0.3228 -0.1350  0.0094
35487W        W42087  19.056   2.154   0.809  0.0800 -0.0846 -0.1185
35488W        W42088  16.159   6.274  22.198  0.0279 -0.1104  0.1489
35489W        W42089  19.748   5.865   9.814  0.0292 -0.0418 -0.3883
35490W        W42090  18.275   5.992  29.285 -0.0725 -0.0214  0.2489
35491W        W42091   8.435   4.370  16.364 -0.2791 -0.2327  0.4400
35492W        W42092  23.268   1.172  22.028  0.1757  0.0243 -0.0611
35493W        W42093  13.598   7.159   0.076 -0.1130  0.4835 -0.0472
35494W        W42094   3.411   3.739  30.320 -0.0558 -0.1190 -0.0406
35495W        W42095  22.846   7.715  11.375  0.0977  0.5269  0.1970
35496W        W42096   9.075   5.827  21.312  0.1357 -0.1364 -0.2687
35497W        W42097  12.417   6.118   0.478  0.3236 -0.0738 -0.0583
35498W        W42098   9.749   7.423  16.135  0.0744 -0.1421 -0.1114
35499W        W42099   0.090   4.864  22.944  0.1954  0.1729 -0.2143
35500W        W42100  18.117   3.650   8.948 -0.2985  0.0739  0.5912
35501W        W42101   2.438   0.042  27.136 -0.0800  0.0155 -0.2475
35502W        W42102  11.061   6.524   4.106 -0.1393 -0.0197  0.0459
35503W        W42103  10.341   7.848  29.775  0.2817  0.0886 -0.0758
35504W        W42104  20.641   7.834   2.680  0.1005  0.0006 -0.0849
35505W        W42105   2.106   6.367  25.800  0.0347 -0.3513  0.2346
35506W        W42106   1.320   1.155  30.695 -0.0145 -0.0658 -0.1311
35507W        W42107  20.469   0.480  30.215  0.0883 -0.2279 -0.2433
35508W        W42108  11.969   6.364   5.366  0.1416 -0.4635  0.3923
35509W        W42109  22.123   1.653   7.928  0.0688 -0.3995  0.1106
35510W        W42110  21.448   6.870  25.404 -0.0860 -0.1801  0.0254
35511W        W42111   6.569   7.134   5.486  0.0370  0.0710 -0.0036
35512W        W42112  17.699   1.360  12.508 -0.1226  0.2887 -0.1462
35513W        W42113   2.447   0.725   7.253  0.1460 -0.0307 -0.4539
35514W        W42114  24.409   5.118  11.248  0.0134 -0.0074  0.0947
35515W        W42115  17.977   1.417  11.646 -0.2814  0.4014 -0.2833
35516W        W42116  15.862   6.624   4.028  0.0548 -0.0800  0.0341
35517W        W42117  24.455   1.007  28.808  0.2682 -0.2064 -0.1126
35518W        W42118   5.284   7.649   4.028 -0.0469 -0.0060 -0.0498
35519W        W42119   6.823   0.910  24.180  0.1707  0.2028  0.0552
35520W        W42120   1.268   5.715  10.247  0.0518 -0.1697 -0.1392
35521W        W42121   5.183   3.679  16.246 -0.1982  0.3267  0.1867
35522W        W42122  20.677   0.391  23.479  0.0341  0.2153 -0.0753
35523W        W42123   6.715   1.722  15.282 -0.0813  0.0442  0.2732
35524W        W42124  17.880   7.640  16.166  0.0837  0.2540 -0.1127
35525W        W42125   9.188   3.235   8.444 -0.1419 -0.0078  0.0485
35526W        W42126  13.444   7.432  23.598  0.0345 -0.0199 -0.0215
35527W        W42127   2.533   0.482  18.347  0.2342  0.1777 -0.2640
35528W        W42128  11.245   5.006   5.404 -0.2808  0.0527  0.0742
35529W        W42129   9.874   2.792  30.614 -0.0316 -0.0181 -0.1130
35530W        W42130   0.314   7.783  25.288 -0.0224  0.2364 -0.1364
35531W        W42131   3.550   6.689   9.616  0.0954  0.2907 -0.0753
35532W        W42132  14.285   3.093   6.164  0.0263 -0.1451 -0.0022
35533W        W42133   7.845   7.237  18.380 -0.0902 -0.1506  0.1743
35534W        W42134  24.298   0.831  10.719  0.1404 -0.0341 -0.5176
35535W        W42135  15.475   0.293   9.119 -0.0001  0.0374  0.1286
35536W        W42136  18.789   3.918  27.289  0.0069 -0.0241  0.0249
35537W        W42137  18.773   1.701  17.935  0.1683 -0.1201  0.0809
35538W        W42138  15.863   2.478  10.433  0.0715  0.3540 -0.2076
35539W        W42139  15.878   7.146   7.743  0.0641 -0.1154 -0.1084
35540W        W42140  16.402   1.388   1.018 -0.0826 -0.1128 -0.2277
35541W        W42141  20.467   1.524  28.942 -0.1178 -0.1102 -0.0294
35542W        W42142  22.766   6.488  13.284 -0.1808 -0.2205 -0.2534
35543W        W42143   2.658   1.868   1.364  0.0447  0.1178 -0.0415
35544W        W42144  16.827   7.412  26.908  0.1361  0.2159 -0.0550
35545W        W42145  16.922   1.128  22.801  0.1411  0.0988  0.2637
35546W        W42146   6.545   5.495  17.657  0.0038  0.3314 -0.1467
35547W        W42147   6.642   0.536  13.944  0.2506  0.1045 -0.0957
35548W        W42148   3.979   1.167   3.584 -0.0803 -0.0366  0.5920
35549W        W42149  23.735   7.683  23.065  0.1286  0.4192  0.1097
35550W        W42150  22.239   7.390   3.370  0.1853 -0.0584  0.1284
35551W        W42151   0.702   7.817   0.725  0.1795 -0.2529  0.2583
35552W        W42152  10.609   0.157  24.752  0.0304 -0.1758  0.0398
35553W        W42153  10.938   1.411  24.458  0.0453 -0.1835 -0.3262
35554W        W42154   9.040   6.726  16.073 -0.0621  0.2591 -0.1448
35555W        W42155   2.137   2.850  29.996  0.0630 -0.3289  0.0780
35556W        W42156  15.983   2.071   2.495  0.2800  0.1822  0.0544
35557W        W42157  20.939   4.671  10.973 -0.1668 -0.0347  0.2324
35558W        W42158   9.495   2.043   7.451  0.1085  0.4684 -0.0762
35559W        W42159   9.276   0.534   1.144  0.1771  0.2926  0.3610
35560W        W42160  18.551   4.420   7.674 -0.0375  0.1242  0.0031
35561W        W42161   0.537   0.534   9.298  0.4923 -0.2068  0.1400
35562W        W42162  15.417   2.329  12.607 -0.1214  0.0221  0.1785
35563W        W42163   3.388   6.687  28.175  0.0004  0.2219  0.2224
35564W        W42164   5.280   0.109   9.349 -0.2776 -0.2357 -0.3421
35565W        W42165  22.885   2.315  10.574  0.4710 -0.0892 -0.1387
35566W        W42166  10.487   2.819  21.448 -0.2236 -0.4803  0.1591
35567W        W42167   0.987   0.614  17.904 -0.0127  0.0805  0.2458
35568W        W42168   5.866   4.288   2.274  0.0857  0.0715  0.0872
35569W        W42169  16.208   0.254  13.867 -0.2112 -0.1993  0.2014
35570W        W42170   0.993   1.516   6.626 -0.1233  0.2709 -0.5129
35571W        W42171  11.726   3.897   1.259  0.1914 -0.2770 -0.4044
35572W        W42172   4.611   5.550  19.032 -0.0468 -0.0470  0.1465
35573W        W42173   9.573   6.660  23.652 -0.0411 -0.2415 -0.2075
35574W        W42174   3.752   5.339  10.068  0.0770 -0.1010  0.1771
35575W        W42175  18.538   7.111  14.164  0.1954 -0.1491 -0.2156
35576W        W42176   1.377   1.443  21.364  0.1908  0.0383  0.1665
35577W        W42177   5.150   4.242   1.082 -0.1355  0.0540 -0.1096
35578W        W42178  19.533   5.743  26.577 -0.0161  0.1598 -0.3117
35579W        W42179  13.280   2.859  12.791  0.0080  0.3305 -0.1555
35580W        W42180  23.338   1.710   8.189 -0.1862  0.0261  0.0722
35581W        W42181  18.577   5.066  17.263 -0.3243  0.1440 -0.3626
35582W        W42182  24.129   6.783  28.492 -0.0041  0.0752  0.1988
35583W        W42183   5.465   5.654  28.486 -0.0082  0.0721  0.0176
35584W        W42184   4.108   1.410   4.632 -0.2232  0.0167 -0.0069
35585W        W42185  17.208   4.404   3.865  0.0891  0.1310 -0.0974
35586W        W42186  15.136   1.612  27.766  0.1099  0.2438  0.0512
35587W        W42187   4.134   4.155  25.481 -0.1308  0.1501  0.1763
35588W        W42188  12.914   0.852  26.352  0.0204 -0.0896 -0.1202
35589W        W42189  16.405   6.139  30.224 -0.1416  0.3769  0.3053
35590W        W42190   2.082   4.660  17.138  0.0066 -0.0398  0.0616
35591W        W42191  14.286   4.759   2.732 -0.0885  0.2897 -0.1823
35592W        W42192  18.233   7.229  16.182 -0.1223  0.1367 -0.0108
35593W        W42193  13.276   3.393   1.910  0.0124  0.0035 -0.0664
35594W        W42194  11.424   4.332  29.737  0.0091 -0.0695  0.2810
35595W        W42195   3.599   4.594  19.797  0.2358  0.0925  0.0881
35596W        W42196  16.293   2.599  10.828 -0.1647  0.2199  0.1161
35597W        W42197  12.015   0.608   6.840 -0.0933  0.1147  0.3891
35598W        W42198   0.873   2.730   8.876 -0.3238  0.2453 -0.4466
35599W        W42199  11.927   4.920  31.596  0.1092 -0.0127  0.2363
35600W        W42200   6.529   6.534   6.447 -0.0602 -0.3845  0.3558
35601W        W42201   6.643   7.474  21.817  0.2177 -0.2308  0.1181
35602W        W42202  23.341   7.460   9.247  0.0057  0.1211  0.1359
35603W        W42203  18.123   7.722   0.428  0.1767  0.0547 -0.0749
35604W        W42204  19.473   0.293   4.736 -0.1320  0.2373  0.3158
35605W        W42205  20.491   7.529  24.978 -0.1877 -0.0908 -0.3338
35606W        W42206  19.026   2.238   0.006  0.1147  0.2698  0.0010
35607W        W42207   3.957   2.388  25.300  0.0983  0.0194  0.0764
35608W        W42208  16.618   5.491   7.174 -0.0102  0.0393  0.0993
35609W        W42209  10.811   2.950  22.247 -0.1366  0.2525  0.0267
35610W        W42210  17.940   0.781  11.121 -0.2058  0.4172  0.1701
35611W        W42211   4.687   7.494   8.268  0.2177 -0.0689 -0.1290
35612W        W42212  14.424   6.956   2.917  0.1761 -0.2380  0.1042
35613W        W42213  15.295   3.011  29.149 -0.0313  0.0174  0.1924
35614W        W42214   1.584   2.307  22.086 -0.0931 -0.0305  0.1679
35615W        W42215  20.714   3.344   8.965  0.0933 -0.0240 -0.0805
35616W        W42216  18.029   3.090  30.138 -0.0075 -0.2838 -0.0737
35617W        W42217  21.650   1.485  23.558 -0.0837 -0.0518 -0.0752
35618W        W42218  12.107   1.713   1.427  0.1087 -0.0658  0.0588
35619W        W42219   9.546   6.000  32.192  0.0295  0.1649 -0.0890
35620W        W42220   2.724   0.567   5.500  0.0386 -0.0936  0.0647
35621W        W42221  16.541   6.752  22.668 -0.2491  0.0273 -0.2654
35622W        W42222   4.137   6.249  28.295  0.0592  0.1353  0.1772
35623W        W42223   7.606   6.629   3.663  0.0887  0.1318  0.2485
35624W        W42224   0.097   3.326   0.829  0.0642  0.1847  0.0106
35625W        W42225   0.124   0.863  12.628  0.2742  0.0164 -0.0490
35626W        W42226   3.251   1.166  29.858 -0.0850 -0.2406 -0.2674
35627W        W42227  20.648   2.100  10.739 -0.1427 -0.1522  0.0769
35628W        W42228  24.664   2.209  31.113  0.1853  0.0083 -0.0803
35629W        W42229  17.954   2.936   5.240  0.1159  0.0586  0.1871
35630W        W42230  11.147   5.265  27.868  0.0181  0.0664 -0.0818
35631W        W42231  12.161   7.438  30.685 -0.1214 -0.0272 -0.0264
35632W        W42232  23.736   6.319   1.753 -0.0722 -0.0913 -0.0684
35633W        W42233  22.881   3.827   4.161 -0.2674  0.1542 -0.2423
35634W        W42234   6.008   2.915  29.227 -0.1085 -0.1536  0.0523
35635W        W42235   4.399   0.393  15.965  0.0301 -0.2590 -0.3441
35636W        W42236  18.493   0.543   2.647  0.0712 -0.0861  0.0901
35637W        W42237  12.350   4.711  29.021  0.2833 -0.2168  0.0070
35638W        W42238  16.388   2.523  12.573 -0.1232  0.0809  0.1343
35639W        W42239   1.414   6.386  22.811 -0.0308 -0.1500  0.1393
35640W        W42240  10.415   2.288  10.537 -0.1759  0.0040  0.0675
35641W        W42241  12.765   1.687  28.649 -0.0175 -0.1264 -0.1381
35642W        W42242  18.937   3.339  32.185  0.0347  0.0143  0.2956
35643W        W42243  16.305   0.053   3.614 -0.0692 -0.0497 -0.0186
35644W        W42244  13.056   4.707  26.356  0.2540  0.1084  0.1013
35645W        W42245  21.675   0.465  13.419 -0.0726 -0.1791 -0.2125
35646W        W42246  15.436   7.277  25.125 -0.0453 -0.1158  0.0991
35647W        W42247  17.625   1.995   2.613 -0.0526  0.0317  0.3825
35648W        W42248  19.686   1.084  15.631  0.2441  0.1990 -0.0044
35649W        W42249  18.772   1.491  13.246  0.0398  0.0292  0.2242
35650W        W42250  11.529   1.354  24.061  0.3557 -0.2121  0.1241
35651W        W42251   6.525   4.858   8.323 -0.0658 -0.0695  0.0066
35652W        W42252   8.273   2.546   3.982  0.1181  0.1110 -0.1677
35653W        W42253  20.645   1.872  29.526  0.1549  0.1459  0.1636
35654W        W42254  12.405   2.604  29.439  0.1236 -0.1176  0.1276
35655W        W42255   1.311   6.031  26.422 -0.1271 -0.0682 -0.2452
35656W        W42256  17.180   5.713   7.263 -0.1112  0.0129  0.1587
35657W        W42257  21.033   2.639   4.259  0.1947 -0.0680 -0.2740
35658W        W42258  20.921   7.025  11.199 -0.1695  0.0003  0.0023
35659W        W42259  15.336   6.734  14.688  0.2262  0.4183  0.1759
35660W        W42260  22.205   4.665   9.554  0.0400 -0.0363  0.2202
35661W        W42261  10.965   3.914  17.258  0.2281  0.1001 -0.1450
35662W        W42262  17.876   7.580  13.247  0.1214  0.2327 -0.2003
35663W        W42263   3.849   7.763  18.491  0.1913 -0.1760 -0.0197
35664W        W42264  10.000   4.649  17.346  0.4751 -0.1188 -0.4253
35665W        W42265  12.880   5.937   2.490  0.0298 -0.0711  0.0269
35666W        W42266  14.984   6.333  29.030  0.2340 -0.0425  0.0460
35667W        W42267  22.503   1.655   3.197  0.3830  0.1425 -0.2307
35668W        W42268  11.375   4.993   6.868 -0.1184 -0.2110 -0.1119
35669W        W42269  20.142   2.380  31.418 -0.0363 -0.1935  0.1634
35670W        W42270  22.261   7.084  14.928  0.2674 -0.2263  0.0861
35671W        W42271  22.911   6.875  10.912 -0.0274 -0.3490  0.0820
35672ION     NA42272  21.763   7.724   2.586  0.1446  0.1645 -0.0352
35673ION     NA42273   8.331   3.348  20.733  0.1105  0.0893 -0.2580
35674ION     NA42274  11.118   6.659  30.064 -0.0446  0.1255  0.0316
35675ION     NA42275  12.451   3.577   2.280  0.2785 -0.2079 -0.0732
35676ION     NA42276   2.949   7.629   5.937  0.1358  0.1184 -0.6433
35677ION     NA42277   9.296   1.481   7.227 -0.2474 -0.1998 -0.4377
35678ION     NA42278  15.204   0.967   9.297 -0.0772 -0.5270 -0.0112
35679ION     NA42279  21.402   6.239  30.200  0.2861 -0.4316 -0.0367
35680ION     NA42280   0.382   4.681  24.648  0.2158 -0.1450  0.1334
35681ION     NA42281  15.153   2.247   0.118  0.5076 -0.3120 -0.0490
35682ION     NA42282  20.409   3.445   1.470  0.0844 -0.0444 -0.2972
35683ION     NA42283  14.472   4.303  11.920 -0.3550  0.0872  0.2447
35684ION     NA42284  11.531   2.062   9.707  0.0416 -0.1528  0.5139
35685ION     NA42285   2.971   2.145  28.013 -0.0039 -0.0465 -0.0004
35686ION     NA42286  24.982   6.123   0.505  0.3052  0.0542 -0.3185
35687ION     NA42287  17.157   0.549  26.069 -0.0698 -0.0550  0.3116
35688ION     NA42288  11.189   4.391  25.833 -0.0097 -0.4181  0.3944
35689ION     NA42289  16.722   1.196  27.847  0.2116 -0.2724  0.2443
35690ION     NA42290  13.293   2.008   9.946  0.0667 -0.1552  0.0686
35691ION     NA42291   6.539   4.392  24.428 -0.1572 -0.4274 -0.2093
35692ION     NA42292   1.846   0.312  25.250  0.3122  0.2401 -0.2402
35693ION     NA42293  20.649   4.655  24.625  0.2008  0.0086 -0.2116
35694ION     NA42294  17.078   0.780   3.479 -0.0491 -0.0581  0.0159
35695ION     NA42295  19.671   0.139  28.837  0.1833  0.2880 -0.0448
35696ION     NA42296   2.273   0.283   7.448 -0.0330 -0.0705  0.2421
35697ION     NA42297   4.415   6.909  29.460  0.3549  0.1018  0.2004
35698ION     NA42298   9.837   5.675   9.440 -0.2269 -0.0286  0.0094
35699ION     NA42299   9.169   2.535  18.169  0.0081 -0.1294 -0.4424
35700ION     NA42300  24.955   0.274  13.077 -0.2204  0.2643 -0.8117
35701ION     NA42301  13.984   4.145   0.453  0.3476 -0.0657 -0.0072
35702ION     NA42302  25.104   3.044  20.442 -0.1911 -0.1353  0.1263
35703ION     NA42303  17.681   0.773   9.466  0.1042  0.0299 -0.1138
35704ION     NA42304   4.772   6.159  19.619  0.0156  0.3488 -0.1912
35705ION     NA42305  12.880   1.612   8.443 -0.2164 -0.2160  0.2339
35706ION     NA42306  18.704   0.937  12.489 -0.5212 -0.0998 -0.1009
35707ION     NA42307  12.860   5.038   4.567  0.0819  0.0983 -0.1204
35708ION     NA42308  13.699   4.334  27.766 -0.1319  0.8147  0.1123
35709ION     NA42309  17.115   0.977   6.718  0.0315  0.1051 -0.3811
35710ION     NA42310  17.554   2.428   8.446  0.0897  0.0090  0.0622
35711ION     NA42311   9.366   6.488   2.322 -0.1088  0.2706 -0.0551
35712ION     NA42312  10.596   7.590  30.000  0.3926 -0.0191  0.2232
35713ION     NA42313  23.732   0.987  30.445 -0.0872 -0.1120  0.0183
35714ION     NA42314   6.553   0.314  15.716  0.1372  0.8282  0.0167
35715ION     NA42315  19.352   5.097  23.824 -0.6558  0.1219 -0.1129
35716ION     NA42316  19.331   6.699  23.133  0.0964  0.0857  0.3509
35717ION     NA42317  16.288   0.079  32.433 -0.2790  0.5082  0.6743
35718ION     NA42318   4.395   3.998   3.984 -0.3070  0.0840 -0.0938
35719ION     NA42319  19.334   5.741  29.345  0.3589 -0.0427  0.2794
35720ION     NA42320  21.424   5.474  10.141 -0.0570 -0.2831 -0.1644
35721ION     NA42321  12.399   3.613   9.802 -0.3877 -0.0405 -0.1088
35722ION     NA42322  22.579   6.208   2.851 -0.1674  0.1116 -0.2307
35723ION     NA42323   5.427   4.945  22.450 -0.0209  0.1153  0.2723
35724ION     NA42324  24.929   3.820  29.384  0.1618  0.1761 -0.5528
35725ION     NA42325  20.391   1.849  10.397  0.2023 -0.2891 -0.1988
35726ION     NA42326   5.444   2.583   4.960 -0.4118  0.4797  0.0813
35727ION     NA42327  25.012   3.594  25.746 -0.3636  0.3817 -0.0032
35728ION     NA42328  22.623   1.346  29.906  1.0467  0.1511  0.3069
35729ION     NA42329  14.945   2.584   9.481 -0.1315  0.2516 -0.2304
35730ION     NA42330  18.333   2.240  23.342 -0.3677  0.0136 -0.2109
35731ION     NA42331  15.203   3.824  28.555 -0.0113  0.2520  0.2531
35732ION     NA42332   1.407   1.938  28.269 -0.2796 -0.0011  0.0590
35733ION     NA42333  10.580   3.437   2.313  0.3132 -0.4208 -0.2017
35734ION     NA42334  17.083   5.486   9.800 -0.2700  0.7302 -0.0890
35735ION     NA42335  20.421   0.468  11.473  0.1876 -0.0895  0.7586
35736ION     NA42336  11.386   3.795   5.345  0.4175  0.0909 -0.1025
35737ION     NA42337   7.049   3.864  23.705  0.5765 -0.3880  0.3974
35738ION     NA42338   1.688   5.225   6.777 -0.1062  0.0053 -0.3935
35739ION     NA42339   5.689   1.170   3.460  0.1098  0.4020  0.3406
35740ION     NA42340   7.387   4.634  22.792  0.4151 -0.1964  0.1341
35741ION     NA42341  19.341   3.239   2.233 -0.1183 -0.2290  0.0823
35742ION     NA42342  12.983   0.309  27.710 -0.1398  0.2765  0.1968
35743ION     NA42343  17.480   0.274  24.339  0.0476  0.0353 -0.0864
35744ION     NA42344  20.136   1.187   0.681  0.1101  0.0452  0.2921
35745ION     NA42345  21.376   6.114   0.778  0.2142  0.1553  0.0827
35746ION     NA42346  25.118   7.576   6.800  0.2122 -0.4308 -0.1276
35747ION     NA42347  24.670   0.821  13.171 -0.4975 -0.6036 -0.0030
35748ION     NA42348   7.680   5.048  19.330  0.0316 -0.1222 -0.3120
35749ION     NA42349   4.182   7.415  30.792 -0.3321 -0.1357 -0.1240
35750ION     NA42350  10.002   2.536  25.050  0.0783 -0.1733 -0.0372
35751ION     NA42351   9.649   5.973  31.234  0.2002  0.1851  0.0158
35752ION     NA42352   5.444   1.374   4.511  0.4346  0.3556  0.2864
35753ION     NA42353   9.568   7.837  29.008 -0.0804 -0.1638 -0.1369
35754ION     NA42354  16.919   7.002  31.611 -0.3080  0.1056  0.4479
35755ION     NA42355  13.478   5.456   5.783  0.4443 -0.1837 -0.0020
35756ION     NA42356   1.256   2.140  22.390  0.2048  0.3287 -0.0916
35757ION     NA42357  13.354   5.300   9.619 -0.0030 -0.0979  0.1145
35758ION     NA42358   7.622   5.135  28.594  0.2154  0.0395  0.2212
35759ION     NA42359  12.585   7.770   0.332  0.3860 -0.4486 -0.2463
35760ION     NA42360  17.472   0.835   4.576  0.2703 -0.2671 -0.1682
35761ION     NA42361   5.689   2.840  29.908 -0.1765 -0.0041 -0.1519
35762ION     NA42362   5.486   1.683   2.086 -0.0437  0.1571 -0.3553
35763ION     NA42363  18.356   2.592  15.574  0.1049  0.0654 -0.0621
35764ION     NA42364  12.101   7.306   0.753 -0.0955  0.0927  0.2677
35765ION     NA42365  24.669   1.405  30.004  0.1633 -0.0353  0.2103
35766ION     NA42366  10.074   6.922  17.814 -0.0410  0.1315 -0.2322
35767ION     NA42367   3.098   1.033   0.586  0.2518  0.3027 -0.3874
35768ION     NA42368   3.772   0.750   1.861 -0.2521 -0.1020 -0.1666
35769ION     NA42369  13.219   0.607  25.480 -0.7509  0.3966 -0.3017
35770ION     NA42370  12.758   1.899  22.824  0.0444 -0.1432 -0.2943
35771ION     NA42371  17.563   6.642  16.193 -0.1185 -0.3230  0.2044
35772ION     NA42372  21.827   0.036  10.630 -0.0900 -0.3614  0.2698
35773ION     NA42373  18.523   3.993  23.814 -0.0935  0.2140 -0.0821
35774ION     NA42374  18.647   1.827  10.719  0.2839 -0.2430 -0.4167
35775ION     NA42375   5.540   5.821  22.909  0.4592  0.3283  0.1648
35776ION     NA42376   6.790   5.702   7.355 -0.1584 -0.0929  0.2905
35777ION     NA42377  12.079   0.321  11.233 -0.1974  0.2599 -0.1197
35778ION     NA42378  15.577   6.903   3.915  0.0702  0.1252  0.1085
35779ION     NA42379  12.610   6.830   8.222  0.1679 -0.0785 -0.3088
35780ION     NA42380   3.462   0.534   6.496 -0.0381  0.0260 -0.0760
35781ION     NA42381   7.392   4.540  15.634 -0.6247 -0.3186 -0.1075
35782ION     NA42382   7.945   7.675  18.348 -0.4607  0.2386 -0.0143
35783ION     NA42383  23.202   0.462  26.795  0.2908 -0.0480 -0.0870
35784ION     NA42384  25.069   3.021   3.467 -0.2521 -0.2182  0.0592
35785ION     NA42385   5.726   2.870   8.284  0.3617 -0.1484 -0.1095
35786ION     NA42386  17.778   5.562   2.133  0.2308  0.2676 -0.1822
35787ION     NA42387  22.576   6.904  28.788  0.1633 -0.5065  0.2822
35788ION     NA42388   5.991   7.767  21.464 -0.1027  0.1135  0.3956
35789ION     NA42389  20.786   1.012  16.482 -0.3466 -0.0998  0.4551
35790ION     NA42390   3.359   1.596  23.918  0.1314 -0.8380  0.1441
35791ION     NA42391   7.615   3.984  30.688  0.4049 -0.1368  0.2089
35792ION     NA42392  17.241   1.927  13.954 -0.3851  0.0923 -0.0099
35793ION     NA42393   9.236   7.241  23.629  0.1308  0.1808  0.4991
35794ION     NA42394  19.468   2.304  30.141  0.4393 -0.0869 -0.4043
35795ION     NA42395   2.538   0.549  19.524  0.2513 -0.1799  0.0468
35796ION     NA42396  14.717   1.718   0.599  0.1514 -0.1333 -0.2942
35797ION     NA42397   1.016   2.135  23.641  0.0524 -0.1621  0.0985
35798ION     NA42398  19.490   7.860  24.457  0.0443 -0.3033  0.6137
35799ION     NA42399   8.586   1.821  21.693 -0.0234 -0.3349  0.2565
35800ION     NA42400   5.230   1.410  22.814  0.2925  0.3050 -0.1337
35801ION     NA42401  24.507   3.605  31.569 -0.2991 -0.1871 -0.2467
35802ION     NA42402   3.154   5.084  28.947 -0.1822  0.2299 -0.3160
35803ION     NA42403   9.323   7.608   2.539 -0.1274  0.2733  0.6990
35804ION     NA42404  12.548   7.004   4.258 -0.2678  0.1180  0.3655
35805ION     NA42405  24.563   4.040   5.622  0.2789 -0.2740 -0.1255
35806ION     NA42406  19.182   1.346   4.050  0.0628 -0.0128 -0.1462
35807ION     NA42407   7.188   0.178   2.873 -0.1354  0.1595  0.0245
35808ION     NA42408  20.286   7.157  13.889 -0.1112 -0.3045  0.2343
35809ION     NA42409   6.278   3.926  30.664 -0.2334  0.0371  0.4222
35810ION     NA42410  23.040   6.947   1.929 -0.2873 -0.2088 -0.0763
35811ION     NA42411  14.124   2.601   1.661  0.0781 -0.3075  0.7332
35812ION     NA42412  17.267   0.302   4.223 -0.2024  0.1526  0.2204
35813ION     NA42413  12.822   6.338  21.747  0.2317  0.1738  0.0420
35814ION     NA42414  18.841   4.328   1.362 -0.0356 -0.1282  0.4429
35815ION     NA42415  18.378   4.995   4.120  0.2607 -0.0125 -0.3483
35816ION     NA42416  15.137   3.106  28.744  0.2739  0.0208 -0.3264
35817ION     CL42417  12.741   2.288  25.410  0.2224  0.0364  0.1253
35818ION     CL42418  10.595   0.251   1.436 -0.0605 -0.0936  0.1386
35819ION     CL42419  21.361   5.513   6.025 -0.1379 -0.0007  0.2859
35820ION     CL42420   6.139   6.263   9.124 -0.3819  0.0826  0.3359
35821ION     CL42421  22.359   6.670  12.870  0.2552  0.0730 -0.3420
35822ION     CL42422  24.701   4.210  30.568  0.0967 -0.2307  0.0095
35823ION     CL42423   4.192   5.130  19.500  0.1346 -0.3236  0.0091
35824ION     CL42424  17.894   1.488  30.449  0.0189  0.1562 -0.1484
35825ION     CL42425  17.259   3.576  13.295 -0.2892 -0.0265 -0.4419
35826ION     CL42426  17.858   3.890  29.683  0.5301  0.1329  0.3266
35827ION     CL42427  10.620   4.580  26.083 -0.2053  0.0023  0.0540
35828ION     CL42428  23.813   7.828  27.988  0.0864  0.0958  0.1412
35829ION     CL42429  11.539   6.389  29.717 -0.1544  0.0077  0.0307
35830ION     CL42430   4.437   6.124   8.361  0.2451 -0.0531 -0.0160
35831ION     CL42431  21.379   5.940   4.184  0.0686 -0.2445  0.3160
35832ION     CL42432  13.608   4.009  27.954 -0.1508  0.4474  0.1367
35833ION     CL42433  13.642   1.267   0.990 -0.0209 -0.1182 -0.3288
35834ION     CL42434   0.705   3.736  22.708  0.4375  0.0982  0.4097
35835ION     CL42435   5.771   3.537   0.129  0.4622 -0.2671  0.1048
35836ION     CL42436   7.925   4.879  18.759  0.5197 -0.4171 -0.0928
35837ION     CL42437  18.617   6.088   4.813 -0.4859 -0.0803 -0.0571
35838ION     CL42438  20.579   2.572   1.080 -0.0836  0.0720 -0.2114
35839ION     CL42439  25.029   1.725  30.115 -0.2688 -0.3409  0.1134
35840ION     CL42440  17.723   7.788   8.148  0.1205  0.4759  0.0887
35841ION     CL42441  11.032   6.297  10.565 -0.4318 -0.1576  0.2280
35842ION     CL42442  23.692   3.492  23.818  0.0613 -0.3770 -0.3656
35843ION     CL42443   0.681   4.875  20.654 -0.4791  0.4160  0.0534
35844ION     CL42444   7.320   3.821  29.386  0.1221  0.1330  0.3651
35845ION     CL42445  20.422   2.971  26.688  0.4849  0.0264  0.0181
35846ION     CL42446   7.834   4.908  28.426  0.1518  0.6554 -0.1712
35847ION     CL42447  24.962   5.024  10.665  0.6505 -0.0104  0.0489
35848ION     CL42448  16.419   7.722  13.243  0.1576 -0.1357  0.2291
35849ION     CL42449   3.836   7.480  21.397 -0.0159 -0.3112  0.1161
35850ION     CL42450   1.719   0.406  20.182  0.0661  0.3897  0.0717
35851ION     CL42451  22.871   5.728  26.802 -0.0634  0.0176 -0.3976
35852ION     CL42452  14.581   6.759   6.646  0.4284 -0.0871  0.0335
35853ION     CL42453  20.879   6.293  31.873 -0.2073 -0.2591  0.1216
35854ION     CL42454   5.297   1.156  19.034  0.1088  0.1031 -0.0073
35855ION     CL42455   2.439   1.711   8.899 -0.3374  0.5098  0.2781
35856ION     CL42456  24.357   3.009   5.952 -0.0838  0.4561 -0.0060
35857ION     CL42457  24.450   3.106   3.243 -0.2584 -0.1101 -0.4745
35858ION     CL42458   0.150   4.150  24.645 -0.0623 -0.1258 -0.0872
35859ION     CL42459  14.481   4.789  31.257  0.1277 -0.1669  0.1295
35860ION     CL42460  12.677   3.557   7.393 -0.2848  0.2102 -0.1822
35861ION     CL42461  19.622   0.684   6.718 -0.3748 -0.0983 -0.3809
35862ION     CL42462   8.993   4.604  15.070  0.1635 -0.4102  0.1197
35863ION     CL42463   4.249   3.659   2.685 -0.1411  0.4859  0.0875
35864ION     CL42464  23.409   2.165   2.490  0.2424  0.2568  0.1195
35865ION     CL42465   6.180   4.747   0.834 -0.0703  0.0993 -0.1704
35866ION     CL42466  16.304   5.874  26.800 -0.2453 -0.3586 -0.0247
35867ION     CL42467  19.243   4.809   2.882  0.3750 -0.3056 -0.0350
35868ION     CL42468  21.558   0.638  24.517  0.1382 -0.2471  0.1901
35869ION     CL42469  12.931   5.156   9.986 -0.0924  0.1854  0.0079
35870ION     CL42470  25.114   3.982  31.000 -0.2440  0.4895  0.3537
35871ION     CL42471   1.713   4.006  10.816 -0.2601  0.1170  0.2082
35872ION     CL42472  10.698   5.072  25.663  0.0429 -0.2016 -0.0758
35873ION     CL42473   7.805   0.245   1.688 -0.0057 -0.0577  0.4414
35874ION     CL42474   2.167   4.488  31.512  0.1777  0.1307  0.0651
35875ION     CL42475  11.673   7.772  27.737 -0.1113  0.4264 -0.3951
35876ION     CL42476   7.091   5.535   9.310 -0.0912 -0.0039 -0.3421
35877ION     CL42477  14.459   6.864  23.355  0.0411 -0.1090 -0.1873
35878ION     CL42478  13.283   6.446   4.939  0.0750 -0.1594  0.0543
35879ION     CL42479  20.120   2.704  22.987  0.1626 -0.2563  0.2394
35880ION     CL42480  24.718   5.487  13.563  0.3908 -0.2625  0.2973
35881ION     CL42481   2.958   6.553  30.944  0.4641  0.4481  0.1223
35882ION     CL42482  23.117   2.984  12.525 -0.2281 -0.0225  0.0005
35883ION     CL42483  24.506   3.820  29.885  0.0884 -0.3408 -0.0074
35884ION     CL42484  15.444   7.714  29.056 -0.3213 -0.0666 -0.1229
35885ION     CL42485   6.962   5.018  15.344  0.4301 -0.0946 -0.3153
35886ION     CL42486   5.788   2.913   6.982 -0.1512  0.0776  0.2895
35887ION     CL42487   7.309   4.415  30.457  0.4501  0.0577 -0.0103
35888ION     CL42488  14.473   7.159   4.057 -0.3625  0.1224 -0.4824
35889ION     CL42489  21.897   0.072   8.397 -0.0470 -0.0381 -0.1253
35890ION     CL42490  21.438   2.241   5.917  0.1328 -0.1860  0.0393
35891ION     CL42491   6.989   5.756   1.249 -0.0335 -0.0567  0.1171
35892ION     CL42492  12.207   3.372  27.767  0.0856 -0.1044  0.0123
35893ION     CL42493   1.082   5.476  29.186 -0.0943 -0.1240  0.0738
35894ION     CL42494   8.589   0.555  26.675  0.2736  0.1920 -0.5350
35895ION     CL42495   4.203   0.560  10.159  0.1127 -0.4728 -0.4063
35896ION     CL42496  21.972   5.189   3.360  0.0572 -0.1296  0.3338
35897ION     CL42497  23.193   2.021  21.911 -0.2035  0.0283 -0.3821
35898ION     CL42498   3.195   0.630   6.928 -0.7875  0.1054  0.1633
35899ION     CL42499  20.582   2.888  14.903 -0.2471 -0.2197  0.3042
35900ION     CL42500  23.008   5.828  30.793  0.2422  0.2065  0.0390
35901ION     CL42501   4.868   4.279   6.317  0.1043 -0.7823 -0.5017
35902ION     CL42502   5.896   1.833  16.138  0.0385 -0.0622  0.0817
35903ION     CL42503  11.846   4.033   2.732 -0.4347 -0.1072 -0.2570
35904ION     CL42504  12.123   1.128  32.253 -0.4683  0.3590 -0.0460
35905ION     CL42505  20.395   2.705  31.421 -0.4571 -0.1032  0.2607
35906ION     CL42506  18.334   3.343  11.013  0.4525  0.0789  0.3395
35907ION     CL42507  18.989   3.091  27.925 -0.0233 -0.2558 -0.3691
35908ION     CL42508   2.377   5.882  24.748  0.4296  0.3358  0.3496
35909ION     CL42509  23.975   5.203  11.173  0.1626  0.0019  0.0221
35910ION     CL42510  24.010   4.248  26.164  0.4379 -0.1570  0.2069
35911ION     CL42511  13.582   4.702   9.107 -0.0917  0.2343  0.0725
35912ION     CL42512  11.197   6.732   9.524  0.0049  0.0732 -0.1711
35913ION     CL42513   2.545   0.196  10.504  0.0045  0.5191 -0.0209
35914ION     CL42514   4.883   2.274  27.798  0.2171 -0.2713 -0.2951
35915ION     CL42515  15.625   4.037  22.634  0.2713  0.5969 -0.0791
35916ION     CL42516  21.909   5.304   7.253 -0.2328 -0.1583 -0.1007
35917ION     CL42517   8.498   0.423   5.186 -0.1737 -0.1635  0.1142
35918ION     CL42518  12.783   0.641  21.536  0.3502 -0.0766 -0.1187
35919ION     CL42519  14.541   5.711   6.882  0.1127  0.0292 -0.2268
35920ION     CL42520   2.061   0.866   7.835  0.0959  0.0393  0.6821
35921ION     CL42521  11.062   7.667  30.138  0.1932  0.2853 -0.0611
35922ION     CL42522   5.734   4.201  25.967  0.1250 -0.1290 -0.2791
35923ION     CL42523  24.703   0.211  10.857  0.2918 -0.4098  0.2149
35924ION     CL42524  21.617   6.449  12.625  0.0133 -0.8232  0.3694
35925ION     CL42525   3.345   5.005  32.518  0.4351 -0.2895 -0.2626
35926ION     CL42526   3.367   4.507  28.725  0.4908  0.1199  0.0019
35927ION     CL42527  18.099   1.533  12.594  0.0784  0.0108  0.1001
35928ION     CL42528   2.820   5.855   8.406 -0.0856 -0.2618  0.2279
35929ION     CL42529   2.359   0.406   3.503 -0.2311  0.2127  0.1050
35930ION     CL42530  22.125   2.062   5.469 -0.2099  0.0962  0.3224
35931ION     CL42531  14.748   5.812  10.065  0.3265 -0.0146 -0.3333
35932ION     CL42532   2.055   4.684  30.184 -0.0076 -0.1920  0.4937
35933ION     CL42533  12.475   3.154  30.401  0.1479  0.0958  0.1641
35934ION     CL42534   2.135   4.919   6.402  0.0024  0.0507 -0.1937
35935ION     CL42535  24.365   3.139  21.329  0.1817  0.1984  0.3372
35936ION     CL42536   6.926   5.272  17.613 -0.2830 -0.1124  0.0101
35937ION     CL42537   2.619   3.808  29.436  0.3752  0.2329 -0.2096
35938ION     CL42538  16.651   4.290  27.965 -0.0596 -0.0191 -0.2647
35939ION     CL42539   7.679   0.930   3.797  0.8021 -0.0802 -0.0628
35940ION     CL42540   0.139   5.151  27.163  0.4692 -0.2316 -0.1127
35941ION     CL42541  19.408   4.139  16.573 -0.3222 -0.0072  0.3261
35942ION     CL42542   4.854   5.600   6.499  0.0820  0.0555 -0.2055
35943ION     CL42543  22.846   0.172   3.492  0.4279 -0.1441 -0.2938
35944ION     CL42544   1.468   5.423   9.975 -0.0944  0.0151 -0.3482
35945ION     CL42545  14.901   2.481  13.322  0.1356  0.0719 -0.2116
35946ION     CL42546   8.411   0.860   0.818  0.2585 -0.0679 -0.3326
35947ION     CL42547  21.144   2.499   0.098  0.1192 -0.1200 -0.2907
35948ION     CL42548   5.497   6.957  18.758  0.4521 -0.1476 -0.2971
35949ION     CL42549   7.843   0.667  19.993 -0.0645 -0.2008 -0.1373
35950ION     CL42550  10.783   2.471   6.137 -0.2041  0.0207 -0.0524
35951ION     CL42551   0.589   1.470  12.193 -0.0855  0.3689  0.0944
35952ION     CL42552  13.122   1.218  10.139 -0.3943  0.1382 -0.2026
35953ION     CL42553  11.353   5.368  30.666 -0.2342 -0.2329  0.0682
35954ION     CL42554  13.659   0.383  11.882  0.1219 -0.1691 -0.1660
35955ION     CL42555  19.800   6.195  22.785 -0.0614 -0.0564  0.2171
35956ION     CL42556  13.258   2.772  31.395  0.4488 -0.0806  0.1082
35957ION     CL42557  23.166   7.351  10.861  0.0425  0.1547  0.2165
35958ION     CL42558   4.837   6.868   0.438  0.1517 -0.1895  0.1394
35959ION     CL42559  12.699   3.251   8.561  0.3818 -0.1355  0.1288
35960ION     CL42560   0.007   6.517   2.332  0.0727 -0.1533 -0.0534
35961ION     CL42561   9.195   5.644  22.529 -0.1636  0.2292  0.3541
35962DOPC   NC342562   2.756   7.725  16.308  0.0428  0.3090  0.1928
35962DOPC   PO442563   3.108   7.944  16.307  0.1200 -0.2005 -0.0004
35962DOPC   GL142564   2.973   8.170  16.016  0.0225 -0.1645 -0.2865
35962DOPC   GL242565   2.856   7.978  15.871 -0.1075 -0.0173 -0.0870
35962DOPC   C1A42566   2.910   8.402  15.679  0.2345 -0.0283  0.0862
35962DOPC   D2A42567   2.841   8.611  15.246 -0.2570  0.1913  0.1021
35962DOPC   C3A42568   3.103   8.766  14.837  0.1212 -0.0979 -0.0753
35962DOPC   C4A42569   3.119   8.790  14.355 -0.3066 -0.3335 -0.0066
35962DOPC   C1B42570   2.756   7.935  15.448  0.1307 -0.2137 -0.4601
35962DOPC   D2B42571   2.864   8.142  15.018  0.2508 -0.1252 -0.0130
35962DOPC   C3B42572   2.629   8.528  14.814 -0.1989 -0.1134  0.1678
35962DOPC   C4B42573   2.211   8.614  14.618  0.1732  0.1791  0.2897
35963DOPC   NC342574  21.249   4.609  21.460  0.0977  0.1167  0.2276
35963DOPC   PO442575  21.213   4.228  21.597  0.3707  0.0913  0.0768
35963DOPC   GL142576  21.235   4.039  21.301 -0.1128  0.1532  0.0112
35963DOPC   GL242577  21.407   3.789  21.377  0.0495  0.0431  0.0710
35963DOPC   C1A42578  21.168   4.193  20.898  0.0530 -0.0071 -0.0764
35963DOPC   D2A42579  20.838   4.226  20.518 -0.1294  0.0861 -0.2044
35963DOPC   C3A42580  21.009   4.503  20.160  0.0522 -0.1348  0.1883
35963DOPC   C4A42581  20.918   4.829  19.766 -0.1026  0.1503  0.0680
35963DOPC   C1B42582  21.561   3.819  20.991  0.1542  0.3636 -0.0227
35963DOPC   D2B42583  21.645   3.629  20.507 -0.2677  0.1645 -0.2184
35963DOPC   C3B42584  21.720   3.885  20.062  0.2260 -0.1547  0.0950
35963DOPC   C4B42585  21.751   4.176  19.647  0.0842 -0.1044 -0.2109
35964DOPC   NC342586   6.624   7.131  14.645 -0.1039  0.0601 -0.3203
35964DOPC   PO442587   6.484   7.240  14.296  0.0246 -0.3135 -0.0487
35964DOPC   GL142588   6.640   7.099  13.974 -0.0534  0.2675  0.0295
35964DOPC   GL242589   6.361   7.204  13.803  0.2732 -0.0543 -0.1266
35964DOPC   C1A42590   6.929   6.895  13.689  0.0835  0.1836  0.0836
35964DOPC   D2A42591   7.219   6.521  13.500  0.0610 -0.0404 -0.2497
35964DOPC   C3A42592   7.568   6.314  13.201 -0.1797  0.0998 -0.3269
35964DOPC   C4A42593   7.857   6.011  13.007 -0.1658  0.2664  0.0594
35964DOPC   C1B42594   6.202   7.086  13.406  0.1927 -0.0254 -0.0097
35964DOPC   D2B42595   6.062   7.066  12.931 -0.0787  0.2009  0.1944
35964DOPC   C3B42596   5.674   6.791  12.759  0.1777 -0.0665 -0.0105
35964DOPC   C4B42597   5.649   6.442  12.436  0.0272 -0.0486  0.3771
35965DOPC   NC342598   9.617   5.674  14.930  0.0569 -0.1880 -0.1594
35965DOPC   PO442599   9.291   5.863  14.871 -0.1712  0.1058 -0.1197
35965DOPC   GL142600   9.387   6.105  14.555  0.2190  0.0482  0.3167
35965DOPC   GL242601   9.186   5.985  14.366 -0.0140 -0.1880 -0.0615
35965DOPC   C1A42602   9.644   6.333  14.220 -0.2631  0.0535 -0.2577
35965DOPC   D2A42603   9.956   6.595  14.013 -0.1613 -0.1089  0.2419
35965DOPC   C3A42604  10.020   6.867  13.642  0.0130 -0.0693  0.1352
35965DOPC   C4A42605  10.218   7.278  13.606  0.1233  0.0320  0.2394
35965DOPC   C1B42606   9.288   6.244  13.953 -0.2018  0.2993 -0.2898
35965DOPC   D2B42607   9.257   6.175  13.494  0.2803  0.3834  0.4708
35965DOPC   C3B42608   9.636   6.047  13.288  0.0408 -0.0946  0.2051
35965DOPC   C4B42609  10.053   5.765  13.421 -0.1605  0.0298 -0.3377
35966DOPC   NC342610   9.486   2.994  14.711 -0.0413  0.1925 -0.0061
35966DOPC   PO442611   9.744   3.175  14.951  0.2105  0.1752  0.0593
35966DOPC   GL142612  10.109   2.959  14.986  0.1766  0.0000  0.0430
35966DOPC   GL242613  10.100   3.030  14.678 -0.1958 -0.0861  0.0481
35966DOPC   C1A42614  10.498   2.728  14.865  0.2942 -0.1748  0.2039
35966DOPC   D2A42615  10.968   2.543  14.833  0.1338 -0.0340  0.0043
35966DOPC   C3A42616  11.254   2.277  14.649 -0.2666  0.0977 -0.1470
35966DOPC   C4A42617  11.544   1.976  14.361 -0.1845  0.0122 -0.1356
35966DOPC   C1B42618  10.324   3.070  14.271 -0.0825 -0.1897 -0.2315
35966DOPC   D2B42619  10.521   2.749  13.926  0.0238  0.4126  0.2316
35966DOPC   C3B42620  10.554   2.290  13.873 -0.0789 -0.1567 -0.0079
35966DOPC   C4B42621  10.395   1.830  13.823 -0.0125  0.1122  0.4199
35967DOPC   NC342622   3.121   2.516  15.656 -0.1030  0.0672  0.1647
35967DOPC   PO442623   2.985   2.650  16.047  0.0706 -0.0650  0.1185
35967DOPC   GL142624   2.711   2.902  15.846 -0.1098 -0.0701  0.2384
35967DOPC   GL242625   2.961   3.016  15.661 -0.0911 -0.1997 -0.1060
35967DOPC   C1A42626   2.287   3.144  15.853  0.1470  0.0286 -0.0500
35967DOPC   D2A42627   1.852   3.358  15.923 -0.0498 -0.0305  0.1130
35967DOPC   C3A42628   1.565   3.682  15.696  0.2380  0.3745  0.3653
35967DOPC   C4A42629   1.178   4.021  15.611  0.2107 -0.2180 -0.1045
35967DOPC   C1B42630   2.758   2.730  15.385  0.0129 -0.1483  0.0839
35967DOPC   D2B42631   2.395   2.385  15.264 -0.4527 -0.0884  0.0293
35967DOPC   C3B42632   1.908   2.327  15.184 -0.2468 -0.0338  0.0602
35967DOPC   C4B42633   1.598   2.007  15.211 -0.1057  0.3136 -0.0969
35968DOPC   NC342634  23.733   7.406  21.173  0.1704  0.0258  0.1305
35968DOPC   PO442635  23.480   7.270  20.881  0.3015  0.1822  0.3226
35968DOPC   GL142636  23.259   7.400  20.564 -0.2268 -0.1954  0.3822
35968DOPC   GL242637  23.123   7.111  20.566 -0.1819 -0.1262 -0.0964
35968DOPC   C1A42638  23.015   7.650  20.327  0.0503 -0.1012  0.0643
35968DOPC   D2A42639  22.845   8.017  20.108  0.1750 -0.0037  0.1046
35968DOPC   C3A42640  23.089   8.121  19.692  0.1146  0.0123  0.3003
35968DOPC   C4A42641  23.290   8.352  19.301  0.2949  0.3979 -0.2804
35968DOPC   C1B42642  22.831   7.201  20.316  0.0707 -0.1107 -0.0421
35968DOPC   D2B42643  22.631   7.488  19.981  0.0081 -0.0350  0.1577
35968DOPC   C3B42644  22.583   7.598  19.527 -0.0628  0.4055  0.0902
35968DOPC   C4B42645  22.475   8.044  19.346  0.1419  0.0079  0.0179
35969DOPC   NC342646   1.176   4.809  18.600 -0.4354  0.1771 -0.1468
35969DOPC   PO442647   0.844   4.831  18.817 -0.0248  0.1390 -0.0996
35969DOPC   GL142648   0.460   4.757  18.618  0.0506  0.0113  0.0221
35969DOPC   GL242649   0.356   4.629  18.891 -0.1414 -0.2051 -0.2976
35969DOPC   C1A42650   0.204   5.058  18.394 -0.0964  0.1774 -0.1423
35969DOPC   D2A42651  -0.036   5.244  17.986  0.2042 -0.1827  0.0141
35969DOPC   C3A42652  -0.363   5.199  17.739  0.1294  0.1487  0.1537
35969DOPC   C4A42653  -0.671   5.209  17.407 -0.0379 -0.2103 -0.1819
35969DOPC   C1B42654   0.084   4.352  18.911 -0.2575 -0.0184  0.0579
35969DOPC   D2B42655  -0.372   4.078  19.055  0.0447 -0.0572 -0.2602
35969DOPC   C3B42656  -0.451   4.207  18.659 -0.0760 -0.1459 -0.2248
35969DOPC   C4B42657  -0.550   4.525  18.313  0.0462  0.1084 -0.1132
35970DOPC   NC342658  12.278   1.269  19.295 -0.1912 -0.2565 -0.2130
35970DOPC   PO442659  12.573   1.493  19.155 -0.1428  0.1457  0.0038
35970DOPC   GL142660  12.809   1.904  19.038  0.1826 -0.2183  0.0441
35970DOPC   GL242661  13.019   1.714  18.942 -0.4259  0.0797  0.1398
35970DOPC   C1A42662  12.852   2.108  18.627 -0.2256 -0.0592  0.0410
35970DOPC   D2A42663  13.182   1.972  18.375 -0.3330 -0.1055 -0.1178
35970DOPC   C3A42664  13.346   1.532  18.336 -0.0303 -0.4781  0.1045
35970DOPC   C4A42665  13.338   1.117  18.488  0.1743  0.1141 -0.0867
35970DOPC   C1B42666  13.396   1.493  18.796  0.2626 -0.0948 -0.2128
35970DOPC   D2B42667  13.837   1.273  18.523 -0.1502  0.3005  0.0298
35970DOPC   C3B42668  14.120   1.082  18.206 -0.0202  0.1030 -0.1854
35970DOPC   C4B42669  14.412   1.026  17.837 -0.2304  0.0370  0.2033
35971DOPC   NC342670   0.988   6.903  18.238  0.0389 -0.0407 -0.4233
35971DOPC   PO442671   0.793   7.042  18.536 -0.0561 -0.1839  0.0233
35971DOPC   GL142672   0.469   7.266  18.394  0.0576  0.1550 -0.2724
35971DOPC   GL242673   0.487   7.126  18.105  0.1664 -0.5012  0.1563
35971DOPC   C1A42674   0.049   7.190  18.383  0.1587  0.4380 -0.2669
35971DOPC   D2A42675  -0.310   7.145  18.050 -0.0409  0.0774  0.1083
35971DOPC   C3A42676  -0.607   7.039  17.687  0.2526  0.2926  0.2681
35971DOPC   C4A42677  -0.704   6.640  17.372 -0.0690 -0.0774 -0.0488
35971DOPC   C1B42678   0.175   6.965  17.801 -0.1400  0.4743 -0.1675
35971DOPC   D2B42679  -0.204   6.720  17.651  0.3296 -0.1237 -0.1608
35971DOPC   C3B42680  -0.318   6.290  17.422 -0.0994 -0.1045 -0.3384
35971DOPC   C4B42681  -0.407   5.819  17.175 -0.1347  0.1147  0.1389
35972DOPC   NC342682  16.725   3.016  22.505 -0.0366 -0.2035  0.1289
35972DOPC   PO442683  16.539   3.158  22.140  0.0188  0.2120 -0.0662
35972DOPC   GL142684  16.702   2.931  21.811  0.1352  0.1472 -0.0886
35972DOPC   GL242685  16.445   2.793  21.733 -0.1676  0.2542 -0.0518
35972DOPC   C1A42686  17.167   3.008  21.678  0.0777  0.3426  0.0414
35972DOPC   D2A42687  17.611   3.173  21.593 -0.0970 -0.1238 -0.0411
35972DOPC   C3A42688  18.101   3.179  21.749 -0.0751  0.0084 -0.0119
35972DOPC   C4A42689  18.566   3.183  21.660 -0.0367  0.3045  0.1794
35972DOPC   C1B42690  16.346   3.130  21.418 -0.2590  0.1174 -0.4188
35972DOPC   D2B42691  16.379   3.444  21.000 -0.3586  0.2192 -0.0418
35972DOPC   C3B42692  16.605   3.659  20.637 -0.1205 -0.1543 -0.1259
35972DOPC   C4B42693  16.780   3.818  20.175 -0.1253  0.4059 -0.1875
35973DOPC   NC342694   7.993   0.689  13.900  0.0914  0.5827  0.1362
35973DOPC   PO442695   7.757   0.539  14.212 -0.1203  0.0709 -0.0810
35973DOPC   GL142696   7.706   0.276  13.970  0.1500  0.4794  0.1442
35973DOPC   GL242697   7.566   0.386  13.787 -0.1793 -0.1826  0.1143
35973DOPC   C1A42698   7.990   0.129  13.695 -0.1867 -0.1653  0.1784
35973DOPC   D2A42699   8.371  -0.030  13.403  0.0090  0.0806  0.0131
35973DOPC   C3A42700   8.612   0.143  13.041  0.1848  0.0660  0.0873
35973DOPC   C4A42701   8.945   0.369  12.794 -0.1407 -0.0435  0.1198
35973DOPC   C1B42702   7.727   0.441  13.368  0.2669  0.1389  0.1944
35973DOPC   D2B42703   7.886   0.648  12.910 -0.2434  0.3981  0.0852
35973DOPC   C3B42704   7.932   0.711  12.407  0.0515 -0.1481 -0.0473
35973DOPC   C4B42705   7.841   0.722  11.925  0.1239  0.2316  0.1869
35974DOPC   NC342706  10.697   1.491  16.396  0.2841  0.2352 -0.2509
35974DOPC   PO442707  10.616   1.524  16.018 -0.1788  0.0236  0.0363
35974DOPC   GL142708  11.007   1.396  15.980 -0.3374 -0.0574 -0.3199
35974DOPC   GL242709  10.966   1.202  15.947  0.2981  0.2602  0.2353
35974DOPC   C1A42710  11.279   1.457  15.654 -0.0283  0.2466  0.1134
35974DOPC   D2A42711  11.651   1.192  15.396 -0.1378  0.1356 -0.0986
35974DOPC   C3A42712  11.741   0.844  15.162  0.0320 -0.1297 -0.1895
35974DOPC   C4A42713  11.987   0.576  14.770 -0.0263  0.2265 -0.2166
35974DOPC   C1B42714  11.116   0.958  15.726 -0.1942  0.0450  0.1378
35974DOPC   D2B42715  11.452   0.601  15.571  0.4146 -0.1656  0.0688
35974DOPC   C3B42716  11.807   0.253  15.693 -0.1171 -0.1494 -0.0236
35974DOPC   C4B42717  12.271   0.225  15.784  0.2303 -0.2664 -0.1595
35975DOPC   NC342718   1.444   4.776  17.754  0.3654  0.4272 -0.1107
35975DOPC   PO442719   1.278   4.815  18.109  0.3257 -0.0397 -0.1152
35975DOPC   GL142720   0.869   4.936  18.082  0.0396 -0.3144  0.4036
35975DOPC   GL242721   0.728   4.774  18.295  0.0994 -0.0227 -0.0938
35975DOPC   C1A42722   0.710   4.757  17.701 -0.0869  0.0352 -0.1757
35975DOPC   D2A42723   0.591   4.621  17.256  0.1217  0.1719  0.1455
35975DOPC   C3A42724   0.277   4.388  16.884  0.1281  0.2311 -0.1420
35975DOPC   C4A42725   0.037   4.177  16.462 -0.1245 -0.0856 -0.2090
35975DOPC   C1B42726   0.407   4.586  18.054  0.2830 -0.1380 -0.1098
35975DOPC   D2B42727   0.126   4.326  17.753 -0.1317  0.1832  0.0333
35975DOPC   C3B42728  -0.282   4.262  17.455 -0.1260  0.0714 -0.0270
35975DOPC   C4B42729  -0.786   4.138  17.391  0.3324  0.1901  0.0049
35976DOPC   NC342730  24.071   6.932  19.850  0.1132 -0.0728 -0.1654
35976DOPC   PO442731  24.102   6.963  20.243  0.1180 -0.2838 -0.0983
35976DOPC   GL142732  23.760   7.302  20.296 -0.0607  0.2154 -0.0625
35976DOPC   GL242733  23.910   7.447  20.111  0.1994 -0.1152  0.2535
35976DOPC   C1A42734  23.375   7.371  20.090 -0.1624  0.2047  0.0882
35976DOPC   D2A42735  23.074   7.619  19.716 -0.0603  0.1068 -0.2043
35976DOPC   C3A42736  23.054   7.367  19.294 -0.0386 -0.0469  0.3633
35976DOPC   C4A42737  22.774   7.387  18.864 -0.0743  0.1163  0.2129
35976DOPC   C1B42738  23.652   7.590  19.723  0.0204  0.1089  0.1475
35976DOPC   D2B42739  23.356   7.707  19.302 -0.2186 -0.0574 -0.0862
35976DOPC   C3B42740  23.223   7.721  18.819  0.0048  0.0884 -0.3920
35976DOPC   C4B42741  23.179   7.959  18.388 -0.5177  0.0506  0.3483
35977DOPC   NC342742   4.128   5.516  14.900  0.2082 -0.0491 -0.1314
35977DOPC   PO442743   3.978   5.874  15.010  0.2389  0.1934  0.0239
35977DOPC   GL142744   3.887   6.017  14.776  0.0586  0.1356  0.2099
35977DOPC   GL242745   3.963   6.244  14.596  0.0225  0.0921  0.2909
35977DOPC   C1A42746   3.594   5.961  14.476  0.1577  0.0354 -0.0244
35977DOPC   D2A42747   3.199   6.227  14.348  0.0889  0.1078 -0.1706
35977DOPC   C3A42748   2.797   6.038  14.216  0.2925  0.2665 -0.0349
35977DOPC   C4A42749   2.500   5.825  13.946  0.1334  0.1149 -0.0493
35977DOPC   C1B42750   3.710   6.415  14.282 -0.0050 -0.1819 -0.1307
35977DOPC   D2B42751   3.321   6.486  13.923  0.0839 -0.2374 -0.1860
35977DOPC   C3B42752   3.056   6.690  13.528 -0.0745 -0.0594 -0.0454
35977DOPC   C4B42753   2.862   6.410  13.207  0.1852  0.2135 -0.1645
35978DOPC   NC342754   1.160   4.323  19.216 -0.2212  0.1985 -0.0172
35978DOPC   PO442755   1.165   4.362  18.831  0.0950  0.0783 -0.3054
35978DOPC   GL142756   0.838   4.423  18.623 -0.2453 -0.0684 -0.2681
35978DOPC   GL242757   1.007   4.362  18.356  0.1616  0.2473 -0.3353
35978DOPC   C1A42758   0.413   4.310  18.479  0.3645  0.2421 -0.1651
35978DOPC   D2A42759  -0.011   4.474  18.364  0.0700  0.1464  0.2098
35978DOPC   C3A42760  -0.235   4.726  17.954 -0.0117  0.0098 -0.2926
35978DOPC   C4A42761  -0.626   4.497  17.726  0.1135  0.1496  0.3264
35978DOPC   C1B42762   0.749   4.263  18.025 -0.2096  0.2599 -0.1490
35978DOPC   D2B42763   0.539   4.158  17.591 -0.0033  0.2368  0.0761
35978DOPC   C3B42764   0.147   3.885  17.552  0.5701 -0.3519 -0.1098
35978DOPC   C4B42765  -0.311   3.817  17.296 -0.0795 -0.0510  0.0868
35979DOPC   NC342766   5.503   7.789  14.525 -0.0654  0.2788 -0.0899
35979DOPC   PO442767   5.835   7.580  14.612 -0.2894 -0.3653 -0.0943
35979DOPC   GL142768   6.053   7.416  14.238 -0.6357 -0.3871 -0.0894
35979DOPC   GL242769   5.803   7.252  14.208 -0.0279 -0.2278  0.1068
35979DOPC   C1A42770   5.965   7.469  13.799  0.0165  0.0615  0.0584
35979DOPC   D2A42771   5.945   7.600  13.322 -0.3431  0.3488  0.1693
35979DOPC   C3A42772   5.939   7.484  12.873 -0.2059 -0.0026 -0.1076
35979DOPC   C4A42773   6.077   7.259  12.489  0.1365  0.2336 -0.1991
35979DOPC   C1B42774   5.496   7.381  13.899  0.2395 -0.0274  0.1323
35979DOPC   D2B42775   5.215   7.530  13.568 -0.2366  0.2528 -0.0666
35979DOPC   C3B42776   5.117   7.537  13.134  0.2131 -0.3540  0.2601
35979DOPC   C4B42777   4.873   7.672  12.671 -0.2469 -0.1335  0.1374
35980DOPC   NC342778   5.053   4.480  15.509  0.0684  0.2890  0.2408
35980DOPC   PO442779   4.689   4.366  15.383  0.0503  0.2027  0.1218
35980DOPC   GL142780   4.444   4.158  15.109  0.0561 -0.3958 -0.2044
35980DOPC   GL242781   4.602   4.016  14.929 -0.3717  0.1607  0.1553
35980DOPC   C1A42782   4.098   4.276  14.845 -0.0341  0.0021 -0.0614
35980DOPC   D2A42783   3.794   4.596  14.577 -0.4232 -0.2221  0.0128
35980DOPC   C3A42784   3.422   4.392  14.388 -0.1901  0.1511 -0.1252
35980DOPC   C4A42785   3.038   4.193  14.117  0.2193  0.0919  0.2159
35980DOPC   C1B42786   4.455   4.075  14.541  0.0805  0.3550 -0.2521
35980DOPC   D2B42787   4.611   4.306  14.143 -0.0212  0.0646 -0.0045
35980DOPC   C3B42788   4.403   4.565  13.821 -0.1666  0.2827 -0.0869
35980DOPC   C4B42789   4.422   4.319  13.418  0.0251  0.0230 -0.0732
35981DOPC   NC342790  24.154   2.473  20.935 -0.1911 -0.3183 -0.1879
35981DOPC   PO442791  23.826   2.648  20.926 -0.1883  0.0946 -0.0864
35981DOPC   GL142792  23.528   2.564  20.592 -0.1828 -0.3769  0.3554
35981DOPC   GL242793  23.713   2.295  20.585 -0.6955  0.1106  0.1123
35981DOPC   C1A42794  23.129   2.589  20.547 -0.1597  0.0395  0.1687
35981DOPC   D2A42795  22.707   2.506  20.294  0.3968 -0.0134 -0.2097
35981DOPC   C3A42796  22.282   2.306  20.142 -0.1488 -0.0561  0.0739
35981DOPC   C4A42797  21.812   2.326  20.083  0.1135 -0.1162  0.1682
35981DOPC   C1B42798  23.693   2.055  20.199 -0.2472 -0.4230  0.1816
35981DOPC   D2B42799  23.580   2.193  19.696  0.3061 -0.0909 -0.0959
35981DOPC   C3B42800  23.194   1.979  19.602  0.1886  0.0973 -0.1060
35981DOPC   C4B42801  22.858   1.657  19.600 -0.1962  0.2340  0.1724
35982DOPC   NC342802   5.774   5.519  14.613  0.1709 -0.0386  0.2247
35982DOPC   PO442803   6.073   5.335  14.403  0.1513 -0.0174  0.0659
35982DOPC   GL142804   6.070   5.370  13.991  0.1185  0.0392 -0.0004
35982DOPC   GL242805   5.817   5.234  13.953 -0.1813  0.2319  0.1586
35982DOPC   C1A42806   6.339   5.226  13.682  0.1065 -0.0143  0.0287
35982DOPC   D2A42807   6.810   5.183  13.722 -0.0695  0.1445  0.0879
35982DOPC   C3A42808   7.035   5.170  13.280 -0.3406 -0.1454 -0.0622
35982DOPC   C4A42809   7.266   5.051  12.827 -0.1716  0.0208  0.1192
35982DOPC   C1B42810   5.451   5.341  13.685 -0.0776 -0.2465 -0.1557
35982DOPC   D2B42811   5.042   5.342  13.439 -0.1940 -0.2538  0.0399
35982DOPC   C3B42812   4.701   5.427  13.091 -0.0837 -0.0654 -0.1097
35982DOPC   C4B42813   4.308   5.363  12.756 -0.6714 -0.2846  0.1774
35983DOPC   NC342814   3.249   6.324  16.209 -0.0624  0.0507  0.0463
35983DOPC   PO442815   3.572   6.192  15.948  0.1465  0.0876 -0.4137
35983DOPC   GL142816   3.310   6.249  15.597 -0.0216  0.0401  0.0475
35983DOPC   GL242817   3.082   6.188  15.750  0.1753  0.2227 -0.0244
35983DOPC   C1A42818   3.110   6.501  15.327 -0.0476  0.1611  0.0766
35983DOPC   D2A42819   2.696   6.557  15.073  0.2071 -0.2933  0.0024
35983DOPC   C3A42820   2.212   6.589  14.982  0.0583 -0.1730 -0.2168
35983DOPC   C4A42821   1.731   6.765  14.795 -0.0896 -0.0386 -0.0418
35983DOPC   C1B42822   2.774   6.052  15.570 -0.0246  0.1919  0.0664
35983DOPC   D2B42823   2.435   5.823  15.353  0.1140 -0.1333 -0.2180
35983DOPC   C3B42824   2.265   6.120  14.952  0.0795 -0.1306  0.1646
35983DOPC   C4B42825   2.012   6.396  14.565  0.0959 -0.1238  0.0420
35984DOPC   NC342826  16.983   6.546  22.355 -0.0560 -0.1745 -0.1788
35984DOPC   PO442827  16.629   6.508  22.117 -0.0366  0.1288  0.0080
35984DOPC   GL142828  16.540   6.507  21.714  0.0911 -0.0609  0.4950
35984DOPC   GL242829  16.775   6.339  21.696 -0.2225  0.2441 -0.0567
35984DOPC   C1A42830  16.365   6.307  21.373  0.0677 -0.2191  0.0134
35984DOPC   D2A42831  16.476   6.272  20.941  0.1876 -0.2662 -0.2162
35984DOPC   C3A42832  16.458   5.977  20.676 -0.3243 -0.1641 -0.1481
35984DOPC   C4A42833  16.399   5.761  20.242  0.1131  0.1302  0.0510
35984DOPC   C1B42834  16.863   6.329  21.292  0.0647  0.0766 -0.1011
35984DOPC   D2B42835  16.931   6.155  20.789 -0.0664 -0.1252  0.1674
35984DOPC   C3B42836  17.268   6.357  20.729  0.1682 -0.1739  0.1215
35984DOPC   C4B42837  17.759   6.473  20.711  0.3678 -0.0571 -0.1352
35985DOPC   NC342838  12.054   3.819  18.930  0.0254 -0.0964 -0.0185
35985DOPC   PO442839  12.401   3.812  19.128 -0.1082 -0.0418  0.2132
35985DOPC   GL142840  12.771   3.842  18.885  0.3985  0.4421 -0.1183
35985DOPC   GL242841  12.778   3.550  18.860  0.0239  0.1291  0.0184
35985DOPC   C1A42842  12.960   4.110  18.636 -0.0813 -0.3054 -0.1996
35985DOPC   D2A42843  13.143   4.241  18.189  0.0298 -0.0938  0.1660
35985DOPC   C3A42844  13.409   3.905  18.013 -0.2514  0.1372  0.0637
35985DOPC   C4A42845  13.733   3.568  17.905  0.1342  0.1183 -0.1504
35985DOPC   C1B42846  12.979   3.518  18.472 -0.5178  0.1311 -0.1220
35985DOPC   D2B42847  13.247   3.436  18.063  0.1272  0.1726  0.1971
35985DOPC   C3B42848  13.484   3.082  17.811  0.2149  0.1258  0.4077
35985DOPC   C4B42849  13.706   2.725  17.530  0.2542 -0.1985 -0.0431
35986DOPC   NC342850  10.287   2.588  16.979  0.2308  0.1879  0.1371
35986DOPC   PO442851  10.665   2.698  16.970 -0.1976 -0.0674 -0.0453
35986DOPC   GL142852  11.166   2.704  16.845  0.2867 -0.4924 -0.1504
35986DOPC   GL242853  11.163   2.372  16.687 -0.0290  0.1604 -0.0121
35986DOPC   C1A42854  11.339   2.946  16.607  0.0506  0.0096  0.1254
35986DOPC   D2A42855  11.632   2.963  16.255  0.3224 -0.1366 -0.0707
35986DOPC   C3A42856  11.936   3.281  16.169  0.1855 -0.0472  0.0461
35986DOPC   C4A42857  12.291   3.555  15.937 -0.3016 -0.1046 -0.1285
35986DOPC   C1B42858  11.218   2.442  16.254 -0.2394 -0.0274 -0.2155
35986DOPC   D2B42859  11.108   2.259  15.787 -0.0415 -0.2119 -0.0345
35986DOPC   C3B42860  11.547   2.422  15.865  0.1979 -0.3106  0.0851
35986DOPC   C4B42861  11.893   2.806  15.873  0.2249  0.0397 -0.1233
35987DOPC   NC342862  15.077   2.436  21.129  0.0114  0.2338  0.1667
35987DOPC   PO442863  14.704   2.359  21.100  0.0552 -0.0144  0.3111
35987DOPC   GL142864  14.711   2.400  20.671  0.1350 -0.1702  0.3226
35987DOPC   GL242865  14.828   2.680  20.755 -0.2512 -0.1579  0.3548
35987DOPC   C1A42866  14.888   2.307  20.269 -0.0169 -0.0339  0.0513
35987DOPC   D2A42867  15.246   2.086  19.939  0.1823 -0.0813 -0.0498
35987DOPC   C3A42868  15.512   1.687  19.982  0.0576  0.0720 -0.0960
35987DOPC   C4A42869  15.829   1.454  19.751  0.3517  0.1633 -0.1981
35987DOPC   C1B42870  15.248   2.670  20.608  0.0395  0.0850 -0.0604
35987DOPC   D2B42871  15.681   2.567  20.262 -0.1146 -0.1310  0.0624
35987DOPC   C3B42872  15.551   2.455  19.797  0.0471 -0.0512 -0.1972
35987DOPC   C4B42873  15.589   2.005  19.534  0.0460  0.0056 -0.0577
35988DOPC   NC342874  22.961   6.711  21.829 -0.2082 -0.1189 -0.2062
35988DOPC   PO442875  22.932   6.653  21.419  0.1303 -0.1474  0.1302
35988DOPC   GL142876  22.637   6.573  21.130 -0.4307  0.3697  0.0678
35988DOPC   GL242877  22.711   6.720  20.968  0.0854  0.0002  0.2123
35988DOPC   C1A42878  22.231   6.578  21.188  0.0782 -0.0641  0.1047
35988DOPC   D2A42879  21.816   6.348  21.043  0.1240 -0.1237 -0.1620
35988DOPC   C3A42880  21.389   6.375  20.976 -0.0737 -0.2249  0.3237
35988DOPC   C4A42881  20.956   6.103  20.817 -0.0249 -0.0388  0.3576
35988DOPC   C1B42882  22.978   6.690  20.548 -0.1741  0.3735 -0.0258
35988DOPC   D2B42883  23.127   6.885  20.151 -0.2341 -0.1609 -0.0772
35988DOPC   C3B42884  22.880   7.058  19.776 -0.0185  0.1413 -0.2464
35988DOPC   C4B42885  22.609   7.135  19.323 -0.2159 -0.1052 -0.1430
35989DOPC   NC342886   4.737   7.347  14.998 -0.2827  0.1785  0.2037
35989DOPC   PO442887   4.998   7.123  14.840 -0.3545 -0.0871 -0.2417
35989DOPC   GL142888   4.937   7.131  14.369  0.3041  0.2532 -0.4669
35989DOPC   GL242889   4.956   6.843  14.272  0.0195 -0.2879  0.0210
35989DOPC   C1A42890   4.550   7.321  14.139 -0.3078 -0.4637 -0.1439
35989DOPC   D2A42891   4.090   7.239  13.934  0.0097  0.4315  0.2224
35989DOPC   C3A42892   4.336   7.196  13.493  0.1241 -0.0414 -0.1824
35989DOPC   C4A42893   4.522   7.150  13.066  0.3367  0.2222 -0.0219
35989DOPC   C1B42894   4.616   6.762  14.014 -0.3777 -0.1461  0.1588
35989DOPC   D2B42895   4.186   6.781  13.759 -0.4886  0.3726 -0.1498
35989DOPC   C3B42896   4.147   6.643  13.291  0.0073 -0.0690  0.0944
35989DOPC   C4B42897   3.857   6.426  13.004 -0.0266  0.0498  0.1085
35990DOPC   NC342898   4.312   6.268  14.949  0.0968 -0.1896 -0.1326
35990DOPC   PO442899   3.939   6.398  15.060 -0.0744 -0.0018 -0.1603
35990DOPC   GL142900   3.465   6.379  15.146 -0.2859 -0.3472  0.2037
35990DOPC   GL242901   3.595   6.185  15.045 -0.2303 -0.2783 -0.3577
35990DOPC   C1A42902   3.174   6.457  14.841 -0.0870  0.1287  0.0408
35990DOPC   D2A42903   2.906   6.783  14.607  0.0562 -0.1179 -0.1339
35990DOPC   C3A42904   2.879   6.580  14.164 -0.2297 -0.1132  0.2150
35990DOPC   C4A42905   2.773   6.330  13.726 -0.0879 -0.0674 -0.0351
35990DOPC   C1B42906   3.281   5.968  14.829 -0.0378 -0.1462  0.1141
35990DOPC   D2B42907   2.959   5.647  14.568  0.0074  0.0520  0.1074
35990DOPC   C3B42908   2.989   5.150  14.552  0.1915  0.0078  0.0119
35990DOPC   C4B42909   2.959   4.749  14.258  0.3884  0.0170  0.1785
35991DOPC   NC342910  10.863   5.978  16.519  0.2395  0.0068  0.1861
35991DOPC   PO442911  11.048   6.153  16.829  0.1252  0.2188  0.0361
35991DOPC   GL142912  11.437   6.070  16.614 -0.1782  0.2783  0.1547
35991DOPC   GL242913  11.297   5.850  16.481 -0.2187  0.0851  0.2652
35991DOPC   C1A42914  11.811   6.094  16.715 -0.3166 -0.4077  0.2295
35991DOPC   D2A42915  12.249   6.205  16.963  0.0021 -0.2132 -0.0503
35991DOPC   C3A42916  12.487   5.755  17.025  0.0177  0.1315 -0.1223
35991DOPC   C4A42917  12.932   5.797  16.917  0.0092  0.1424  0.2604
35991DOPC   C1B42918  11.077   5.926  16.068  0.4453  0.2478 -0.1194
35991DOPC   D2B42919  11.200   5.815  15.576  0.1417 -0.0451 -0.0027
35991DOPC   C3B42920  11.344   5.917  15.163  0.1213  0.1207 -0.1299
35991DOPC   C4B42921  11.412   5.874  14.684 -0.3059 -0.2315  0.4107
35992DOPC   NC342922   8.626   5.062  14.674  0.2512  0.1427  0.0924
35992DOPC   PO442923   8.481   4.799  14.447 -0.2732  0.1191  0.1855
35992DOPC   GL142924   8.729   4.695  14.097  0.3264  0.0195  0.0789
35992DOPC   GL242925   8.448   4.722  13.894 -0.1089 -0.0881 -0.0557
35992DOPC   C1A42926   8.822   4.914  13.738 -0.0591 -0.2458 -0.0342
35992DOPC   D2A42927   9.250   5.170  13.566 -0.2139  0.0949  0.1797
35992DOPC   C3A42928   9.258   5.069  13.044 -0.0095 -0.2153  0.0432
35992DOPC   C4A42929   9.356   4.954  12.558 -0.0588 -0.5125  0.1078
35992DOPC   C1B42930   8.472   4.569  13.477 -0.0110  0.1447 -0.0475
35992DOPC   D2B42931   8.763   4.361  13.133 -0.2377 -0.2231  0.0630
35992DOPC   C3B42932   8.880   4.263  12.743 -0.1694  0.3078  0.0922
35992DOPC   C4B42933   8.607   4.316  12.316 -0.2263  0.1958  0.0330
35993DOPC   NC342934  20.689   1.496  21.945 -0.1934  0.3795  0.0414
35993DOPC   PO442935  20.628   1.464  22.341 -0.1433  0.0865 -0.1685
35993DOPC   GL142936  20.253   1.388  22.101  0.0227 -0.3929  0.1752
35993DOPC   GL242937  20.274   1.166  22.064 -0.0468  0.4221  0.0601
35993DOPC   C1A42938  20.193   1.533  21.681  0.2265  0.1349 -0.2034
35993DOPC   D2A42939  20.137   2.025  21.573  0.0426  0.1401  0.0862
35993DOPC   C3A42940  20.015   2.242  21.196  0.0122 -0.1455  0.1111
35993DOPC   C4A42941  20.202   2.368  20.709 -0.1255  0.0389  0.2848
35993DOPC   C1B42942  20.286   0.895  21.637  0.2268 -0.0370  0.2203
35993DOPC   D2B42943  19.998   0.813  21.172 -0.1918  0.1699 -0.1124
35993DOPC   C3B42944  19.865   0.805  20.735 -0.0066 -0.1365  0.4974
35993DOPC   C4B42945  19.563   0.862  20.334  0.0612  0.1075  0.1641
35994DOPC   NC342946   3.561   4.590  15.965 -0.1905  0.1006  0.0644
35994DOPC   PO442947   3.779   4.697  15.661  0.3087 -0.0699  0.1056
35994DOPC   GL142948   3.382   4.589  15.425  0.5920  0.2440  0.0731
35994DOPC   GL242949   3.274   4.460  15.610  0.0584  0.0716 -0.2547
35994DOPC   C1A42950   3.212   4.731  15.043 -0.4807 -0.1918  0.0227
35994DOPC   D2A42951   3.529   5.028  14.759 -0.0755  0.0771  0.1315
35994DOPC   C3A42952   3.439   4.996  14.351 -0.0910 -0.0472 -0.2308
35994DOPC   C4A42953   3.218   5.128  13.926  0.1880  0.2833 -0.1583
35994DOPC   C1B42954   2.968   4.320  15.334 -0.1993  0.2004 -0.0284
35994DOPC   D2B42955   2.718   4.023  15.038  0.2883  0.1734  0.4638
35994DOPC   C3B42956   2.363   3.961  14.785  0.0284 -0.2474  0.1510
35994DOPC   C4B42957   2.033   4.012  14.418  0.0513 -0.1316  0.0243
35995DOPC   NC342958  21.919   6.053  21.941  0.1602  0.0425 -0.0414
35995DOPC   PO442959  21.962   5.984  21.537 -0.0091  0.1513 -0.4228
35995DOPC   GL142960  21.765   5.840  21.182 -0.0741 -0.3420 -0.2737
35995DOPC   GL242961  21.464   5.821  21.286 -0.3788  0.2585 -0.0400
35995DOPC   C1A42962  21.882   5.905  20.763 -0.1006 -0.0642 -0.0746
35995DOPC   D2A42963  21.865   5.919  20.264 -0.1955  0.0322 -0.0404
35995DOPC   C3A42964  21.736   5.679  19.922 -0.2227 -0.2099 -0.0073
35995DOPC   C4A42965  21.650   5.327  19.566  0.0657  0.1733  0.2216
35995DOPC   C1B42966  21.331   5.840  20.891 -0.0861  0.2233 -0.1818
35995DOPC   D2B42967  21.349   6.103  20.471  0.1672 -0.0087  0.2517
35995DOPC   C3B42968  21.474   6.093  20.014 -0.1294  0.0477 -0.0805
35995DOPC   C4B42969  21.516   5.930  19.558 -0.0327 -0.0993 -0.2210
35996DOPC   NC342970   4.828   0.193  15.659 -0.2145 -0.1231  0.2609
35996DOPC   PO442971   4.525   0.366  15.442 -0.0516  0.1377 -0.0125
35996DOPC   GL142972   4.256   0.391  15.164 -0.3271 -0.1256 -0.1177
35996DOPC   GL242973   3.968   0.304  15.241 -0.0493 -0.1045 -0.0580
35996DOPC   C1A42974   4.160   0.610  14.862  0.1097  0.1909  0.0508
35996DOPC   D2A42975   4.034   0.640  14.349 -0.1034 -0.2312  0.3362
35996DOPC   C3A42976   4.022   0.862  13.944  0.0391  0.1571  0.3171
35996DOPC   C4A42977   3.892   1.254  13.698 -0.1031 -0.0752  0.1608
35996DOPC   C1B42978   3.733   0.185  14.937  0.1050  0.0953 -0.1050
35996DOPC   D2B42979   3.515   0.139  14.505  0.2434  0.3630 -0.1712
35996DOPC   C3B42980   3.322  -0.133  14.233  0.0303  0.3063  0.0662
35996DOPC   C4B42981   2.981  -0.172  13.933  0.2437  0.1093 -0.1253
35997DOPC   NC342982  14.082   6.784  21.086 -0.0398 -0.0606  0.1067
35997DOPC   PO442983  14.144   6.700  20.704  0.1832  0.1146  0.1956
35997DOPC   GL142984  14.451   6.816  20.495 -0.0824 -0.1995  0.0834
35997DOPC   GL242985  14.696   6.645  20.603  0.1250  0.0236  0.3899
35997DOPC   C1A42986  14.637   6.750  20.111  0.0751 -0.1691  0.0045
35997DOPC   D2A42987  14.697   6.873  19.612 -0.1876  0.1738  0.1603
35997DOPC   C3A42988  14.903   6.853  19.255 -0.1403  0.0382  0.1484
35997DOPC   C4A42989  15.095   6.833  18.824  0.1394  0.2022 -0.0335
35997DOPC   C1B42990  14.556   6.302  20.358  0.0999  0.0944 -0.1393
35997DOPC   D2B42991  14.445   5.848  20.239  0.1571 -0.1097 -0.1076
35997DOPC   C3B42992  14.305   5.864  19.822  0.0717 -0.1970  0.1062
35997DOPC   C4B42993  14.212   5.613  19.407 -0.0905  0.1337 -0.3554
35998DOPC   NC342994  14.324   2.608  20.915 -0.2413 -0.2567 -0.0798
35998DOPC   PO442995  14.196   2.988  20.753  0.0440 -0.1125 -0.1644
35998DOPC   GL142996  14.558   3.084  20.571  0.4233  0.0317 -0.3520
35998DOPC   GL242997  14.543   3.352  20.663 -0.2975  0.0475  0.3799
35998DOPC   C1A42998  14.826   2.884  20.363 -0.2725  0.1712 -0.0640
35998DOPC   D2A42999  15.227   2.646  20.125 -0.2264  0.1291  0.1200
35998DOPC   C3A43000  15.007   2.492  19.786  0.0589 -0.1153  0.0357
35998DOPC   C4A43001  15.101   2.151  19.425 -0.0052  0.1343 -0.0332
35998DOPC   C1B43002  14.847   3.493  20.410  0.0662  0.0476 -0.2940
35998DOPC   D2B43003  15.255   3.633  20.193  0.1579  0.1088  0.4752
35998DOPC   C3B43004  15.352   3.814  19.738 -0.3423  0.0716  0.0042
35998DOPC   C4B43005  15.445   4.095  19.361  0.4248  0.1373 -0.2220
35999DOPC   NC343006  21.275   6.969  22.009  0.0878 -0.1007  0.4861
35999DOPC   PO443007  21.618   6.758  21.889 -0.1245 -0.2873 -0.2426
35999DOPC   GL143008  21.570   6.968  21.552 -0.1732  0.0057  0.2763
35999DOPC   GL243009  21.753   6.925  21.391  0.3393 -0.1253  0.0266
35999DOPC   C1A43010  21.263   6.807  21.265 -0.0095  0.1497 -0.1410
35999DOPC   D2A43011  20.959   6.655  20.903  0.0912  0.1752  0.1770
35999DOPC   C3A43012  20.979   6.638  20.474 -0.0839 -0.1191  0.2117
35999DOPC   C4A43013  21.077   6.358  20.087  0.2728  0.0697  0.1628
35999DOPC   C1B43014  21.665   6.853  20.957  0.1159  0.1272  0.0033
35999DOPC   D2B43015  21.458   6.581  20.533 -0.0561  0.0017 -0.0600
35999DOPC   C3B43016  21.646   6.546  20.159  0.0732  0.0558 -0.1624
35999DOPC   C4B43017  21.789   6.326  19.726  0.0599  0.1394  0.3771
36000DOPC   NC343018   4.428   4.706  15.044 -0.1709 -0.1160  0.0905
36000DOPC   PO443019   4.790   4.776  14.918 -0.3265  0.1094  0.1118
36000DOPC   GL143020   4.846   4.547  14.520 -0.0608  0.2179  0.2613
36000DOPC   GL243021   4.549   4.530  14.598  0.1349 -0.0533 -0.0957
36000DOPC   C1A43022   4.782   4.780  14.126 -0.0227 -0.0865  0.2000
36000DOPC   D2A43023   4.611   5.110  13.708 -0.1247 -0.0068 -0.1362
36000DOPC   C3A43024   4.726   4.970  13.321 -0.0750 -0.0204  0.1469
36000DOPC   C4A43025   5.068   5.028  12.961  0.1576  0.2331 -0.3506
36000DOPC   C1B43026   4.259   4.636  14.294  0.0946  0.1779  0.1639
36000DOPC   D2B43027   3.889   4.460  14.067 -0.0223 -0.0095 -0.0799
36000DOPC   C3B43028   3.623   4.080  14.000 -0.0594 -0.0638  0.2822
36000DOPC   C4B43029   3.306   3.817  13.711 -0.1856  0.2507  0.0790
36001DOPC   NC343030  23.406   5.298  20.765 -0.0655 -0.1797 -0.0833
36001DOPC   PO443031  23.664   5.572  20.649 -0.3328 -0.1912 -0.1929
36001DOPC   GL143032  23.655   5.681  20.268  0.0441 -0.2834  0.0670
36001DOPC   GL243033  23.659   6.012  20.344  0.0713  0.0716 -0.0488
36001DOPC   C1A43034  23.389   5.556  19.982 -0.0591 -0.1379  0.1097
36001DOPC   D2A43035  22.968   5.430  19.760  0.0379  0.1362 -0.0194
36001DOPC   C3A43036  22.632   5.332  19.373  0.0101 -0.0546 -0.2481
36001DOPC   C4A43037  22.402   5.252  18.982 -0.0638  0.0534  0.5142
36001DOPC   C1B43038  23.651   5.945  19.898 -0.3083  0.1863 -0.0543
36001DOPC   D2B43039  23.237   5.904  19.720  0.1931  0.2690  0.1276
36001DOPC   C3B43040  23.175   6.299  19.377 -0.0109  0.0451 -0.2578
36001DOPC   C4B43041  23.136   6.473  18.957 -0.3188 -0.1463 -0.2497
36002DOPC   NC343042   8.523   7.104  14.813  0.1810 -0.3038  0.2288
36002DOPC   PO443043   8.417   6.985  14.403 -0.0812  0.1006 -0.0764
36002DOPC   GL143044   8.600   7.129  14.073 -0.3217 -0.1028 -0.2125
36002DOPC   GL243045   8.526   6.864  13.896 -0.0294 -0.1663  0.2509
36002DOPC   C1A43046   9.031   7.149  13.876  0.1642 -0.0720  0.1438
36002DOPC   D2A43047   9.407   7.115  13.517 -0.1424  0.1094  0.0983
36002DOPC   C3A43048   9.822   7.229  13.322  0.0486  0.0617  0.0284
36002DOPC   C4A43049  10.102   7.647  13.247  0.0641 -0.2295 -0.1690
36002DOPC   C1B43050   8.707   7.020  13.505  0.0480 -0.0233  0.0609
36002DOPC   D2B43051   8.995   7.121  13.110 -0.1020 -0.2163 -0.4609
36002DOPC   C3B43052   9.371   7.162  12.851  0.1877  0.2956 -0.0720
36002DOPC   C4B43053   9.854   7.074  12.851 -0.2047 -0.3192 -0.1547
36003DOPC   NC343054   8.378   2.181  14.191 -0.0154  0.1360 -0.0701
36003DOPC   PO443055   8.213   2.465  14.408  0.1858 -0.0999  0.0032
36003DOPC   GL143056   8.235   2.679  14.092 -0.0484  0.1746  0.0436
36003DOPC   GL243057   7.911   2.642  13.970  0.3870  0.2918  0.0143
36003DOPC   C1A43058   8.572   2.850  13.913 -0.1526 -0.0701  0.1296
36003DOPC   D2A43059   8.970   2.870  13.576  0.2182 -0.1034 -0.1533
36003DOPC   C3A43060   9.324   3.163  13.533 -0.1771 -0.1210 -0.0174
36003DOPC   C4A43061   9.694   3.447  13.445  0.0181  0.1659  0.3099
36003DOPC   C1B43062   7.895   2.556  13.549  0.0362 -0.1035  0.1073
36003DOPC   D2B43063   8.026   2.210  13.252  0.1504  0.1734  0.2438
36003DOPC   C3B43064   8.336   2.496  13.013 -0.1169  0.0561 -0.1533
36003DOPC   C4B43065   8.489   2.460  12.496 -0.2407 -0.0502 -0.0444
36004DOPC   NC343066  24.125   6.505  20.749 -0.1645 -0.1899 -0.2200
36004DOPC   PO443067  23.838   6.537  20.496  0.1338  0.0312 -0.1074
36004DOPC   GL143068  23.809   6.608  20.105  0.1895  0.1988 -0.1167
36004DOPC   GL243069  23.832   6.339  20.031  0.1466  0.2951 -0.4666
36004DOPC   C1A43070  23.577   6.967  19.920 -0.0091 -0.1577  0.0996
36004DOPC   D2A43071  23.343   7.182  19.633  0.2002 -0.2249 -0.2910
36004DOPC   C3A43072  23.581   7.246  19.277  0.0018 -0.3198  0.0520
36004DOPC   C4A43073  23.941   7.120  18.922 -0.1703  0.1725 -0.0577
36004DOPC   C1B43074  23.675   6.397  19.608 -0.1671 -0.0758 -0.2328
36004DOPC   D2B43075  23.638   6.402  19.069  0.3890 -0.1777  0.3823
36004DOPC   C3B43076  23.573   6.849  18.890  0.0900 -0.2167 -0.0559
36004DOPC   C4B43077  23.249   7.207  18.852  0.1660 -0.2172  0.4599
36005DOPC   NC343078  22.694   1.759  21.395 -0.1047  0.1815 -0.1442
36005DOPC   PO443079  22.758   1.349  21.477 -0.2417 -0.2618  0.0400
36005DOPC   GL143080  22.605   1.266  21.170 -0.2054 -0.1318 -0.4081
36005DOPC   GL243081  22.315   1.158  21.330 -0.0681 -0.4026 -0.1463
36005DOPC   C1A43082  22.624   1.321  20.725 -0.2760  0.2974  0.2254
36005DOPC   D2A43083  22.728   1.426  20.256 -0.1066  0.0491  0.2177
36005DOPC   C3A43084  22.371   1.387  19.956 -0.1248  0.1092  0.0362
36005DOPC   C4A43085  21.977   1.472  19.747 -0.0852 -0.2987  0.2245
36005DOPC   C1B43086  22.062   1.124  20.993  0.0319 -0.1683 -0.0719
36005DOPC   D2B43087  21.822   0.866  20.591 -0.0206 -0.1664 -0.0365
36005DOPC   C3B43088  21.430   0.971  20.390 -0.0112  0.0761  0.2393
36005DOPC   C4B43089  21.036   1.219  20.193 -0.0220  0.2109  0.0128
36006DOPC   NC343090   9.853   6.453  16.186 -0.0613  0.0886  0.0538
36006DOPC   PO443091  10.193   6.739  16.305  0.0697 -0.0753 -0.2636
36006DOPC   GL143092  10.390   6.976  16.006  0.2894  0.0765 -0.0801
36006DOPC   GL243093  10.303   6.812  15.836  0.1776  0.1496 -0.2586
36006DOPC   C1A43094  10.693   7.276  15.926  0.0267  0.0243  0.1674
36006DOPC   D2A43095  11.098   7.598  15.793  0.1232 -0.1939  0.0760
36006DOPC   C3A43096  11.273   7.439  15.427 -0.0257  0.0360  0.2813
36006DOPC   C4A43097  11.543   7.195  15.053  0.2863 -0.2208 -0.2119
36006DOPC   C1B43098  10.280   6.840  15.368 -0.2366  0.0745  0.3703
36006DOPC   D2B43099  10.382   6.835  14.844  0.1592 -0.1645  0.0535
36006DOPC   C3B43100  10.833   6.880  14.925 -0.1335  0.2225 -0.1134
36006DOPC   C4B43101  11.274   6.798  15.158  0.0256  0.0620 -0.0170
36007DOPC   NC343102  19.254   2.223  22.346  0.2450  0.3579  0.3131
36007DOPC   PO443103  19.052   1.871  22.271 -0.0809 -0.0331 -0.1808
36007DOPC   GL143104  19.080   1.657  22.008  0.0941 -0.2632  0.0443
36007DOPC   GL243105  18.950   1.389  21.974 -0.2147 -0.1092  0.0191
36007DOPC   C1A43106  19.098   1.640  21.596 -0.0269 -0.1036 -0.0544
36007DOPC   D2A43107  19.113   1.802  21.132 -0.0451  0.1040 -0.2274
36007DOPC   C3A43108  19.155   1.555  20.792 -0.0370  0.1899 -0.2032
36007DOPC   C4A43109  19.111   1.141  20.536  0.1628  0.2233 -0.1242
36007DOPC   C1B43110  18.832   1.136  21.632  0.1312 -0.3437  0.0764
36007DOPC   D2B43111  18.513   0.907  21.288  0.0850  0.0060 -0.3309
36007DOPC   C3B43112  18.504   1.028  20.819 -0.1402  0.0974 -0.1920
36007DOPC   C4B43113  18.684   1.406  20.567 -0.2810 -0.1805  0.2121
36008DOPC   NC343114  18.737   3.819  22.474  0.4211  0.0166 -0.1221
36008DOPC   PO443115  18.944   4.098  22.343  0.0633 -0.1588  0.1422
36008DOPC   GL143116  19.100   4.019  22.002  0.1569  0.1998 -0.3120
36008DOPC   GL243117  18.991   3.720  21.925  0.2769  0.1906 -0.1403
36008DOPC   C1A43118  19.005   4.179  21.644  0.3321  0.0388  0.0942
36008DOPC   D2A43119  18.872   4.261  21.173  0.0401  0.0855 -0.0352
36008DOPC   C3A43120  18.964   4.463  20.730  0.1722 -0.2131  0.0846
36008DOPC   C4A43121  18.764   4.637  20.260 -0.1173 -0.3116  0.4043
36008DOPC   C1B43122  18.857   3.705  21.497 -0.0021 -0.0525  0.0536
36008DOPC   D2B43123  18.720   3.787  21.053  0.3796  0.0752 -0.0922
36008DOPC   C3B43124  18.402   3.534  20.920  0.1654  0.3605 -0.1587
36008DOPC   C4B43125  18.382   3.049  20.780 -0.1124 -0.0472 -0.2209
36009DOPC   NC343126  11.572   0.260  17.284  0.2436 -0.0554 -0.0113
36009DOPC   PO443127  11.565   0.005  17.575  0.4244 -0.0479 -0.1310
36009DOPC   GL143128  11.879   0.212  17.648 -0.1013 -0.2611  0.1005
36009DOPC   GL243129  12.086   0.073  17.837  0.0600 -0.1559 -0.1377
36009DOPC   C1A43130  12.110   0.200  17.272  0.1879  0.3968  0.3059
36009DOPC   D2A43131  12.597   0.129  17.217  0.0421  0.0940 -0.2700
36009DOPC   C3A43132  12.945  -0.152  16.934  0.0227  0.1006 -0.1219
36009DOPC   C4A43133  13.151  -0.423  16.584  0.2529 -0.0942  0.0744
36009DOPC   C1B43134  12.401  -0.169  17.579 -0.2745  0.1689 -0.1947
36009DOPC   D2B43135  12.807  -0.379  17.379  0.0065 -0.1847  0.0281
36009DOPC   C3B43136  13.029  -0.661  17.033 -0.3026 -0.1389  0.0866
36009DOPC   C4B43137  13.414  -0.814  16.706 -0.0008 -0.1847 -0.0157
36010DOPC   NC343138  10.506   4.092  16.076 -0.2519  0.2088  0.0109
36010DOPC   PO443139  10.590   3.727  16.248 -0.1655  0.2634 -0.1089
36010DOPC   GL143140  10.919   3.725  16.111  0.1750 -0.4178  0.0012
36010DOPC   GL243141  11.059   3.792  16.365 -0.0613 -0.1267 -0.1643
36010DOPC   C1A43142  11.258   3.879  16.004 -0.0435 -0.0376  0.1001
36010DOPC   D2A43143  11.518   4.156  15.688  0.1460  0.3619  0.0603
36010DOPC   C3A43144  11.796   4.137  15.350 -0.0968  0.1369  0.4357
36010DOPC   C4A43145  11.671   4.083  14.861 -0.3096  0.1324 -0.0544
36010DOPC   C1B43146  11.429   4.054  16.403 -0.0473  0.0541  0.1734
36010DOPC   D2B43147  11.829   4.252  16.625 -0.0026 -0.2179  0.0412
36010DOPC   C3B43148  12.231   4.496  16.544 -0.0756  0.1779 -0.3534
36010DOPC   C4B43149  12.480   4.777  16.208  0.0599  0.1500 -0.0681
36011DOPC   NC343150  10.060   4.410  15.591  0.3123  0.2336  0.2613
36011DOPC   PO443151  10.151   4.379  15.974  0.1229 -0.1654  0.2729
36011DOPC   GL143152  10.519   4.418  15.782 -0.7017 -0.6951 -0.1759
36011DOPC   GL243153  10.476   4.717  15.681  0.0960  0.0219 -0.3155
36011DOPC   C1A43154  10.574   4.281  15.451 -0.3932 -0.1718  0.0490
36011DOPC   D2A43155  10.526   3.909  15.128  0.1718 -0.1778  0.1107
36011DOPC   C3A43156  10.731   3.831  14.710  0.2610  0.0141  0.0277
36011DOPC   C4A43157  11.112   3.814  14.330  0.6453 -0.0856  0.0157
36011DOPC   C1B43158  10.941   4.793  15.587  0.0563  0.2591 -0.1559
36011DOPC   D2B43159  11.194   5.016  15.203 -0.2299 -0.0505  0.0070
36011DOPC   C3B43160  10.986   4.791  14.837 -0.0056 -0.0482  0.3218
36011DOPC   C4B43161  10.821   4.546  14.447  0.2874 -0.1065  0.2865
36012DOPC   NC343162  10.915   7.002  16.846  0.1660 -0.0924  0.0874
36012DOPC   PO443163  11.041   7.290  17.126  0.2187  0.0898  0.0065
36012DOPC   GL143164  11.456   7.302  16.849  0.0636 -0.1157 -0.0103
36012DOPC   GL243165  11.399   7.002  16.847  0.0501  0.2527  0.1226
36012DOPC   C1A43166  11.826   7.523  16.705 -0.4327  0.1512 -0.0518
36012DOPC   D2A43167  12.246   7.444  16.493  0.0885 -0.0837  0.1754
36012DOPC   C3A43168  12.646   7.702  16.433  0.2907 -0.0037 -0.3852
36012DOPC   C4A43169  13.036   7.893  16.473 -0.0327 -0.0043  0.0194
36012DOPC   C1B43170  11.301   6.861  16.504 -0.0201 -0.1529  0.0259
36012DOPC   D2B43171  11.147   6.376  16.354  0.0605  0.1278 -0.0228
36012DOPC   C3B43172  10.875   6.348  15.993 -0.0121 -0.0700  0.0070
36012DOPC   C4B43173  10.765   6.161  15.562 -0.0089 -0.1164  0.1226
36013DOPC   NC343174  10.838   5.314  17.067 -0.0341 -0.1810  0.3039
36013DOPC   PO443175  10.942   4.970  16.971 -0.0539  0.0609 -0.0826
36013DOPC   GL143176  11.433   4.970  16.990  0.2241  0.0664 -0.3869
36013DOPC   GL243177  11.325   5.218  16.875  0.1774 -0.1316 -0.1030
36013DOPC   C1A43178  11.677   4.709  16.740  0.2154 -0.0668  0.0644
36013DOPC   D2A43179  11.843   4.806  16.235 -0.2931  0.0474 -0.1158
36013DOPC   C3A43180  11.974   4.631  15.848  0.1274 -0.0303 -0.1014
36013DOPC   C4A43181  12.149   4.419  15.484  0.1648  0.0741 -0.0021
36013DOPC   C1B43182  11.462   5.077  16.450  0.0641 -0.0652  0.0149
36013DOPC   D2B43183  11.568   5.091  15.966  0.1623 -0.3520  0.1384
36013DOPC   C3B43184  11.784   5.094  15.621  0.2317  0.4711  0.0256
36013DOPC   C4B43185  11.693   5.148  15.138  0.0133 -0.0918  0.0870
36014DOPC   NC343186   9.817   3.676  15.593 -0.1145 -0.2476 -0.0234
36014DOPC   PO443187   9.647   4.038  15.563 -0.2417  0.2602 -0.1381
36014DOPC   GL143188   9.878   4.098  15.228  0.3552  0.2309 -0.0067
36014DOPC   GL243189  10.054   3.873  15.203  0.1317  0.0138 -0.0952
36014DOPC   C1A43190  10.207   4.340  15.007  0.0122  0.0372  0.0040
36014DOPC   D2A43191  10.259   4.420  14.486  0.0327 -0.1531  0.0994
36014DOPC   C3A43192  10.355   4.832  14.220  0.1120  0.1824  0.1217
36014DOPC   C4A43193  10.461   4.874  13.687  0.1813  0.0708  0.0370
36014DOPC   C1B43194  10.210   3.961  14.768  0.0848  0.1815  0.3682
36014DOPC   D2B43195  10.509   4.040  14.327  0.1996  0.0295 -0.1883
36014DOPC   C3B43196  10.912   4.236  14.093 -0.2141 -0.0017  0.0756
36014DOPC   C4B43197  11.294   4.278  13.765 -0.1977  0.0223  0.2124
36015DOPC   NC343198   9.392   3.978  15.156  0.0731  0.1955  0.1275
36015DOPC   PO443199   9.611   3.674  15.114  0.3836 -0.0601  0.1250
36015DOPC   GL143200   9.893   3.564  14.777 -0.1652 -0.0652  0.1628
36015DOPC   GL243201   9.690   3.523  14.628  0.3416  0.1737  0.2888
36015DOPC   C1A43202  10.293   3.535  14.508  0.1556 -0.0973 -0.2698
36015DOPC   D2A43203  10.714   3.500  14.272  0.2850 -0.0189 -0.1578
36015DOPC   C3A43204  10.804   3.776  13.919  0.1230 -0.1143 -0.2488
36015DOPC   C4A43205  10.966   3.973  13.502  0.2376 -0.0211 -0.0303
36015DOPC   C1B43206   9.870   3.226  14.308  0.3504 -0.1033  0.1184
36015DOPC   D2B43207  10.062   2.962  13.858 -0.0305  0.0070 -0.1995
36015DOPC   C3B43208   9.827   2.868  13.454  0.5622 -0.2163 -0.2151
36015DOPC   C4B43209   9.597   3.123  13.115  0.2725  0.1632  0.1834
36016DOPC   NC343210  15.964   3.398  22.290  0.0901  0.0512 -0.1751
36016DOPC   PO443211  16.208   3.574  22.038 -0.1382 -0.0676 -0.6096
36016DOPC   GL143212  16.453   3.432  21.791 -0.1381  0.3098  0.2216
36016DOPC   GL243213  16.727   3.453  21.720 -0.0711  0.2296  0.3191
36016DOPC   C1A43214  16.478   3.751  21.466  0.0606 -0.0298  0.0861
36016DOPC   D2A43215  16.503   4.083  21.090 -0.0000  0.2287  0.1580
36016DOPC   C3A43216  16.713   4.234  20.702 -0.0671  0.0287 -0.1286
36016DOPC   C4A43217  16.861   4.500  20.318  0.0834 -0.2171  0.0192
36016DOPC   C1B43218  16.867   3.279  21.309  0.1601  0.1115 -0.1226
36016DOPC   D2B43219  16.909   3.120  20.866  0.0421 -0.5461  0.2342
36016DOPC   C3B43220  16.966   3.387  20.470 -0.2152 -0.1166 -0.0800
36016DOPC   C4B43221  17.063   3.405  19.985  0.1079 -0.1166  0.1822
36017DOPC   NC343222   7.608   0.140  14.407  0.1201 -0.0381 -0.2695
36017DOPC   PO443223   7.788  -0.203  14.288  0.2362 -0.1043 -0.1637
36017DOPC   GL143224   8.143  -0.217  13.949 -0.4727 -0.0717 -0.0769
36017DOPC   GL243225   7.895  -0.308  13.836  0.0007 -0.0771 -0.3040
36017DOPC   C1A43226   8.623  -0.224  13.802  0.0313  0.2949 -0.0766
36017DOPC   D2A43227   8.896  -0.247  13.391  0.2714 -0.2408 -0.1886
36017DOPC   C3A43228   8.812  -0.317  12.888 -0.1555  0.1713 -0.1596
36017DOPC   C4A43229   8.708   0.006  12.522 -0.0305 -0.1184 -0.0619
36017DOPC   C1B43230   7.970  -0.330  13.374 -0.2364  0.0111 -0.1576
36017DOPC   D2B43231   7.918   0.116  13.066 -0.1983 -0.0557 -0.0693
36017DOPC   C3B43232   7.682   0.264  12.622  0.3166  0.1230 -0.1814
36017DOPC   C4B43233   7.525   0.534  12.220 -0.1692  0.0181 -0.0836
36018DOPC   NC343234  24.805   0.619  20.570  0.0825  0.2622  0.0682
36018DOPC   PO443235  25.129   0.730  20.350 -0.2857 -0.0558  0.1766
36018DOPC   GL143236  24.850   1.060  20.135 -0.0851 -0.0131 -0.1872
36018DOPC   GL243237  24.756   0.854  20.154  0.1594 -0.2122 -0.1664
36018DOPC   C1A43238  24.828   1.098  19.742 -0.1627  0.2821  0.1861
36018DOPC   D2A43239  24.614   1.272  19.357  0.0928  0.2315 -0.0251
36018DOPC   C3A43240  24.274   1.177  18.982  0.2458 -0.3952  0.3269
36018DOPC   C4A43241  23.919   0.956  18.736 -0.0086 -0.0765  0.0933
36018DOPC   C1B43242  24.483   0.713  19.791 -0.0383  0.0354  0.2130
36018DOPC   D2B43243  24.300   0.403  19.441  0.0538  0.1951 -0.1581
36018DOPC   C3B43244  23.840   0.387  19.370  0.2041 -0.0983  0.0524
36018DOPC   C4B43245  23.525   0.195  19.004 -0.2728  0.0452  0.1253
36019DOPC   NC343246   0.285   2.321  18.982 -0.0351  0.0558  0.1765
36019DOPC   PO443247   0.115   1.972  19.129  0.0843 -0.0652  0.0983
36019DOPC   GL143248  -0.239   1.971  18.918 -0.0261  0.1406  0.0078
36019DOPC   GL243249  -0.065   2.022  18.647 -0.1990  0.0040 -0.0682
36019DOPC   C1A43250  -0.609   1.782  18.853  0.0125 -0.1601 -0.0694
36019DOPC   D2A43251  -1.010   1.672  18.977 -0.0548  0.3211 -0.1264
36019DOPC   C3A43252  -1.263   1.409  19.265 -0.2547 -0.1495  0.1454
36019DOPC   C4A43253  -1.455   0.999  19.348 -0.4749  0.1847 -0.1577
36019DOPC   C1B43254  -0.510   2.003  18.431 -0.3414  0.3354 -0.0105
36019DOPC   D2B43255  -0.795   1.898  18.061 -0.1887  0.1886 -0.1459
36019DOPC   C3B43256  -0.877   1.495  17.842 -0.0414  0.2640  0.4414
36019DOPC   C4B43257  -1.119   1.082  17.767  0.1000 -0.1401 -0.2727
36020DOPC   NC343258   6.516   1.622  14.426  0.1094 -0.0524 -0.1468
36020DOPC   PO443259   6.557   1.523  14.029 -0.1474 -0.3411  0.0883
36020DOPC   GL143260   6.656   1.804  13.744 -0.0546 -0.0089  0.0275
36020DOPC   GL243261   6.433   1.768  13.596 -0.0775 -0.1455  0.0105
36020DOPC   C1A43262   6.917   1.936  13.383  0.2272 -0.0403  0.1098
36020DOPC   D2A43263   6.954   2.357  13.214 -0.2803  0.1281 -0.0580
36020DOPC   C3A43264   6.908   2.593  12.834  0.1590  0.0978 -0.0689
36020DOPC   C4A43265   6.906   2.935  12.560  0.0265  0.0074  0.0490
36020DOPC   C1B43266   6.448   1.765  13.146  0.1262  0.0741  0.0980
36020DOPC   D2B43267   6.779   1.762  12.774 -0.1466  0.0853 -0.0107
36020DOPC   C3B43268   7.097   2.109  12.690 -0.1673 -0.0571 -0.1733
36020DOPC   C4B43269   7.307   2.373  12.373 -0.0303 -0.0132 -0.0223
36021DOPC   NC343270  11.014   1.171  17.229 -0.1472 -0.2008 -0.1807
36021DOPC   PO443271  11.176   1.359  17.503  0.0696 -0.0378  0.1472
36021DOPC   GL143272  11.579   1.227  17.472 -0.1775 -0.0392  0.3278
36021DOPC   GL243273  11.476   1.289  17.150 -0.0112  0.3116 -0.0930
36021DOPC   C1A43274  11.986   1.074  17.307 -0.1548  0.1242  0.0936
36021DOPC   D2A43275  12.245   1.006  16.866  0.0031 -0.1470 -0.0525
36021DOPC   C3A43276  12.522   0.899  16.532 -0.1560 -0.1748 -0.0814
36021DOPC   C4A43277  12.783   0.589  16.310  0.0059 -0.0961 -0.0483
36021DOPC   C1B43278  11.768   1.121  16.827  0.1285  0.4272  0.0065
36021DOPC   D2B43279  11.936   0.946  16.365 -0.1025  0.0609 -0.3163
36021DOPC   C3B43280  12.275   0.794  16.063 -0.2912  0.0281 -0.2105
36021DOPC   C4B43281  12.643   0.578  15.828  0.0887 -0.1087  0.0714
36022DOPC   NC343282  24.515   5.405  20.076  0.0352 -0.2260  0.0734
36022DOPC   PO443283  24.714   5.139  20.297  0.2564 -0.2666 -0.1511
36022DOPC   GL143284  24.408   4.912  20.100 -0.2539 -0.1565  0.0195
36022DOPC   GL243285  24.469   5.043  19.836 -0.2391 -0.1962 -0.0803
36022DOPC   C1A43286  24.284   4.513  19.996  0.0184  0.0885 -0.2592
36022DOPC   D2A43287  24.183   4.020  19.836  0.0184 -0.2486 -0.0888
36022DOPC   C3A43288  23.752   3.985  19.831  0.1368  0.1104  0.2317
36022DOPC   C4A43289  23.289   4.112  19.820 -0.0476 -0.0912 -0.0022
36022DOPC   C1B43290  24.526   4.979  19.360 -0.0034  0.0575 -0.1190
36022DOPC   D2B43291  24.191   5.165  19.056 -0.4402 -0.0042  0.1837
36022DOPC   C3B43292  23.835   5.531  19.168 -0.1674  0.1218 -0.0557
36022DOPC   C4B43293  23.582   5.929  19.305 -0.0196 -0.1054  0.0123
36023DOPC   NC343294   4.150   1.947  15.665  0.0275  0.0488  0.2683
36023DOPC   PO443295   3.762   1.994  15.792 -0.1868  0.1549  0.1165
36023DOPC   GL143296   3.583   1.876  15.485  0.2210 -0.1510  0.4242
36023DOPC   GL243297   3.353   2.025  15.418 -0.1395  0.0931  0.0830
36023DOPC   C1A43298   3.462   1.548  15.190 -0.1681 -0.0489 -0.0979
36023DOPC   D2A43299   3.352   1.305  14.777  0.1736 -0.5950 -0.0578
36023DOPC   C3A43300   3.144   1.480  14.416 -0.3316  0.4596 -0.0434
36023DOPC   C4A43301   2.778   1.313  14.123 -0.3818 -0.1939  0.1436
36023DOPC   C1B43302   3.395   2.226  15.070 -0.0065 -0.3119 -0.0345
36023DOPC   D2B43303   3.162   2.224  14.607 -0.1270  0.0743 -0.0566
36023DOPC   C3B43304   3.112   1.945  14.206 -0.0088  0.1161  0.1873
36023DOPC   C4B43305   2.983   1.731  13.795 -0.0361 -0.1429  0.2003
36024DOPC   NC343306  24.773   0.369  20.077 -0.0344 -0.0811 -0.0042
36024DOPC   PO443307  24.815  -0.014  20.048  0.0227 -0.0870 -0.3492
36024DOPC   GL143308  24.741  -0.122  19.747 -0.2763  0.1056 -0.0205
36024DOPC   GL243309  24.725  -0.406  19.727  0.1183 -0.1058  0.3508
36024DOPC   C1A43310  24.436  -0.054  19.413  0.1301 -0.3607  0.2106
36024DOPC   D2A43311  24.267  -0.025  18.983  0.1826  0.0269  0.1127
36024DOPC   C3A43312  23.957   0.231  18.695  0.1973  0.0042  0.0174
36024DOPC   C4A43313  23.628   0.596  18.553  0.0006  0.0430  0.1082
36024DOPC   C1B43314  24.354  -0.534  19.550 -0.2695 -0.0123  0.3784
36024DOPC   D2B43315  24.266  -0.850  19.286  0.1493 -0.2890  0.0455
36024DOPC   C3B43316  23.903  -1.067  19.321  0.0259  0.2387 -0.3476
36024DOPC   C4B43317  23.391  -1.074  19.328 -0.0789  0.1309 -0.0247
36025DOPC   NC343318  11.811   2.433  18.444 -0.1082  0.1189  0.1702
36025DOPC   PO443319  12.168   2.454  18.684  0.3866  0.0249 -0.1110
36025DOPC   GL143320  12.623   2.483  18.623 -0.1781 -0.0907  0.0576
36025DOPC   GL243321  12.456   2.276  18.444  0.1394  0.2247  0.2614
36025DOPC   C1A43322  13.024   2.607  18.416 -0.1469  0.0985  0.0166
36025DOPC   D2A43323  13.489   2.457  18.291 -0.3367 -0.1632 -0.0848
36025DOPC   C3A43324  13.937   2.581  18.101 -0.2800  0.0819 -0.4064
36025DOPC   C4A43325  14.248   2.755  17.753  0.1308 -0.2957 -0.2576
36025DOPC   C1B43326  12.732   2.294  18.099 -0.1618  0.3740 -0.0274
36025DOPC   D2B43327  12.925   2.314  17.601 -0.0792  0.1708 -0.1763
36025DOPC   C3B43328  13.227   2.553  17.376 -0.1524  0.0606 -0.2152
36025DOPC   C4B43329  13.523   2.656  16.935  0.1260  0.0107 -0.0939
36026DOPC   NC343330  22.683   2.401  21.418 -0.1788  0.0300 -0.0651
36026DOPC   PO443331  22.769   2.570  21.043  0.0758 -0.4826 -0.0121
36026DOPC   GL143332  22.566   2.767  20.745  0.0829  0.1952 -0.1329
36026DOPC   GL243333  22.328   2.505  20.670 -0.2050 -0.2933 -0.2341
36026DOPC   C1A43334  22.786   2.969  20.423 -0.4361  0.1030  0.2752
36026DOPC   D2A43335  22.934   3.029  19.941 -0.0129 -0.0079  0.0614
36026DOPC   C3A43336  22.752   3.174  19.525 -0.0020 -0.1819 -0.0053
36026DOPC   C4A43337  22.411   3.513  19.414 -0.2666  0.1378  0.2151
36026DOPC   C1B43338  21.939   2.538  20.619  0.1373  0.0416  0.0168
36026DOPC   D2B43339  21.446   2.546  20.335 -0.1909  0.2054 -0.1661
36026DOPC   C3B43340  20.980   2.644  20.351 -0.0914 -0.1760 -0.0367
36026DOPC   C4B43341  20.716   2.858  20.648  0.1136  0.3617 -0.1441
36027DOPC   NC343342  16.216   5.345  21.932 -0.3574  0.1972  0.2401
36027DOPC   PO443343  15.867   5.383  21.810  0.1973 -0.0128  0.0603
36027DOPC   GL143344  15.741   5.466  21.457  0.2151 -0.1161 -0.5194
36027DOPC   GL243345  15.968   5.734  21.480 -0.0177 -0.1677  0.2539
36027DOPC   C1A43346  15.859   5.223  21.141  0.0105 -0.1927 -0.2732
36027DOPC   D2A43347  16.188   4.958  20.954 -0.0527 -0.0674  0.1004
36027DOPC   C3A43348  16.552   4.937  20.611  0.1604  0.0446 -0.2214
36027DOPC   C4A43349  16.794   5.354  20.365 -0.1094 -0.0257  0.0764
36027DOPC   C1B43350  16.083   5.896  21.114  0.0697 -0.0974  0.1153
36027DOPC   D2B43351  16.032   5.752  20.624  0.3732  0.2382  0.1886
36027DOPC   C3B43352  15.878   5.643  20.229  0.1071  0.0549 -0.4569
36027DOPC   C4B43353  15.790   5.465  19.837 -0.1189 -0.1208  0.0843
36028DOPC   NC343354  23.036   6.397  21.003 -0.1600 -0.1750  0.0158
36028DOPC   PO443355  23.356   6.163  21.070  0.1371  0.0576  0.1731
36028DOPC   GL143356  23.334   5.991  20.689  0.0326  0.3732 -0.3917
36028DOPC   GL243357  23.417   6.292  20.550 -0.0504  0.0092  0.2059
36028DOPC   C1A43358  23.105   5.716  20.352  0.5160 -0.4142  0.2188
36028DOPC   D2A43359  22.721   5.838  19.972 -0.0053  0.2652 -0.0276
36028DOPC   C3A43360  22.477   5.748  19.546 -0.0168  0.0060 -0.1118
36028DOPC   C4A43361  22.331   5.741  19.103  0.1312 -0.0355 -0.0557
36028DOPC   C1B43362  23.288   6.288  20.098  0.4532  0.1017  0.1123
36028DOPC   D2B43363  23.221   6.600  19.730  0.0240  0.3137 -0.1807
36028DOPC   C3B43364  22.902   6.698  19.365  0.1907  0.1684  0.1534
36028DOPC   C4B43365  22.837   6.869  18.944 -0.0125  0.0021 -0.1050
36029DOPC   NC343366  22.415   0.380  22.135  0.1004 -0.2817  0.2007
36029DOPC   PO443367  22.447   0.549  21.782 -0.0208 -0.0213 -0.1636
36029DOPC   GL143368  22.252   0.720  21.385 -0.0842  0.3226 -0.0103
36029DOPC   GL243369  22.520   0.823  21.362  0.1486 -0.1751  0.0148
36029DOPC   C1A43370  22.058   0.511  21.082 -0.0318  0.2272  0.0457
36029DOPC   D2A43371  21.789   0.397  20.715  0.0925 -0.1003  0.0856
36029DOPC   C3A43372  21.655   0.440  20.304  0.2569 -0.1361 -0.4116
36029DOPC   C4A43373  21.765   0.652  19.821 -0.0202 -0.2202 -0.0503
36029DOPC   C1B43374  22.448   0.835  20.928  0.1791  0.2981 -0.1016
36029DOPC   D2B43375  22.221   0.559  20.600 -0.3083 -0.2677  0.0985
36029DOPC   C3B43376  22.098   0.498  20.151 -0.1124 -0.1896  0.3049
36029DOPC   C4B43377  21.854   0.171  19.843  0.1336  0.0616  0.2114
36030DOPC   NC343378   5.457   3.227  14.670 -0.0077  0.1797  0.1697
36030DOPC   PO443379   5.644   2.895  14.563  0.1172  0.1849  0.1687
36030DOPC   GL143380   5.563   2.722  14.159  0.3704 -0.1202  0.1147
36030DOPC   GL243381   5.282   2.951  14.177  0.0336  0.1925  0.0276
36030DOPC   C1A43382   5.740   2.894  13.799 -0.1778  0.0130  0.0133
36030DOPC   D2A43383   5.761   3.154  13.361  0.1406  0.0495 -0.4068
36030DOPC   C3A43384   5.622   3.135  12.918  0.0570  0.1255  0.2820
36030DOPC   C4A43385   5.402   2.854  12.485  0.1463 -0.1559  0.1351
36030DOPC   C1B43386   5.280   3.147  13.830 -0.0617 -0.1908 -0.1323
36030DOPC   D2B43387   5.242   3.245  13.313 -0.0496  0.1511  0.1580
36030DOPC   C3B43388   5.168   3.181  12.849 -0.0656  0.1016 -0.0000
36030DOPC   C4B43389   4.922   2.998  12.496 -0.1332 -0.1428 -0.1522
36031DOPC   NC343390   6.992   4.459  14.009  0.1426  0.0209  0.0747
36031DOPC   PO443391   6.956   4.306  14.358 -0.2085 -0.3209 -0.4532
36031DOPC   GL143392   6.690   4.103  14.212 -0.1900 -0.1893 -0.3397
36031DOPC   GL243393   6.468   4.159  14.350  0.0089  0.0829 -0.0066
36031DOPC   C1A43394   6.667   4.207  13.740 -0.0474  0.3865  0.5801
36031DOPC   D2A43395   6.579   4.379  13.289 -0.2995 -0.0262 -0.3134
36031DOPC   C3A43396   6.511   4.452  12.843 -0.0707 -0.0299 -0.0380
36031DOPC   C4A43397   6.443   4.679  12.434 -0.0925  0.0890 -0.5147
36031DOPC   C1B43398   6.152   4.319  14.056  0.3543  0.1310 -0.3063
36031DOPC   D2B43399   5.774   4.426  13.669  0.1038  0.0755  0.0225
36031DOPC   C3B43400   5.893   4.467  13.168 -0.1083 -0.1976  0.0602
36031DOPC   C4B43401   5.858   4.290  12.724  0.1000 -0.0523  0.3029
36032DOPC   NC343402  14.580   7.097  20.886  0.1329 -0.0173 -0.1929
36032DOPC   PO443403  14.728   7.400  20.999  0.0036 -0.3349  0.2201
36032DOPC   GL143404  14.713   7.625  20.667  0.2944  0.1825 -0.2312
36032DOPC   GL243405  14.579   7.434  20.501 -0.0165  0.2470 -0.1615
36032DOPC   C1A43406  15.103   7.576  20.502 -0.0045 -0.0770  0.0048
36032DOPC   D2A43407  15.536   7.661  20.201  0.0666  0.0125 -0.1615
36032DOPC   C3A43408  15.901   7.464  20.342 -0.0740  0.2667  0.1555
36032DOPC   C4A43409  16.212   7.199  20.589  0.1714  0.2008 -0.2201
36032DOPC   C1B43410  14.835   7.078  20.439  0.2101 -0.1657  0.3059
36032DOPC   D2B43411  15.240   6.746  20.450 -0.0657 -0.0484 -0.0788
36032DOPC   C3B43412  15.454   6.840  20.053 -0.3535  0.0051 -0.1755
36032DOPC   C4B43413  15.779   6.933  19.692 -0.0860 -0.4014  0.0780
36033DOPC   NC343414   8.715   3.282  15.281  0.0834  0.2917  0.2293
36033DOPC   PO443415   8.723   3.349  14.901  0.0279 -0.5076 -0.0362
36033DOPC   GL143416   9.037   3.131  14.642 -0.1983 -0.2860  0.4235
36033DOPC   GL243417   8.915   3.074  14.405  0.1177 -0.0999  0.0217
36033DOPC   C1A43418   9.275   3.326  14.291  0.1092  0.1233 -0.0856
36033DOPC   D2A43419   9.617   3.537  13.932 -0.0555  0.0190 -0.0581
36033DOPC   C3A43420  10.123   3.488  13.995  0.0764  0.1816  0.1944
36033DOPC   C4A43421  10.558   3.244  13.816  0.3091 -0.2309 -0.2303
36033DOPC   C1B43422   9.073   2.841  14.082 -0.1093  0.0367  0.0552
36033DOPC   D2B43423   9.341   2.573  13.724  0.0735  0.2397  0.2196
36033DOPC   C3B43424   9.637   2.338  13.446  0.2029 -0.1023  0.2579
36033DOPC   C4B43425   9.928   2.096  13.132  0.2750  0.1639  0.0157
36034DOPC   NC343426   7.765   5.319  13.996  0.3319  0.0504 -0.1654
36034DOPC   PO443427   8.062   5.519  14.123 -0.3220  0.1474  0.0794
36034DOPC   GL143428   8.389   5.557  13.870 -0.2658  0.0956 -0.2502
36034DOPC   GL243429   8.282   5.290  13.746 -0.0147  0.3209  0.0236
36034DOPC   C1A43430   8.408   5.800  13.564 -0.0401 -0.0784 -0.1334
36034DOPC   D2A43431   8.353   5.994  13.091 -0.2158 -0.1726  0.1814
36034DOPC   C3A43432   8.614   6.087  12.826 -0.3418  0.0278 -0.1235
36034DOPC   C4A43433   8.942   6.170  12.474 -0.0124  0.0821  0.0698
36034DOPC   C1B43434   8.471   5.071  13.371 -0.0911 -0.0081 -0.1105
36034DOPC   D2B43435   8.765   4.918  12.991 -0.2361  0.0946  0.1095
36034DOPC   C3B43436   8.886   5.215  12.668  0.0006  0.1343 -0.0441
36034DOPC   C4B43437   8.925   5.667  12.603  0.3088  0.3149 -0.0496
36035DOPC   NC343438  20.218   0.460  22.401  0.1457 -0.0346  0.2437
36035DOPC   PO443439  20.108   0.069  22.363  0.2008  0.0254  0.0424
36035DOPC   GL143440  20.053   0.048  21.880 -0.1084 -0.3113  0.2835
36035DOPC   GL243441  20.293   0.194  21.931 -0.4054  0.0181  0.0667
36035DOPC   C1A43442  19.912  -0.072  21.502  0.1789  0.1254 -0.0305
36035DOPC   D2A43443  19.716  -0.198  21.137 -0.2029  0.0116  0.1554
36035DOPC   C3A43444  19.701  -0.347  20.633 -0.0405  0.1356 -0.0164
36035DOPC   C4A43445  19.729  -0.077  20.233 -0.3144  0.1673  0.0968
36035DOPC   C1B43446  20.513   0.341  21.561  0.0764  0.1238  0.1167
36035DOPC   D2B43447  20.658   0.708  21.246 -0.0364 -0.2126 -0.0707
36035DOPC   C3B43448  20.402   0.628  20.810 -0.0731 -0.0507 -0.4082
36035DOPC   C4B43449  20.206   0.388  20.499  0.0815  0.2458  0.2504
36036DOPC   NC343450   2.354   6.303  17.591  0.2024  0.1476  0.2407
36036DOPC   PO443451   2.613   6.045  17.336  0.1482 -0.2737 -0.2309
36036DOPC   GL143452   2.585   6.273  16.959  0.1816  0.0588  0.1214
36036DOPC   GL243453   2.401   6.443  17.148  0.0672  0.0869  0.2843
36036DOPC   C1A43454   2.291   6.057  16.694  0.2192 -0.1451  0.0906
36036DOPC   D2A43455   2.059   6.010  16.231 -0.1873 -0.2302 -0.2814
36036DOPC   C3A43456   2.100   6.027  15.744 -0.2354 -0.2636  0.0117
36036DOPC   C4A43457   1.946   5.938  15.234  0.0503  0.1894  0.0834
36036DOPC   C1B43458   2.001   6.630  17.074 -0.0114 -0.0994  0.1065
36036DOPC   D2B43459   1.616   6.594  16.786  0.1607 -0.4036 -0.0788
36036DOPC   C3B43460   1.626   6.942  16.476  0.1092  0.0519  0.0273
36036DOPC   C4B43461   1.469   7.388  16.561  0.0289  0.0573  0.1681
36037DOPC   NC343462  17.572   2.087  22.442  0.0576 -0.2333  0.0850
36037DOPC   PO443463  17.500   2.403  22.213 -0.0550  0.4254 -0.0035
36037DOPC   GL143464  17.375   2.456  21.831  0.1445  0.5644 -0.0543
36037DOPC   GL243465  17.136   2.342  21.737  0.4047  0.1541  0.1147
36037DOPC   C1A43466  17.541   2.657  21.544 -0.2394 -0.0940  0.3791
36037DOPC   D2A43467  17.720   2.921  21.189  0.2139 -0.6191 -0.0958
36037DOPC   C3A43468  17.882   3.223  20.869  0.0826  0.0671  0.0574
36037DOPC   C4A43469  18.079   3.417  20.440 -0.0028  0.2520 -0.0027
36037DOPC   C1B43470  17.120   2.411  21.295 -0.0563 -0.0366 -0.0985
36037DOPC   D2B43471  17.137   2.306  20.876 -0.1013  0.1503  0.1434
36037DOPC   C3B43472  17.124   1.886  20.617  0.0661  0.1638 -0.0602
36037DOPC   C4B43473  17.179   1.465  20.417 -0.1182  0.1518  0.0128
36038DOPC   NC343474  12.136   1.030  18.870 -0.0681 -0.1852  0.1919
36038DOPC   PO443475  12.443   1.221  18.712  0.0251  0.1543 -0.0116
36038DOPC   GL143476  12.459   1.309  18.229 -0.0474  0.0189 -0.0234
36038DOPC   GL243477  12.454   0.994  18.212  0.2774  0.0667 -0.4958
36038DOPC   C1A43478  12.885   1.438  18.048 -0.2362 -0.0344 -0.1302
36038DOPC   D2A43479  13.268   1.552  17.784 -0.2599  0.0193 -0.2096
36038DOPC   C3A43480  13.550   1.307  17.537 -0.0462 -0.0676 -0.0369
36038DOPC   C4A43481  13.695   1.165  17.137 -0.7134  0.1083 -0.2771
36038DOPC   C1B43482  12.642   0.859  17.888  0.0891  0.1676 -0.0373
36038DOPC   D2B43483  13.089   0.582  17.773  0.0210 -0.1293  0.0652
36038DOPC   C3B43484  13.425   0.321  17.672  0.2130  0.3216  0.2057
36038DOPC   C4B43485  13.847   0.286  17.631  0.2788  0.0390 -0.0471
36039DOPC   NC343486  23.384   4.051  21.015  0.1729 -0.1850 -0.4329
36039DOPC   PO443487  23.027   4.289  20.986  0.1051  0.2299 -0.1273
36039DOPC   GL143488  22.742   4.330  20.629  0.0340  0.2931  0.4823
36039DOPC   GL243489  22.535   4.347  20.908 -0.1147 -0.0025  0.1966
36039DOPC   C1A43490  22.515   4.112  20.314 -0.0806 -0.0232  0.0652
36039DOPC   D2A43491  22.087   4.328  20.156 -0.3548 -0.1150 -0.0412
36039DOPC   C3A43492  22.003   4.638  19.808  0.1691  0.2067  0.1371
36039DOPC   C4A43493  21.937   4.915  19.383  0.0914 -0.1547 -0.1825
36039DOPC   C1B43494  22.181   4.148  20.711  0.1739  0.1007 -0.0691
36039DOPC   D2B43495  21.727   4.146  20.528  0.0101  0.1605  0.1501
36039DOPC   C3B43496  21.313   4.061  20.292 -0.1402 -0.0494  0.0015
36039DOPC   C4B43497  20.996   3.777  20.056  0.2627  0.1744 -0.1037
36040DOPC   NC343498  22.385   1.095  21.795  0.2244  0.0194 -0.1271
36040DOPC   PO443499  22.037   0.954  21.753 -0.3163  0.1905  0.0503
36040DOPC   GL143500  21.776   0.844  21.433  0.0189 -0.4284  0.2065
36040DOPC   GL243501  21.687   1.127  21.454  0.2277  0.0441 -0.3430
36040DOPC   C1A43502  21.554   0.621  21.109 -0.0853  0.4550 -0.0462
36040DOPC   D2A43503  21.302   0.543  20.735 -0.2468  0.2154  0.1410
36040DOPC   C3A43504  20.968   0.854  20.622  0.0268 -0.3285  0.0328
36040DOPC   C4A43505  20.527   1.050  20.647  0.0459  0.0174 -0.0763
36040DOPC   C1B43506  21.750   1.568  21.274 -0.0581  0.0205  0.1081
36040DOPC   D2B43507  21.423   1.820  21.007  0.0468 -0.4465 -0.1163
36040DOPC   C3B43508  20.924   1.750  21.065 -0.1399  0.2672  0.0064
36040DOPC   C4B43509  20.497   1.588  21.294  0.0832 -0.0450  0.1299
36041DOPC   NC343510  22.445   7.740  22.044  0.0958  0.1821 -0.1368
36041DOPC   PO443511  22.582   7.905  21.697  0.1401  0.0401 -0.2757
36041DOPC   GL143512  22.403   7.767  21.314  0.0680  0.5053  0.0283
36041DOPC   GL243513  22.635   7.532  21.285  0.0676  0.2364  0.0079
36041DOPC   C1A43514  22.085   7.559  21.045 -0.0441  0.1614  0.1295
36041DOPC   D2A43515  21.661   7.377  20.797  0.0588  0.2025 -0.0679
36041DOPC   C3A43516  21.620   7.395  20.361 -0.0811 -0.2795 -0.0167
36041DOPC   C4A43517  21.593   7.482  19.878 -0.1471  0.0626  0.5224
36041DOPC   C1B43518  22.600   7.158  20.951 -0.0930 -0.0881 -0.0874
36041DOPC   D2B43519  22.512   6.874  20.557 -0.1331 -0.2004  0.2315
36041DOPC   C3B43520  22.600   6.707  20.121  0.2751  0.0467  0.0081
36041DOPC   C4B43521  22.427   6.646  19.598 -0.0959 -0.2149 -0.0540
36042DOPC   NC343522  20.478   4.360  22.509 -0.1715  0.0877 -0.1717
36042DOPC   PO443523  20.642   4.330  22.111  0.0666 -0.0761  0.0611
36042DOPC   GL143524  20.360   4.291  21.794  0.2607  0.0365 -0.1256
36042DOPC   GL243525  20.264   4.551  21.766 -0.1655  0.0484  0.0497
36042DOPC   C1A43526  20.319   4.228  21.312  0.0193  0.1673 -0.2165
36042DOPC   D2A43527  19.875   4.191  21.037  0.1646  0.1021 -0.0778
36042DOPC   C3A43528  19.731   3.806  21.093  0.2148  0.4203  0.0869
36042DOPC   C4A43529  19.593   3.572  21.523  0.1294  0.3728 -0.0602
36042DOPC   C1B43530  19.992   4.613  21.374 -0.2954 -0.0008  0.3244
36042DOPC   D2B43531  19.798   4.687  20.948  0.0277 -0.2488 -0.0474
36042DOPC   C3B43532  19.600   4.367  20.637 -0.0755 -0.0372 -0.2083
36042DOPC   C4B43533  19.625   3.919  20.488  0.0214 -0.1388 -0.0435
36043DOPC   NC343534   8.852   7.834  14.690  0.0725 -0.0546  0.3546
36043DOPC   PO443535   8.575   7.963  14.492 -0.0268  0.1211  0.0696
36043DOPC   GL143536   8.712   7.971  14.071  0.3798 -0.1677  0.0607
36043DOPC   GL243537   8.813   8.280  14.072 -0.2355 -0.2232  0.2381
36043DOPC   C1A43538   8.864   8.049  13.608 -0.0730 -0.1766  0.0415
36043DOPC   D2A43539   9.122   8.157  13.245 -0.0523 -0.2084  0.0821
36043DOPC   C3A43540   9.481   8.325  13.041  0.1419  0.0707 -0.3384
36043DOPC   C4A43541   9.985   8.493  13.040 -0.1162 -0.0615  0.0314
36043DOPC   C1B43542   9.022   8.505  13.724  0.2390 -0.1243 -0.0389
36043DOPC   D2B43543   9.342   8.559  13.443 -0.0279 -0.2700 -0.1006
36043DOPC   C3B43544   9.834   8.498  13.521  0.1118  0.0906  0.0198
36043DOPC   C4B43545  10.266   8.380  13.734 -0.0978 -0.1738 -0.1276
36044DOPC   NC343546   0.111   7.732  19.953 -0.1581 -0.0183 -0.0764
36044DOPC   PO443547   0.032   7.590  19.572 -0.0487  0.1128  0.2185
36044DOPC   GL143548  -0.259   7.787  19.316 -0.2547  0.4068  0.1468
36044DOPC   GL243549  -0.391   7.500  19.316 -0.2159 -0.1108  0.1743
36044DOPC   C1A43550  -0.423   7.811  18.915 -0.1195 -0.1302 -0.1843
36044DOPC   D2A43551  -0.218   7.722  18.488  0.1477  0.1960  0.3181
36044DOPC   C3A43552  -0.423   7.636  18.129  0.1152  0.0507  0.1600
36044DOPC   C4A43553  -0.538   7.519  17.628 -0.2640  0.3599  0.1699
36044DOPC   C1B43554  -0.692   7.367  19.027  0.1194 -0.1458  0.0190
36044DOPC   D2B43555  -0.902   7.362  18.529  0.4120 -0.2647 -0.1328
36044DOPC   C3B43556  -1.174   7.682  18.377  0.4834  0.0866  0.0023
36044DOPC   C4B43557  -1.497   8.079  18.156  0.0585 -0.1068 -0.0010
36045DOPC   NC343558   4.988   3.960  14.605 -0.0345  0.2174 -0.0792
36045DOPC   PO443559   5.021   3.722  14.955 -0.0800 -0.0144 -0.3638
36045DOPC   GL143560   4.691   3.538  14.776  0.1121  0.2791  0.0959
36045DOPC   GL243561   4.504   3.632  14.972 -0.4403 -0.0024 -0.1558
36045DOPC   C1A43562   4.516   3.505  14.444 -0.0741  0.0635  0.2507
36045DOPC   D2A43563   4.035   3.486  14.287 -0.0347  0.1170 -0.1308
36045DOPC   C3A43564   3.642   3.489  14.040 -0.1101  0.0376  0.0238
36045DOPC   C4A43565   3.212   3.367  13.901 -0.2528  0.0009 -0.2551
36045DOPC   C1B43566   4.139   3.367  14.906  0.1563  0.2493  0.1757
36045DOPC   D2B43567   3.795   3.123  15.147  0.0713  0.1269  0.1489
36045DOPC   C3B43568   3.376   3.151  15.004 -0.2895  0.2706 -0.0874
36045DOPC   C4B43569   2.873   3.029  15.014 -0.0413 -0.2840 -0.0571
36046DOPC   NC343570   4.959   1.964  14.501  0.0921  0.0179 -0.0384
36046DOPC   PO443571   4.647   2.004  14.726  0.0821 -0.1632 -0.2896
36046DOPC   GL143572   4.287   2.146  14.539  0.0921  0.1428 -0.1861
36046DOPC   GL243573   4.459   2.263  14.320  0.1325 -0.0317  0.0646
36046DOPC   C1A43574   4.035   1.925  14.289  0.0177 -0.0307 -0.1261
36046DOPC   D2A43575   3.944   1.813  13.824  0.2233 -0.0844 -0.2266
36046DOPC   C3A43576   3.722   2.103  13.477  0.0132 -0.0524 -0.0054
36046DOPC   C4A43577   3.367   2.069  13.085  0.2240 -0.0933 -0.1840
36046DOPC   C1B43578   4.238   2.220  13.932  0.0873 -0.1037  0.0764
36046DOPC   D2B43579   4.146   2.370  13.470 -0.1568  0.0643 -0.3559
36046DOPC   C3B43580   3.914   2.228  13.053 -0.1444 -0.3980 -0.0135
36046DOPC   C4B43581   3.522   2.511  12.910 -0.0084  0.0556 -0.0861
36047DOPC   NC343582   0.115   4.971  19.946 -0.2730  0.0024 -0.1137
36047DOPC   PO443583  -0.215   5.224  19.860 -0.0635 -0.0193 -0.2773
36047DOPC   GL143584  -0.340   5.429  19.462  0.2174 -0.1026 -0.2291
36047DOPC   GL243585  -0.585   5.544  19.624  0.0328  0.0952 -0.1018
36047DOPC   C1A43586  -0.470   5.349  19.132  0.0361  0.3726 -0.1547
36047DOPC   D2A43587  -0.572   5.253  18.672 -0.0158  0.1220  0.1886
36047DOPC   C3A43588  -0.921   5.406  18.374 -0.0612  0.1252 -0.0186
36047DOPC   C4A43589  -1.292   5.658  18.301 -0.2837 -0.0261 -0.1219
36047DOPC   C1B43590  -0.923   5.297  19.539  0.0089  0.1093  0.1391
36047DOPC   D2B43591  -1.326   5.073  19.355  0.2558  0.3900 -0.1218
36047DOPC   C3B43592  -1.603   5.049  19.011 -0.1535 -0.3296 -0.1084
36047DOPC   C4B43593  -1.891   4.898  18.630 -0.0906  0.0833 -0.0702
36048DOPC   NC343594   3.910   0.373  16.073 -0.3804 -0.0391 -0.1711
36048DOPC   PO443595   3.580   0.123  16.078 -0.0808  0.1160  0.1484
36048DOPC   GL143596   3.291   0.080  15.817 -0.1350 -0.6198  0.3890
36048DOPC   GL243597   3.197  -0.219  15.878 -0.0328 -0.0966  0.0474
36048DOPC   C1A43598   3.263   0.289  15.376  0.0934  0.2006 -0.1003
36048DOPC   D2A43599   3.308   0.483  14.980 -0.1882  0.2098 -0.1572
36048DOPC   C3A43600   3.118   0.482  14.524 -0.1345 -0.1285  0.0802
36048DOPC   C4A43601   3.045   0.505  14.078 -0.0042 -0.1960 -0.2717
36048DOPC   C1B43602   3.139  -0.238  15.408  0.3944 -0.0428  0.2674
36048DOPC   D2B43603   3.299  -0.032  14.943 -0.0036  0.0735 -0.1307
36048DOPC   C3B43604   3.025  -0.019  14.623  0.0269 -0.1779  0.1837
36048DOPC   C4B43605   2.761   0.186  14.261 -0.1232  0.0967 -0.0575
36049DOPC   NC343606   6.113   4.867  14.079  0.0488  0.0767 -0.2468
36049DOPC   PO443607   5.801   4.905  14.290  0.1432 -0.0528  0.1551
36049DOPC   GL143608   5.516   4.706  13.980  0.4894 -0.2681 -0.1915
36049DOPC   GL243609   5.539   4.383  14.060 -0.1174 -0.2366 -0.2203
36049DOPC   C1A43610   5.737   4.905  13.625  0.0442 -0.1631 -0.2400
36049DOPC   D2A43611   5.647   5.028  13.135  0.0010 -0.0815 -0.2511
36049DOPC   C3A43612   5.673   5.197  12.769  0.2413 -0.0100 -0.2042
36049DOPC   C4A43613   5.774   5.099  12.324 -0.0721  0.3503 -0.1324
36049DOPC   C1B43614   5.340   4.179  13.659  0.2269 -0.1382  0.0080
36049DOPC   D2B43615   4.997   4.039  13.372  0.3263  0.0431  0.2590
36049DOPC   C3B43616   5.137   4.072  12.884  0.0216 -0.0739  0.3171
36049DOPC   C4B43617   5.398   4.281  12.535  0.2257  0.2291 -0.0610
36050DOPC   NC343618   6.396   7.666  14.001 -0.1011 -0.2619 -0.1840
36050DOPC   PO443619   6.251   8.035  14.010  0.3623  0.0929 -0.0864
36050DOPC   GL143620   6.168   7.894  13.584  0.1434 -0.0744 -0.1312
36050DOPC   GL243621   6.352   7.700  13.562 -0.1429  0.2804 -0.2633
36050DOPC   C1A43622   5.935   8.161  13.265  0.1168  0.0480 -0.0078
36050DOPC   D2A43623   5.804   8.656  13.011  0.0617 -0.0868 -0.0282
36050DOPC   C3A43624   5.399   8.545  12.912  0.0046  0.1236 -0.3130
36050DOPC   C4A43625   4.922   8.536  12.830 -0.1291 -0.2817  0.2493
36050DOPC   C1B43626   6.420   7.487  13.125 -0.0843 -0.0740  0.0471
36050DOPC   D2B43627   6.539   7.288  12.674 -0.1497  0.1169  0.0066
36050DOPC   C3B43628   6.873   7.098  12.435 -0.0071  0.1016  0.2487
36050DOPC   C4B43629   7.154   7.010  12.070 -0.2797  0.0759  0.0239
36051DOPC   NC343630  11.155   1.915  17.484  0.0079  0.0966 -0.0049
36051DOPC   PO443631  11.451   2.146  17.583  0.0964  0.0880 -0.2296
36051DOPC   GL143632  11.793   2.246  17.384  0.4352  0.2013  0.2520
36051DOPC   GL243633  11.917   2.419  17.519 -0.4723 -0.0213 -0.1663
36051DOPC   C1A43634  11.988   2.055  17.060  0.0653  0.3025 -0.1205
36051DOPC   D2A43635  12.354   2.287  16.819 -0.1588 -0.0868  0.0362
36051DOPC   C3A43636  12.747   2.113  16.682 -0.0820  0.1094  0.0965
36051DOPC   C4A43637  13.211   2.250  16.521 -0.2178  0.1058 -0.0672
36051DOPC   C1B43638  12.289   2.398  17.314 -0.2206  0.0460  0.2786
36051DOPC   D2B43639  12.727   2.195  17.186 -0.2963  0.0941 -0.0879
36051DOPC   C3B43640  13.097   2.123  17.014  0.1617  0.0801  0.0282
36051DOPC   C4B43641  13.537   1.841  16.883 -0.0574  0.1108 -0.3509
36052DOPC   NC343642   4.902   6.614  14.715 -0.2177 -0.1949 -0.2149
36052DOPC   PO443643   5.274   6.763  14.589  0.1098  0.2060 -0.4095
36052DOPC   GL143644   5.412   6.794  14.214 -0.3942 -0.0996 -0.4905
36052DOPC   GL243645   5.526   6.899  14.031 -0.0785  0.1886  0.0578
36052DOPC   C1A43646   5.084   6.676  13.856  0.3789 -0.2436  0.2636
36052DOPC   D2A43647   5.015   6.466  13.421 -0.2004  0.2239  0.0126
36052DOPC   C3A43648   4.636   6.374  13.154 -0.0512 -0.2028  0.0874
36052DOPC   C4A43649   4.176   6.135  13.313 -0.2903  0.0076  0.1676
36052DOPC   C1B43650   5.534   6.571  13.683 -0.1221  0.2500 -0.1480
36052DOPC   D2B43651   5.535   6.177  13.363  0.3711  0.0166 -0.0064
36052DOPC   C3B43652   5.671   6.260  12.921  0.0308  0.0134 -0.1206
36052DOPC   C4B43653   5.996   6.133  12.548 -0.3273 -0.2944 -0.0994
36053DOPC   NC343654  12.351   6.185  19.369 -0.1379 -0.1492  0.2452
36053DOPC   PO443655  12.548   5.827  19.270 -0.1322 -0.0527  0.0795
36053DOPC   GL143656  12.853   5.990  19.263 -0.1234 -0.0744 -0.3640
36053DOPC   GL243657  13.009   5.793  19.122 -0.2696  0.0995 -0.2172
36053DOPC   C1A43658  13.065   6.298  19.016  0.0290  0.0236  0.2487
36053DOPC   D2A43659  13.375   6.513  18.719  0.2188  0.3139 -0.1684
36053DOPC   C3A43660  13.803   6.461  18.669 -0.1101 -0.1941 -0.1054
36053DOPC   C4A43661  14.302   6.500  18.571  0.0345 -0.1946  0.0534
36053DOPC   C1B43662  13.408   5.867  18.954  0.1227 -0.0405  0.1211
36053DOPC   D2B43663  13.750   5.916  18.660  0.0147  0.1219  0.1396
36053DOPC   C3B43664  14.132   6.094  18.805 -0.0397  0.0100  0.0901
36053DOPC   C4B43665  14.476   6.390  19.038  0.0425  0.0634 -0.1610
36054DOPC   NC343666   1.723   4.127  17.765  0.0050 -0.0558 -0.1642
36054DOPC   PO443667   1.827   4.469  17.537  0.0514  0.1506  0.1684
36054DOPC   GL143668   1.491   4.496  17.361  0.4117  0.0736  0.0176
36054DOPC   GL243669   1.546   4.353  17.090 -0.3673  0.3927 -0.3033
36054DOPC   C1A43670   1.210   4.784  17.321  0.0896  0.0098 -0.2447
36054DOPC   D2A43671   0.917   5.128  17.156  0.0461  0.1648  0.0213
36054DOPC   C3A43672   0.604   5.206  16.778  0.1149 -0.2501 -0.0737
36054DOPC   C4A43673   0.196   5.192  16.567  0.0653 -0.1026 -0.3569
36054DOPC   C1B43674   1.339   4.095  16.786 -0.0695 -0.0916  0.1881
36054DOPC   D2B43675   1.008   3.958  16.429 -0.1020 -0.1681 -0.2406
36054DOPC   C3B43676   1.207   3.674  16.117  0.0917 -0.1237 -0.0190
36054DOPC   C4B43677   1.090   3.518  15.637  0.1774  0.3457  0.0294
36055DOPC   NC343678   9.171   0.764  14.976  0.1219 -0.2300 -0.0925
36055DOPC   PO443679   9.415   1.033  15.157  0.0106 -0.1872  0.1783
36055DOPC   GL143680   9.728   0.934  14.917 -0.0571 -0.1449 -0.0129
36055DOPC   GL243681   9.625   1.093  14.694  0.3038 -0.2701 -0.0437
36055DOPC   C1A43682   9.709   0.553  14.812 -0.0903 -0.1736 -0.0622
36055DOPC   D2A43683   9.550   0.236  14.457 -0.2178  0.1387  0.0436
36055DOPC   C3A43684   9.682   0.016  14.056  0.0030  0.0344 -0.1000
36055DOPC   C4A43685   9.761  -0.301  13.667  0.0492 -0.1540 -0.0399
36055DOPC   C1B43686   9.695   1.262  14.284 -0.3613  0.0389  0.0165
36055DOPC   D2B43687   9.820   1.490  13.808  0.0738 -0.2186  0.0001
36055DOPC   C3B43688  10.095   1.166  13.644  0.0534 -0.0900  0.2959
36055DOPC   C4B43689  10.308   0.857  13.353  0.0302  0.2416  0.0442
36056DOPC   NC343690  14.343   3.657  21.140 -0.1129 -0.0552 -0.3655
36056DOPC   PO443691  14.173   3.579  20.782 -0.3212  0.1485 -0.0571
36056DOPC   GL143692  14.243   3.834  20.470  0.2677  0.0712 -0.2566
36056DOPC   GL243693  13.986   3.920  20.438  0.0785  0.1077  0.1107
36056DOPC   C1A43694  14.393   3.816  20.073  0.0763  0.3307  0.0135
36056DOPC   D2A43695  14.797   3.717  19.754 -0.1615 -0.1253 -0.1176
36056DOPC   C3A43696  14.857   3.363  19.449  0.0727 -0.3803  0.2043
36056DOPC   C4A43697  15.043   3.095  19.097  0.2018  0.1704 -0.1013
36056DOPC   C1B43698  14.219   4.255  20.217 -0.2059  0.0039 -0.0235
36056DOPC   D2B43699  14.327   4.277  19.724 -0.0323  0.1755  0.0531
36056DOPC   C3B43700  14.584   4.601  19.511 -0.0309 -0.2292  0.0610
36056DOPC   C4B43701  14.861   4.917  19.216 -0.0055 -0.1525  0.0970
36057DOPC   NC343702  12.489   2.816  19.000  0.0516  0.3512 -0.0940
36057DOPC   PO443703  12.683   2.938  19.319  0.1396 -0.0535 -0.2640
36057DOPC   GL143704  13.093   3.070  19.332 -0.1237 -0.0161  0.0321
36057DOPC   GL243705  13.088   3.199  19.019 -0.0744 -0.2680  0.0401
36057DOPC   C1A43706  13.560   2.909  19.152  0.0099  0.3052 -0.3442
36057DOPC   D2A43707  14.026   2.762  18.919 -0.1095 -0.0205  0.1271
36057DOPC   C3A43708  14.262   2.651  18.504 -0.1060  0.3810  0.2050
36057DOPC   C4A43709  14.534   2.382  18.211 -0.2816  0.0273 -0.1000
36057DOPC   C1B43710  13.435   3.196  18.746  0.2125 -0.1126 -0.1610
36057DOPC   D2B43711  13.688   3.431  18.415  0.1168 -0.3009 -0.1203
36057DOPC   C3B43712  13.875   3.155  18.075  0.0595 -0.0348  0.0488
36057DOPC   C4B43713  14.004   3.127  17.536 -0.2772 -0.1048 -0.0455
36058DOPC   NC343714  11.539   6.697  18.491  0.0416 -0.3157 -0.3902
36058DOPC   PO443715  11.813   6.899  18.309 -0.2340 -0.1315 -0.1682
36058DOPC   GL143716  12.137   6.769  18.088 -0.1291 -0.0118  0.0052
36058DOPC   GL243717  12.110   6.833  17.772 -0.0343  0.4286 -0.3484
36058DOPC   C1A43718  12.466   6.518  18.101 -0.3022 -0.1879  0.1478
36058DOPC   D2A43719  12.925   6.412  18.043 -0.1245  0.1438 -0.0541
36058DOPC   C3A43720  13.304   6.361  17.848 -0.0047 -0.3126  0.2877
36058DOPC   C4A43721  13.545   6.414  17.430  0.0440  0.0755 -0.1578
36058DOPC   C1B43722  12.559   6.910  17.762  0.1740 -0.0632  0.1182
36058DOPC   D2B43723  13.024   6.974  17.979 -0.1715 -0.1419 -0.0127
36058DOPC   C3B43724  13.386   6.855  17.674 -0.2478  0.2230 -0.2779
36058DOPC   C4B43725  13.841   6.784  17.481 -0.1687 -0.1824 -0.1216
36059DOPC   NC343726  21.652   4.817  22.072 -0.1947 -0.1042 -0.1140
36059DOPC   PO443727  21.675   4.603  21.748 -0.2102  0.1312 -0.4563
36059DOPC   GL143728  21.908   4.630  21.362 -0.0814 -0.3896 -0.3026
36059DOPC   GL243729  21.721   4.810  21.322 -0.0083  0.1724 -0.0457
36059DOPC   C1A43730  22.144   4.657  20.977 -0.0506  0.3600 -0.2114
36059DOPC   D2A43731  22.361   4.622  20.513 -0.0647 -0.0882  0.1277
36059DOPC   C3A43732  22.329   4.847  20.081  0.1128  0.0156 -0.0351
36059DOPC   C4A43733  21.986   5.094  19.951 -0.1079 -0.3463 -0.2186
36059DOPC   C1B43734  21.503   4.975  21.044 -0.2850 -0.1209 -0.0310
36059DOPC   D2B43735  21.150   5.343  20.938 -0.1717 -0.1481  0.0189
36059DOPC   C3B43736  20.845   5.273  20.590  0.3058 -0.0395  0.0841
36059DOPC   C4B43737  20.421   5.287  20.377  0.2666  0.0930  0.0060
36060DOPC   NC343738  14.260   1.622  20.631 -0.0702  0.0906 -0.1871
36060DOPC   PO443739  14.029   1.772  20.349 -0.2911  0.0542 -0.0062
36060DOPC   GL143740  14.086   1.623  20.038 -0.2703  0.2232  0.0517
36060DOPC   GL243741  13.848   1.456  19.936 -0.0359  0.0448  0.3447
36060DOPC   C1A43742  14.398   1.417  19.823  0.0539 -0.1339 -0.0759
36060DOPC   D2A43743  14.850   1.227  19.623 -0.1075  0.1810  0.5350
36060DOPC   C3A43744  14.971   0.861  19.437 -0.0035  0.0113  0.2162
36060DOPC   C4A43745  14.889   0.451  19.219  0.2030 -0.1403  0.1970
36060DOPC   C1B43746  13.890   1.644  19.596  0.0358  0.1110 -0.2038
36060DOPC   D2B43747  13.749   1.865  19.179 -0.0676  0.0553  0.1602
36060DOPC   C3B43748  13.955   1.766  18.792  0.0012 -0.0216  0.1562
36060DOPC   C4B43749  14.194   1.592  18.387 -0.0416  0.0936 -0.4565
36061DOPC   NC343750  10.757   1.015  16.553 -0.1794 -0.1752  0.2597
36061DOPC   PO443751  10.942   1.273  16.756  0.3606  0.1222 -0.2155
36061DOPC   GL143752  11.134   1.280  16.410  0.3194 -0.0609  0.0141
36061DOPC   GL243753  11.159   1.497  16.360  0.1171 -0.1220 -0.0941
36061DOPC   C1A43754  11.392   1.132  16.159  0.0315 -0.3151  0.1144
36061DOPC   D2A43755  11.756   0.922  15.839  0.0523 -0.3097  0.0300
36061DOPC   C3A43756  12.055   0.668  15.569 -0.1609  0.1879  0.1862
36061DOPC   C4A43757  12.377   0.551  15.295  0.0249  0.2507  0.3988
36061DOPC   C1B43758  11.656   1.534  16.386  0.2958 -0.1119  0.1828
36061DOPC   D2B43759  12.100   1.454  16.587  0.0330 -0.0632 -0.1099
36061DOPC   C3B43760  12.387   1.795  16.621 -0.1258 -0.2552 -0.0186
36061DOPC   C4B43761  12.832   1.800  16.327 -0.0803 -0.1029  0.3332
36062DOPC   NC343762  17.995   2.203  17.902  0.1540 -0.2285 -0.1152
36062DOPC   PO443763  17.669   2.002  17.954  0.1316  0.2132 -0.0865
36062DOPC   GL143764  17.411   2.287  18.159 -0.0803 -0.1795 -0.0936
36062DOPC   GL243765  17.625   2.334  18.350  0.2607 -0.0715  0.1882
36062DOPC   C1A43766  17.155   2.058  18.480  0.3420  0.0676  0.0408
36062DOPC   D2A43767  16.944   1.912  18.937 -0.0063  0.1660 -0.1571
36062DOPC   C3A43768  16.730   1.520  19.153 -0.4298  0.0621  0.0879
36062DOPC   C4A43769  16.176   1.589  19.264 -0.0111 -0.0249  0.1635
36062DOPC   C1B43770  17.569   2.468  18.813  0.0136 -0.1670  0.1657
36062DOPC   D2B43771  17.410   2.617  19.265 -0.1010 -0.2693  0.0775
36062DOPC   C3B43772  17.518   2.613  19.748  0.0497  0.1748 -0.0482
36062DOPC   C4B43773  17.443   2.675  20.236 -0.2926  0.2981  0.1117
36063DOPC   NC343774  12.692   2.484  12.581  0.0873 -0.2300  0.1062
36063DOPC   PO443775  12.798   2.707  12.875  0.2051  0.0704  0.2183
36063DOPC   GL143776  12.517   2.863  13.079  0.0609 -0.0710 -0.0685
36063DOPC   GL243777  12.612   2.776  13.394  0.4231 -0.2450 -0.0751
36063DOPC   C1A43778  12.075   2.804  13.173  0.1404 -0.2463 -0.1761
36063DOPC   D2A43779  11.758   3.020  13.414  0.1433  0.1285 -0.0905
36063DOPC   C3A43780  11.516   2.782  13.763  0.1782 -0.0351  0.0034
36063DOPC   C4A43781  11.552   2.405  14.092 -0.0798  0.3040  0.0864
36063DOPC   C1B43782  12.341   2.545  13.605  0.1049  0.1002  0.2449
36063DOPC   D2B43783  12.002   2.411  13.954  0.2356 -0.3467  0.1385
36063DOPC   C3B43784  11.908   1.971  14.031 -0.0011 -0.3069 -0.1867
36063DOPC   C4B43785  11.826   1.565  13.783  0.0127  0.1836 -0.1567
36064DOPC   NC343786   3.128   7.709  11.079 -0.0366  0.1296  0.1083
36064DOPC   PO443787   3.458   7.429  11.017 -0.5458  0.0668 -0.1153
36064DOPC   GL143788   3.353   7.258  11.389 -0.1309  0.0199  0.1114
36064DOPC   GL243789   3.260   7.513  11.445 -0.1401 -0.1090 -0.2613
36064DOPC   C1A43790   3.659   7.164  11.692  0.1371  0.1924 -0.2446
36064DOPC   D2A43791   3.600   6.790  11.941 -0.0887  0.0509 -0.2257
36064DOPC   C3A43792   3.370   6.595  12.331 -0.1511 -0.0554 -0.1501
36064DOPC   C4A43793   3.162   6.506  12.699 -0.3481  0.0439 -0.1085
36064DOPC   C1B43794   3.473   7.734  11.788  0.0916 -0.1185 -0.0807
36064DOPC   D2B43795   3.484   8.031  12.216  0.1767 -0.1744 -0.2018
36064DOPC   C3B43796   3.598   8.250  12.542 -0.1002 -0.0319  0.2194
36064DOPC   C4B43797   3.933   8.248  12.933 -0.1669 -0.0620  0.0000
36065DOPC   NC343798   0.085   5.263  13.575  0.1001 -0.0091  0.0424
36065DOPC   PO443799   0.287   5.476  13.848 -0.0477  0.3338 -0.0056
36065DOPC   GL143800   0.196   5.463  14.225  0.3391  0.3347  0.0155
36065DOPC   GL243801   0.457   5.505  14.378  0.4065  0.1626  0.1121
36065DOPC   C1A43802  -0.030   5.233  14.487 -0.0903 -0.0706 -0.3491
36065DOPC   D2A43803  -0.336   5.246  14.841  0.1949 -0.1891 -0.1452
36065DOPC   C3A43804  -0.004   5.272  15.216 -0.2775 -0.1782 -0.0952
36065DOPC   C4A43805   0.359   5.255  15.599 -0.0530 -0.2371 -0.1350
36065DOPC   C1B43806   0.478   5.261  14.699 -0.1521 -0.0611 -0.2186
36065DOPC   D2B43807   0.895   4.918  14.852 -0.0199  0.0391 -0.3129
36065DOPC   C3B43808   1.149   4.858  15.256  0.0132 -0.0406  0.1112
36065DOPC   C4B43809   1.642   4.716  15.304 -0.0081 -0.0349  0.2285
36066DOPC   NC343810   1.431   1.281  12.504  0.1455  0.3718  0.0131
36066DOPC   PO443811   1.585   1.565  12.318  0.0579 -0.2255  0.0814
36066DOPC   GL143812   1.924   1.273  12.411  0.2750 -0.3616 -0.0501
36066DOPC   GL243813   2.098   1.487  12.301  0.1698 -0.2732 -0.0096
36066DOPC   C1A43814   2.283   1.045  12.713 -0.5086 -0.0283 -0.1917
36066DOPC   D2A43815   2.736   1.084  12.913 -0.0023  0.0215 -0.0956
36066DOPC   C3A43816   3.082   0.810  13.025  0.5385  0.1048  0.3225
36066DOPC   C4A43817   3.468   0.739  12.791  0.1525  0.0598  0.1091
36066DOPC   C1B43818   2.411   1.598  12.604 -0.1239  0.0146  0.1781
36066DOPC   D2B43819   2.828   1.759  12.888 -0.1578  0.1170  0.2541
36066DOPC   C3B43820   3.131   1.650  13.177  0.2070 -0.1978  0.1045
36066DOPC   C4B43821   3.504   1.607  13.519  0.0510  0.1335  0.2403
36067DOPC   NC343822  16.569   0.465  17.190  0.1122 -0.1834  0.1623
36067DOPC   PO443823  16.794   0.731  17.389  0.2940 -0.1854 -0.2002
36067DOPC   GL143824  16.535   0.775  17.658 -0.2969 -0.1165  0.1383
36067DOPC   GL243825  16.673   0.581  17.889 -0.1080  0.4245 -0.1108
36067DOPC   C1A43826  16.086   0.817  17.516  0.1221 -0.0043 -0.3463
36067DOPC   D2A43827  15.656   0.874  17.243 -0.0065  0.0952 -0.1044
36067DOPC   C3A43828  15.273   0.796  17.471 -0.3910 -0.0386  0.1345
36067DOPC   C4A43829  14.864   0.960  17.459 -0.0776  0.1407  0.2417
36067DOPC   C1B43830  16.566   0.536  18.322 -0.2211 -0.0712 -0.3246
36067DOPC   D2B43831  16.291   0.501  18.783  0.2415  0.0662 -0.0320
36067DOPC   C3B43832  15.864   0.484  19.014 -0.1633 -0.0416 -0.0668
36067DOPC   C4B43833  15.363   0.685  19.141 -0.3373  0.1185 -0.2344
36068DOPC   NC343834   2.237   0.812  11.352 -0.1973 -0.1297 -0.2046
36068DOPC   PO443835   2.527   0.507  11.427  0.0317 -0.3581 -0.1059
36068DOPC   GL143836   2.867   0.527  11.699  0.2142  0.0967  0.0151
36068DOPC   GL243837   3.064   0.637  11.604  0.0841 -0.3859  0.1292
36068DOPC   C1A43838   3.063   0.293  11.945 -0.2035 -0.0006  0.0741
36068DOPC   D2A43839   3.089  -0.107  12.231  0.0465  0.0661  0.0040
36068DOPC   C3A43840   3.397  -0.307  12.401 -0.2095 -0.0116 -0.1158
36068DOPC   C4A43841   3.774  -0.483  12.714  0.2469 -0.1473  0.0840
36068DOPC   C1B43842   3.479   0.432  11.771  0.2996 -0.0331 -0.1201
36068DOPC   D2B43843   3.869   0.516  11.915 -0.4175 -0.3042 -0.1786
36068DOPC   C3B43844   3.982   0.181  12.159 -0.0061  0.3424  0.1586
36068DOPC   C4B43845   3.939   0.002  12.613 -0.2939 -0.1594 -0.0440
36069DOPC   NC343846  21.056   1.566  17.600 -0.0961  0.0015 -0.0374
36069DOPC   PO443847  21.467   1.493  17.587 -0.2139 -0.0556 -0.1483
36069DOPC   GL143848  21.675   1.582  17.892 -0.0229 -0.3760 -0.4011
36069DOPC   GL243849  21.781   1.836  17.897  0.1055 -0.1116 -0.0267
36069DOPC   C1A43850  21.956   1.433  18.241  0.0884 -0.1948 -0.1438
36069DOPC   D2A43851  22.290   1.275  18.532  0.1474 -0.2445 -0.1852
36069DOPC   C3A43852  22.288   0.813  18.695 -0.0189  0.0428 -0.2220
36069DOPC   C4A43853  21.898   0.763  19.022 -0.1335 -0.3635  0.2372
36069DOPC   C1B43854  22.168   1.848  17.976 -0.2515 -0.1311  0.2810
36069DOPC   D2B43855  22.443   1.736  18.305 -0.0583  0.3561 -0.1724
36069DOPC   C3B43856  22.730   1.449  18.568  0.0820  0.1691 -0.1035
36069DOPC   C4B43857  23.072   1.236  18.785  0.0748 -0.0445  0.2424
36070DOPC   NC343858   6.098   5.945   9.961  0.1171  0.1866  0.2068
36070DOPC   PO443859   6.007   5.630  10.198 -0.2845 -0.2721  0.1653
36070DOPC   GL143860   5.979   5.594  10.614  0.0019  0.4604  0.1811
36070DOPC   GL243861   5.790   5.855  10.662  0.1095  0.1662  0.2817
36070DOPC   C1A43862   6.306   5.725  10.875  0.0733 -0.1474  0.0814
36070DOPC   D2A43863   6.503   5.824  11.305  0.1730 -0.1827  0.0511
36070DOPC   C3A43864   6.388   5.912  11.733  0.3076 -0.0452 -0.1188
36070DOPC   C4A43865   6.500   5.911  12.255  0.0050 -0.0889 -0.2369
36070DOPC   C1B43866   5.921   5.897  11.186 -0.2015  0.1459  0.2417
36070DOPC   D2B43867   5.892   5.735  11.598  0.1086 -0.1118  0.2049
36070DOPC   C3B43868   5.777   5.854  12.055 -0.0981  0.1754  0.0583
36070DOPC   C4B43869   5.566   5.561  12.407 -0.2511 -0.3620 -0.0988
36071DOPC   NC343870  11.374   1.452  11.542  0.1273  0.0463  0.2895
36071DOPC   PO443871  11.232   1.760  11.353 -0.1416  0.2363 -0.1567
36071DOPC   GL143872  10.895   1.562  11.630  0.0503  0.1530 -0.1213
36071DOPC   GL243873  11.019   1.800  11.792 -0.0974  0.1635  0.2338
36071DOPC   C1A43874  10.602   1.314  11.897  0.1550  0.1379 -0.1968
36071DOPC   D2A43875  10.165   1.201  11.995 -0.2931 -0.2239  0.2010
36071DOPC   C3A43876   9.812   1.168  12.256  0.3379 -0.2347  0.2972
36071DOPC   C4A43877   9.344   1.299  12.417  0.1772  0.1242  0.0200
36071DOPC   C1B43878  10.856   1.911  12.169  0.0556 -0.0873 -0.3270
36071DOPC   D2B43879  10.606   1.886  12.601  0.5022  0.2623  0.1405
36071DOPC   C3B43880  10.369   1.928  12.920  0.0089 -0.1869 -0.1315
36071DOPC   C4B43881  10.340   1.544  13.236  0.0775 -0.0499  0.1639
36072DOPC   NC343882   5.741   4.262  10.505  0.0133 -0.0466 -0.0097
36072DOPC   PO443883   5.841   4.643  10.565  0.1383 -0.1582 -0.0483
36072DOPC   GL143884   5.899   4.676  11.016  0.1268  0.1832  0.1908
36072DOPC   GL243885   6.027   4.895  10.882 -0.2606  0.2030  0.1312
36072DOPC   C1A43886   5.752   4.633  11.436 -0.0181  0.1627  0.1425
36072DOPC   D2A43887   5.552   4.589  11.882 -0.0861  0.1868  0.0518
36072DOPC   C3A43888   5.659   4.630  12.282 -0.1072  0.1482  0.0342
36072DOPC   C4A43889   5.488   4.722  12.747  0.4116 -0.0012  0.2214
36072DOPC   C1B43890   6.432   4.847  11.056  0.1728  0.0825 -0.0190
36072DOPC   D2B43891   6.716   4.999  11.496  0.0682 -0.1140  0.0044
36072DOPC   C3B43892   6.795   5.353  11.791 -0.1531  0.1601  0.0540
36072DOPC   C4B43893   6.989   5.596  12.168 -0.0654 -0.2362  0.1505
36073DOPC   NC343894  17.245   6.142  18.005  0.1588 -0.2631 -0.2226
36073DOPC   PO443895  17.467   6.304  18.314 -0.0046  0.0726 -0.2886
36073DOPC   GL143896  17.444   6.545  18.657  0.1152 -0.0006 -0.1705
36073DOPC   GL243897  17.250   6.654  18.656  0.0241 -0.3882  0.0234
36073DOPC   C1A43898  17.508   6.435  19.012 -0.0482  0.2574  0.1540
36073DOPC   D2A43899  17.624   6.125  19.380  0.0560  0.2384  0.0391
36073DOPC   C3A43900  17.819   5.740  19.451 -0.0051 -0.1300 -0.1587
36073DOPC   C4A43901  17.700   5.293  19.564 -0.0425  0.1288  0.1122
36073DOPC   C1B43902  17.148   6.924  18.967 -0.3368  0.1197  0.0807
36073DOPC   D2B43903  16.832   7.208  19.247  0.0383  0.0438  0.0383
36073DOPC   C3B43904  16.564   7.157  19.663 -0.2263  0.1048 -0.0847
36073DOPC   C4B43905  16.228   7.150  20.044  0.1085 -0.1066 -0.0743
36074DOPC   NC343906  19.177   3.597  18.337  0.1094 -0.2499 -0.0224
36074DOPC   PO443907  19.546   3.699  18.158  0.1154 -0.0856 -0.1665
36074DOPC   GL143908  19.840   3.728  18.517 -0.3924 -0.1540  0.1307
36074DOPC   GL243909  20.026   3.506  18.434  0.1548  0.4195  0.2880
36074DOPC   C1A43910  20.044   3.881  18.871  0.0431  0.0823 -0.0299
36074DOPC   D2A43911  20.221   4.190  19.214 -0.0894 -0.1713  0.0748
36074DOPC   C3A43912  20.097   4.214  19.649 -0.0274  0.2337  0.0499
36074DOPC   C4A43913  19.774   4.574  19.692  0.1288  0.2902  0.1127
36074DOPC   C1B43914  20.194   3.358  18.813  0.0076 -0.3304 -0.0512
36074DOPC   D2B43915  20.022   3.333  19.238 -0.0901 -0.1040 -0.1029
36074DOPC   C3B43916  20.320   3.299  19.598  0.3738  0.1349  0.1333
36074DOPC   C4B43917  20.627   3.450  19.986  0.2119  0.3766 -0.2019
36075DOPC   NC343918   9.515   6.335  10.548  0.0958 -0.0866 -0.1376
36075DOPC   PO443919   9.853   6.136  10.498 -0.1642  0.2591 -0.1695
36075DOPC   GL143920   9.777   5.815  10.871  0.4236  0.0133  0.1534
36075DOPC   GL243921   9.906   6.063  10.925  0.0549 -0.0485 -0.0045
36075DOPC   C1A43922   9.791   5.644  11.294  0.4294 -0.4959  0.1211
36075DOPC   D2A43923   9.965   5.276  11.598  0.2826 -0.3266 -0.2950
36075DOPC   C3A43924  10.074   4.901  11.560  0.1371 -0.1909  0.0289
36075DOPC   C4A43925  10.406   4.583  11.443 -0.0965  0.0468 -0.1727
36075DOPC   C1B43926  10.007   6.149  11.386  0.1377 -0.0119 -0.2936
36075DOPC   D2B43927   9.958   6.214  11.873 -0.3262 -0.0851 -0.0399
36075DOPC   C3B43928   9.813   6.175  12.299 -0.0750  0.1578  0.2280
36075DOPC   C4B43929   9.794   6.217  12.821 -0.2964  0.1488  0.2777
36076DOPC   NC343930   8.947   1.249  10.512 -0.3610  0.0624  0.2676
36076DOPC   PO443931   9.208   1.527  10.369  0.1510 -0.1250 -0.2064
36076DOPC   GL143932   9.027   1.798  10.712  0.0364  0.0574  0.2381
36076DOPC   GL243933   9.234   1.681  10.867 -0.3346 -0.0262 -0.0686
36076DOPC   C1A43934   8.625   1.813  10.748  0.1962 -0.0901 -0.0300
36076DOPC   D2A43935   8.246   1.714  11.090  0.2278  0.0048 -0.2479
36076DOPC   C3A43936   8.517   1.515  11.457 -0.0230 -0.1113 -0.0064
36076DOPC   C4A43937   8.787   1.341  11.742 -0.0769  0.1195  0.1065
36076DOPC   C1B43938   9.249   1.938  11.219  0.3856  0.2087  0.2298
36076DOPC   D2B43939   9.081   2.233  11.557  0.1469 -0.0846  0.2930
36076DOPC   C3B43940   9.003   2.293  11.996 -0.2717 -0.2027 -0.1007
36076DOPC   C4B43941   8.873   2.097  12.388  0.5209 -0.3258 -0.2159
36077DOPC   NC343942  20.466   1.630  18.148 -0.2865 -0.0594  0.0936
36077DOPC   PO443943  20.831   1.679  18.044 -0.5400  0.2390 -0.1569
36077DOPC   GL143944  21.183   1.584  18.384  0.0440  0.4131 -0.0197
36077DOPC   GL243945  21.048   1.791  18.583 -0.2607 -0.0581 -0.1394
36077DOPC   C1A43946  21.623   1.593  18.529  0.0244  0.4836  0.2446
36077DOPC   D2A43947  22.026   1.579  18.788  0.0970  0.6567 -0.1681
36077DOPC   C3A43948  22.146   1.227  19.089 -0.2503 -0.2889  0.0810
36077DOPC   C4A43949  22.291   0.816  19.314 -0.2650  0.2874  0.1223
36077DOPC   C1B43950  21.433   2.017  18.435 -0.0007  0.2337  0.3154
36077DOPC   D2B43951  21.914   1.983  18.348  0.0836 -0.0267  0.0102
36077DOPC   C3B43952  22.086   2.158  18.705 -0.0826 -0.2513 -0.3536
36077DOPC   C4B43953  22.084   2.118  19.168  0.0269 -0.3280 -0.3507
36078DOPC   NC343954  24.118   7.171  14.314 -0.3703 -0.0061 -0.1640
36078DOPC   PO443955  24.511   7.073  14.202 -0.0761  0.0758 -0.1396
36078DOPC   GL143956  24.881   7.286  14.337 -0.1995 -0.0599  0.1373
36078DOPC   GL243957  24.856   7.181  14.649 -0.4912  0.2045  0.0431
36078DOPC   C1A43958  25.263   7.498  14.328  0.0880 -0.3321 -0.1014
36078DOPC   D2A43959  25.713   7.620  14.458  0.1681 -0.1019  0.0446
36078DOPC   C3A43960  26.060   7.862  14.635  0.1688 -0.2102  0.0911
36078DOPC   C4A43961  26.352   7.552  14.857  0.0252 -0.0403 -0.1402
36078DOPC   C1B43962  25.268   7.055  14.639 -0.1611 -0.2013  0.1144
36078DOPC   D2B43963  25.736   7.101  14.542 -0.0833  0.0404  0.1345
36078DOPC   C3B43964  25.853   6.982  14.890 -0.1519  0.0223  0.0354
36078DOPC   C4B43965  25.958   6.857  15.380  0.1186 -0.1342 -0.0416
36079DOPC   NC343966  24.143   0.246  13.804 -0.0027  0.2817 -0.0523
36079DOPC   PO443967  24.476   0.312  14.078  0.0977  0.2246  0.4204
36079DOPC   GL143968  24.744   0.533  14.358 -0.3227  0.0900  0.2865
36079DOPC   GL243969  24.668   0.290  14.554 -0.1982  0.0466 -0.0687
36079DOPC   C1A43970  25.138   0.596  14.435  0.0206 -0.0769 -0.2512
36079DOPC   D2A43971  25.601   0.594  14.632  0.2279  0.0479  0.0496
36079DOPC   C3A43972  25.979   0.443  14.826 -0.0622  0.0474  0.0494
36079DOPC   C4A43973  26.380   0.254  14.997 -0.3566 -0.0123 -0.3225
36079DOPC   C1B43974  24.954   0.126  14.873  0.2226  0.1182 -0.0850
36079DOPC   D2B43975  25.192  -0.070  15.288 -0.0738  0.2142  0.0181
36079DOPC   C3B43976  25.545   0.069  15.533  0.0686 -0.3042 -0.2924
36079DOPC   C4B43977  25.624   0.459  15.756  0.1266  0.1488 -0.0946
36080DOPC   NC343978   2.548   5.154  11.817 -0.0633  0.1028  0.3452
36080DOPC   PO443979   2.920   5.025  11.649  0.2204  0.1412  0.1298
36080DOPC   GL143980   3.119   4.918  11.988  0.0740 -0.2893  0.1779
36080DOPC   GL243981   2.908   5.118  12.123  0.0352 -0.3427 -0.0828
36080DOPC   C1A43982   3.412   4.582  12.066 -0.1711 -0.1845  0.0471
36080DOPC   D2A43983   3.770   4.321  12.241 -0.1622  0.0513 -0.1530
36080DOPC   C3A43984   3.790   3.953  12.543 -0.4126  0.0072 -0.1880
36080DOPC   C4A43985   4.125   3.863  12.849 -0.1782  0.0917  0.1606
36080DOPC   C1B43986   2.841   5.533  12.078  0.1319  0.0976  0.0702
36080DOPC   D2B43987   2.885   6.011  12.099 -0.2497 -0.0995 -0.0380
36080DOPC   C3B43988   3.262   6.066  12.349 -0.3446  0.1521 -0.2996
36080DOPC   C4B43989   3.595   6.147  12.722 -0.0142  0.1009  0.0286
36081DOPC   NC343990  21.253   4.334  16.964 -0.0830  0.1929  0.1423
36081DOPC   PO443991  21.314   4.055  17.217  0.1297  0.1152  0.1901
36081DOPC   GL143992  21.528   4.122  17.564 -0.2456  0.4939  0.0049
36081DOPC   GL243993  21.538   4.379  17.591  0.2548  0.1125 -0.1097
36081DOPC   C1A43994  21.670   4.042  17.964 -0.3219 -0.0550 -0.0481
36081DOPC   D2A43995  21.965   4.008  18.353  0.3684  0.3396  0.0483
36081DOPC   C3A43996  22.414   3.949  18.505 -0.0334 -0.2088 -0.0863
36081DOPC   C4A43997  22.938   3.797  18.660  0.1045  0.0019  0.2154
36081DOPC   C1B43998  21.923   4.625  17.580  0.1117 -0.0097 -0.1589
36081DOPC   D2B43999  22.301   4.737  17.797  0.0406 -0.0366  0.1149
36081DOPC   C3B44000  22.416   4.553  18.237 -0.1948 -0.2958  0.3394
36081DOPC   C4B44001  22.885   4.545  18.547 -0.0054 -0.2427 -0.3103
36082DOPC   NC344002  17.409   3.329  18.054  0.0674 -0.2430 -0.1313
36082DOPC   PO444003  17.698   3.067  17.965 -0.1294  0.0111  0.0211
36082DOPC   GL144004  17.610   2.853  18.346  0.1012 -0.1936 -0.1379
36082DOPC   GL244005  17.567   3.121  18.452 -0.0688  0.0683 -0.3553
36082DOPC   C1A44006  17.287   2.586  18.422 -0.0468  0.1927 -0.2985
36082DOPC   D2A44007  17.098   2.465  18.914 -0.1896 -0.1380 -0.0965
36082DOPC   C3A44008  16.775   2.292  19.253 -0.0283 -0.2596 -0.0676
36082DOPC   C4A44009  16.524   1.940  19.424 -0.2411  0.1692  0.1416
36082DOPC   C1B44010  17.270   2.936  18.762 -0.0472  0.0546  0.0076
36082DOPC   D2B44011  16.908   2.901  19.160  0.2931 -0.1242 -0.0004
36082DOPC   C3B44012  17.236   3.065  19.514  0.1738 -0.1950  0.0003
36082DOPC   C4B44013  17.523   3.161  19.931  0.0025 -0.0657 -0.1443
36083DOPC   NC344014   4.673   3.578  10.275 -0.1379 -0.3488  0.0567
36083DOPC   PO444015   4.822   3.810  10.564 -0.0588  0.1835 -0.1149
36083DOPC   GL144016   4.782   3.549  10.889 -0.0320 -0.3414 -0.0945
36083DOPC   GL244017   4.741   3.702  11.029 -0.0139  0.2979  0.0842
36083DOPC   C1A44018   4.837   3.272  11.259 -0.0636  0.0061 -0.4415
36083DOPC   D2A44019   4.744   2.975  11.667  0.1557  0.2517 -0.1034
36083DOPC   C3A44020   4.862   2.693  12.010 -0.2475 -0.1036  0.0840
36083DOPC   C4A44021   4.965   2.364  12.279 -0.0345 -0.2612  0.0574
36083DOPC   C1B44022   4.901   3.843  11.437  0.2071  0.1551 -0.1961
36083DOPC   D2B44023   5.064   3.822  11.856 -0.2530 -0.4333  0.0824
36083DOPC   C3B44024   5.057   3.936  12.343  0.0913 -0.2946 -0.0057
36083DOPC   C4B44025   4.868   4.384  12.568  0.0018 -0.1282  0.0851
36084DOPC   NC344026   5.081   6.082  10.756 -0.4681 -0.1100 -0.1022
36084DOPC   PO444027   4.973   6.435  10.642 -0.2387  0.1439 -0.2286
36084DOPC   GL144028   5.297   6.552  10.964 -0.3685 -0.1366  0.1825
36084DOPC   GL244029   5.134   6.752  11.058 -0.2654  0.0079 -0.1982
36084DOPC   C1A44030   5.709   6.711  10.873 -0.1305 -0.1021  0.1157
36084DOPC   D2A44031   6.064   6.746  11.209 -0.2460  0.1369 -0.0932
36084DOPC   C3A44032   6.022   6.804  11.718 -0.2338  0.0485  0.1050
36084DOPC   C4A44033   6.007   6.804  12.243 -0.1877 -0.2453  0.0046
36084DOPC   C1B44034   5.112   6.979  11.372  0.0124  0.3958  0.2212
36084DOPC   D2B44035   5.313   7.375  11.542 -0.1037 -0.1321  0.0109
36084DOPC   C3B44036   5.489   7.543  11.910 -0.1493 -0.1957 -0.2206
36084DOPC   C4B44037   5.731   7.729  12.298 -0.1776  0.1027 -0.0440
36085DOPC   NC344038  18.963   4.643  18.482 -0.0667 -0.0822 -0.1498
36085DOPC   PO444039  18.565   4.703  18.517  0.2397 -0.3032 -0.0394
36085DOPC   GL144040  18.386   4.675  18.806  0.0631 -0.4463  0.0718
36085DOPC   GL244041  18.310   4.407  18.873  0.0453  0.1545  0.0326
36085DOPC   C1A44042  18.394   4.861  19.209  0.0670  0.2118  0.1136
36085DOPC   D2A44043  18.061   4.792  19.542  0.0263 -0.0326  0.4125
36085DOPC   C3A44044  17.984   5.138  19.897  0.2683  0.0536 -0.0911
36085DOPC   C4A44045  17.735   5.552  20.074 -0.1088  0.0798  0.3719
36085DOPC   C1B44046  18.047   4.387  19.228 -0.1710  0.0475 -0.2366
36085DOPC   D2B44047  18.044   4.330  19.723 -0.0893 -0.1874 -0.1040
36085DOPC   C3B44048  17.759   4.407  20.022 -0.0739  0.0041 -0.1229
36085DOPC   C4B44049  17.275   4.437  19.975  0.4118  0.0279 -0.3787
36086DOPC   NC344050   0.452   2.712  12.688 -0.1834  0.0501 -0.0174
36086DOPC   PO444051   0.856   2.597  12.579 -0.1295 -0.2172  0.1909
36086DOPC   GL144052   1.067   2.639  12.980 -0.2346 -0.2440  0.0055
36086DOPC   GL244053   1.313   2.536  12.892 -0.4133  0.3177 -0.3162
36086DOPC   C1A44054   1.090   2.609  13.429 -0.1162  0.0357 -0.0981
36086DOPC   D2A44055   1.201   2.428  13.887  0.1333 -0.2305 -0.1479
36086DOPC   C3A44056   1.418   2.587  14.201  0.1946 -0.0471 -0.2694
36086DOPC   C4A44057   1.742   2.720  14.515  0.2931 -0.0520 -0.0702
36086DOPC   C1B44058   1.526   2.405  13.254  0.0192 -0.0108  0.2513
36086DOPC   D2B44059   1.694   2.223  13.734  0.1145 -0.4357  0.0943
36086DOPC   C3B44060   1.691   2.137  14.258  0.0876  0.1911 -0.3513
36086DOPC   C4B44061   1.752   2.007  14.753  0.2726 -0.1571  0.1368
36087DOPC   NC344062  24.552   6.075  14.700 -0.1991  0.0619  0.1498
36087DOPC   PO444063  24.292   6.366  14.808  0.0146 -0.2527  0.2369
36087DOPC   GL144064  24.477   6.613  15.109 -0.1351 -0.0413 -0.2560
36087DOPC   GL244065  24.720   6.617  14.855 -0.1472 -0.3249  0.0849
36087DOPC   C1A44066  24.604   6.547  15.536  0.1026 -0.0222 -0.0912
36087DOPC   D2A44067  24.576   6.804  15.943 -0.0075 -0.0612 -0.0872
36087DOPC   C3A44068  24.925   6.935  16.165  0.1377 -0.1783  0.3147
36087DOPC   C4A44069  25.386   7.190  16.228 -0.3406 -0.2109  0.0516
36087DOPC   C1B44070  25.057   6.341  14.699 -0.1035 -0.0512  0.4241
36087DOPC   D2B44071  25.424   6.150  14.995  0.1154  0.2100  0.0893
36087DOPC   C3B44072  25.748   5.823  14.815  0.1013  0.0817 -0.0406
36087DOPC   C4B44073  26.092   5.463  14.780  0.0899  0.0061 -0.1580
36088DOPC   NC344074   0.608   7.634  12.910  0.0282 -0.1076 -0.3175
36088DOPC   PO444075   0.760   7.394  12.606 -0.0099 -0.1333 -0.3126
36088DOPC   GL144076   1.044   7.613  12.868  0.0237  0.0039 -0.1884
36088DOPC   GL244077   0.998   7.489  13.072  0.0960 -0.2713  0.0819
36088DOPC   C1A44078   1.366   7.886  12.879  0.2725  0.0731  0.1062
36088DOPC   D2A44079   1.514   8.403  12.933 -0.0550  0.0615  0.1733
36088DOPC   C3A44080   1.921   8.588  13.031 -0.0154  0.1921 -0.2285
36088DOPC   C4A44081   2.249   8.735  13.355 -0.1782  0.0759 -0.0517
36088DOPC   C1B44082   1.407   7.387  13.240  0.0704  0.2344  0.1295
36088DOPC   D2B44083   1.769   7.243  13.512  0.0315 -0.1984 -0.0984
36088DOPC   C3B44084   2.094   7.397  13.830 -0.0451 -0.0024  0.0772
36088DOPC   C4B44085   2.562   7.526  14.070  0.0073  0.0401  0.1282
36089DOPC   NC344086  15.669   5.841  16.905  0.0710  0.1512 -0.1350
36089DOPC   PO444087  16.050   5.830  17.063 -0.0329  0.1034 -0.1389
36089DOPC   GL144088  15.976   5.797  17.429 -0.0182 -0.4082  0.3157
36089DOPC   GL244089  16.044   5.495  17.514  0.1131 -0.0904  0.2022
36089DOPC   C1A44090  15.605   6.028  17.607  0.1533 -0.0956 -0.0530
36089DOPC   D2A44091  15.262   6.294  17.789  0.0421  0.0880 -0.0581
36089DOPC   C3A44092  14.900   6.564  17.720  0.0347 -0.0048  0.0370
36089DOPC   C4A44093  14.442   6.787  17.592  0.1705  0.1779  0.0113
36089DOPC   C1B44094  15.781   5.273  17.776 -0.0783  0.0262  0.0018
36089DOPC   D2B44095  15.557   5.272  18.229 -0.2642 -0.0597 -0.0797
36089DOPC   C3B44096  15.178   5.313  18.518  0.1912 -0.1991 -0.1495
36089DOPC   C4B44097  14.662   5.406  18.497  0.3423  0.0058  0.0920
36090DOPC   NC344098  14.485   4.668  14.797  0.0548 -0.0087  0.1011
36090DOPC   PO444099  14.117   4.840  14.598 -0.2424  0.0372 -0.0868
36090DOPC   GL144100  13.910   4.752  14.957 -0.0616 -0.2715 -0.4038
36090DOPC   GL244101  13.867   4.493  14.881  0.1335 -0.3006 -0.4331
36090DOPC   C1A44102  13.552   4.960  15.196  0.1179 -0.3113  0.2036
36090DOPC   D2A44103  13.070   5.169  15.239  0.1508  0.1714 -0.3192
36090DOPC   C3A44104  12.695   4.895  15.284  0.0797  0.0714 -0.1113
36090DOPC   C4A44105  12.194   4.856  15.337  0.2087 -0.1035 -0.1069
36090DOPC   C1B44106  13.536   4.318  15.163 -0.1807  0.1807  0.2583
36090DOPC   D2B44107  13.320   4.168  15.566 -0.1126 -0.1236 -0.0676
36090DOPC   C3B44108  13.151   4.367  15.985 -0.2649 -0.0677 -0.1165
36090DOPC   C4B44109  12.885   4.518  16.354  0.2069  0.1348  0.1165
36091DOPC   NC344110  22.686   5.532  15.813  0.4135 -0.3198  0.1881
36091DOPC   PO444111  22.476   5.466  16.145 -0.2053 -0.1202 -0.0868
36091DOPC   GL144112  22.682   5.392  16.515  0.2752  0.2337  0.7258
36091DOPC   GL244113  22.748   5.652  16.472 -0.1918 -0.3398 -0.1722
36091DOPC   C1A44114  22.809   5.459  16.979 -0.0825  0.1271 -0.0863
36091DOPC   D2A44115  23.118   5.191  17.257  0.2177  0.1428  0.1399
36091DOPC   C3A44116  23.347   5.175  17.663  0.0800 -0.2630  0.0145
36091DOPC   C4A44117  23.519   5.186  18.143  0.1058  0.1971  0.2661
36091DOPC   C1B44118  23.101   5.775  16.626  0.0935  0.1285  0.2858
36091DOPC   D2B44119  23.487   5.556  16.924 -0.0484 -0.1152  0.1419
36091DOPC   C3B44120  23.494   5.552  17.393 -0.2643 -0.1587 -0.0760
36091DOPC   C4B44121  23.826   5.592  17.796 -0.1195  0.1878  0.0587
36092DOPC   NC344122  12.827   6.800  12.321  0.0083  0.0330 -0.0802
36092DOPC   PO444123  12.495   6.590  12.370 -0.1902  0.0110  0.3658
36092DOPC   GL144124  12.165   6.591  12.603  0.4500  0.1639  0.0988
36092DOPC   GL244125  12.001   6.420  12.435  0.3258 -0.4592 -0.3269
36092DOPC   C1A44126  11.828   6.714  12.837  0.1002 -0.0740 -0.2221
36092DOPC   D2A44127  11.469   6.754  13.229  0.0281  0.2083 -0.0697
36092DOPC   C3A44128  11.369   6.742  13.692  0.2775 -0.1304  0.2722
36092DOPC   C4A44129  11.165   6.538  14.065 -0.0492 -0.0624  0.1029
36092DOPC   C1B44130  11.648   6.369  12.580  0.1635 -0.1254  0.0549
36092DOPC   D2B44131  11.178   6.398  12.645 -0.0850  0.3581 -0.0327
36092DOPC   C3B44132  11.035   6.353  13.055  0.1959  0.1180 -0.1678
36092DOPC   C4B44133  10.936   6.532  13.531  0.0948  0.0428  0.0075
36093DOPC   NC344134  17.532   0.556  18.120 -0.4418 -0.0039  0.3378
36093DOPC   PO444135  17.891   0.596  18.308  0.0069  0.2196  0.0307
36093DOPC   GL144136  17.935   0.658  18.764 -0.1733 -0.1717 -0.2121
36093DOPC   GL244137  18.131   0.480  18.784  0.2458 -0.0773  0.5335
36093DOPC   C1A44138  17.606   0.701  19.058 -0.0801 -0.0224 -0.1788
36093DOPC   D2A44139  17.313   0.775  19.483  0.3336 -0.0970  0.0309
36093DOPC   C3A44140  16.791   0.827  19.444 -0.1841  0.0245  0.1087
36093DOPC   C4A44141  16.283   0.696  19.391  0.0129  0.0019  0.3029
36093DOPC   C1B44142  18.313   0.480  19.132 -0.0726  0.0650  0.1001
36093DOPC   D2B44143  18.489   0.497  19.574  0.0224 -0.2845 -0.1135
36093DOPC   C3B44144  18.515   0.691  19.994  0.2805 -0.0344 -0.1396
36093DOPC   C4B44145  18.240   1.091  20.054 -0.1369  0.1685  0.0688
36094DOPC   NC344146  16.087   5.943  16.574  0.1514 -0.0973 -0.0690
36094DOPC   PO444147  15.823   5.812  16.309 -0.1219  0.3080  0.3655
36094DOPC   GL144148  15.447   5.774  16.374 -0.2192  0.1320 -0.1996
36094DOPC   GL244149  15.432   5.488  16.515 -0.0290 -0.0345 -0.1808
36094DOPC   C1A44150  15.117   5.915  16.614 -0.2594  0.1340  0.0509
36094DOPC   D2A44151  14.694   6.057  16.946 -0.0853 -0.0547  0.1017
36094DOPC   C3A44152  14.264   5.898  17.138  0.3981 -0.1886 -0.3025
36094DOPC   C4A44153  13.812   5.903  17.270  0.1566  0.1009  0.0792
36094DOPC   C1B44154  15.214   5.528  16.953 -0.0069  0.2584 -0.0796
36094DOPC   D2B44155  14.811   5.637  17.230  0.1465 -0.0415 -0.1551
36094DOPC   C3B44156  14.541   5.679  17.572 -0.2124  0.1043 -0.1049
36094DOPC   C4B44157  14.576   5.575  18.029 -0.1202  0.3876 -0.2585
36095DOPC   NC344158   6.220   2.957   9.938 -0.1952  0.1310 -0.2344
36095DOPC   PO444159   6.596   3.080  10.087  0.2447  0.0527  0.1102
36095DOPC   GL144160   6.504   3.360  10.487 -0.1137 -0.5253 -0.2896
36095DOPC   GL244161   6.756   3.305  10.563 -0.1229 -0.3064 -0.3515
36095DOPC   C1A44162   6.197   3.556  10.811  0.0615 -0.0528  0.0576
36095DOPC   D2A44163   5.968   3.506  11.317  0.0785 -0.0158  0.0360
36095DOPC   C3A44164   5.995   3.536  11.767 -0.0431 -0.2184  0.1121
36095DOPC   C4A44165   6.038   3.726  12.259 -0.3752  0.1553 -0.0515
36095DOPC   C1B44166   6.774   3.239  10.982  0.3152 -0.0896 -0.0789
36095DOPC   D2B44167   6.950   3.467  11.384  0.1981 -0.0372 -0.1178
36095DOPC   C3B44168   7.226   3.200  11.616 -0.0927  0.1130 -0.1248
36095DOPC   C4B44169   7.557   3.064  11.911  0.2207  0.1048  0.0816
36096DOPC   NC344170  19.844   6.623  18.187  0.0179 -0.2007 -0.3071
36096DOPC   PO444171  19.847   6.682  18.621 -0.0349  0.0632 -0.4856
36096DOPC   GL144172  20.217   6.622  18.855  0.1110  0.2055  0.1854
36096DOPC   GL244173  19.965   6.656  19.041 -0.4051  0.0135  0.0912
36096DOPC   C1A44174  20.613   6.737  19.021 -0.0380  0.1359 -0.1110
36096DOPC   D2A44175  21.067   6.670  19.204  0.0693 -0.0141  0.0746
36096DOPC   C3A44176  21.488   6.996  19.137 -0.3650  0.4600  0.2461
36096DOPC   C4A44177  21.794   7.294  19.263 -0.1473 -0.0117  0.2521
36096DOPC   C1B44178  19.734   6.339  19.188  0.0398  0.1544 -0.1305
36096DOPC   D2B44179  19.331   6.184  19.258  0.3268  0.2753  0.3542
36096DOPC   C3B44180  19.013   6.289  19.575  0.1672 -0.0859  0.0414
36096DOPC   C4B44181  18.880   6.401  19.992  0.1970  0.0072  0.2610
36097DOPC   NC344182  17.231   5.370  18.716  0.0294  0.2924 -0.0948
36097DOPC   PO444183  17.627   5.447  18.642  0.1266 -0.1934  0.2249
36097DOPC   GL144184  17.678   5.441  19.059  0.1100  0.0006 -0.2205
36097DOPC   GL244185  17.450   5.331  19.145  0.3500 -0.1646 -0.1050
36097DOPC   C1A44186  18.103   5.310  19.335 -0.1262 -0.0955  0.3582
36097DOPC   D2A44187  18.464   5.116  19.708  0.2552 -0.3750  0.0148
36097DOPC   C3A44188  18.515   5.090  20.136  0.0637  0.3494 -0.1704
36097DOPC   C4A44189  18.409   4.820  20.559  0.1320 -0.1436 -0.0949
36097DOPC   C1B44190  16.972   5.409  19.139  0.0924  0.1336 -0.3793
36097DOPC   D2B44191  16.534   5.535  19.175  0.0497  0.0027  0.2131
36097DOPC   C3B44192  16.074   5.446  19.250 -0.0418  0.1027  0.1612
36097DOPC   C4B44193  15.670   5.159  19.289  0.2506  0.1560 -0.0478
36098DOPC   NC344194   1.849   5.118  12.581 -0.1173 -0.3023 -0.0028
36098DOPC   PO444195   1.643   5.445  12.660 -0.0137 -0.3647 -0.0177
36098DOPC   GL144196   1.699   5.745  12.987  0.2397 -0.4929  0.0559
36098DOPC   GL244197   1.849   5.512  13.096 -0.1073  0.3014 -0.2325
36098DOPC   C1A44198   1.936   6.074  13.156 -0.0195 -0.0441  0.1417
36098DOPC   D2A44199   2.149   6.155  13.603 -0.0905  0.1380 -0.1166
36098DOPC   C3A44200   2.405   6.530  13.421 -0.1248  0.0682 -0.0347
36098DOPC   C4A44201   2.605   6.969  13.350 -0.2799 -0.1769 -0.1135
36098DOPC   C1B44202   2.264   5.692  13.280  0.0304 -0.0089 -0.0531
36098DOPC   D2B44203   2.673   5.395  13.457 -0.1628 -0.1099 -0.0500
36098DOPC   C3B44204   2.944   5.623  13.830 -0.0254  0.0968 -0.0312
36098DOPC   C4B44205   3.254   5.571  14.208 -0.0687 -0.0370  0.2643
36099DOPC   NC344206   1.969   4.734  12.228  0.0494 -0.0095  0.0742
36099DOPC   PO444207   2.143   5.092  12.107  0.3708  0.1143  0.2483
36099DOPC   GL144208   2.367   5.144  12.442 -0.0696  0.0735 -0.0008
36099DOPC   GL244209   2.288   4.894  12.592  0.2749  0.1045  0.2254
36099DOPC   C1A44210   2.678   5.375  12.501 -0.0793  0.2043  0.1946
36099DOPC   D2A44211   3.041   5.668  12.635  0.1843  0.2007  0.0143
36099DOPC   C3A44212   3.428   5.688  12.906 -0.1891 -0.3340 -0.1467
36099DOPC   C4A44213   3.914   5.735  13.044  0.4987  0.0518  0.1383
36099DOPC   C1B44214   2.460   4.745  12.967 -0.2344  0.2476  0.1203
36099DOPC   D2B44215   2.768   4.898  13.287 -0.0645 -0.2573  0.2744
36099DOPC   C3B44216   3.070   4.776  13.624  0.1309  0.0623  0.1114
36099DOPC   C4B44217   3.438   4.698  13.921 -0.0447 -0.0725 -0.0133
36100DOPC   NC344218  22.573   1.160  16.449  0.0883 -0.1119  0.0680
36100DOPC   PO444219  22.899   1.133  16.238 -0.0355  0.1423  0.1492
36100DOPC   GL144220  23.223   1.212  16.494  0.1380  0.2031 -0.0863
36100DOPC   GL244221  23.300   0.915  16.334 -0.0948  0.3038 -0.0513
36100DOPC   C1A44222  23.358   1.469  16.855  0.1009  0.0219 -0.0989
36100DOPC   D2A44223  23.475   1.640  17.320  0.0149 -0.1858 -0.1080
36100DOPC   C3A44224  23.619   1.347  17.722 -0.0699  0.1195 -0.2730
36100DOPC   C4A44225  23.542   1.076  18.119  0.2377 -0.1630  0.0527
36100DOPC   C1B44226  23.707   0.900  16.271 -0.1380 -0.2209 -0.0486
36100DOPC   D2B44227  24.157   0.675  16.136 -0.0425 -0.4307 -0.0307
36100DOPC   C3B44228  24.436   0.986  15.877  0.0948 -0.0435  0.0271
36100DOPC   C4B44229  24.640   1.263  15.518 -0.2729 -0.2347  0.0866
36101DOPC   NC344230  11.780   5.518  12.133  0.1583 -0.0141  0.0855
36101DOPC   PO444231  11.857   5.886  12.045 -0.2475 -0.1989  0.0410
36101DOPC   GL144232  11.592   6.012  12.324 -0.4151  0.1686 -0.1193
36101DOPC   GL244233  11.378   6.023  12.131 -0.0842  0.2614  0.1770
36101DOPC   C1A44234  11.401   5.850  12.766 -0.2246  0.0075  0.2758
36101DOPC   D2A44235  11.088   5.911  13.193  0.2703  0.0100  0.0903
36101DOPC   C3A44236  10.686   6.039  13.364 -0.1532  0.3108 -0.2454
36101DOPC   C4A44237  10.434   6.048  13.738 -0.2525 -0.0047 -0.0789
36101DOPC   C1B44238  11.074   5.912  12.400  0.1491  0.0743 -0.1019
36101DOPC   D2B44239  10.632   5.759  12.402 -0.0593  0.0572  0.4721
36101DOPC   C3B44240  10.326   5.444  12.644 -0.2916 -0.0975 -0.0050
36101DOPC   C4B44241  10.180   5.110  12.993 -0.0453 -0.2121  0.1584
36102DOPC   NC344242  20.228   7.303  17.454 -0.2966 -0.2423 -0.1977
36102DOPC   PO444243  20.544   7.524  17.554 -0.2039  0.1493 -0.1273
36102DOPC   GL144244  20.778   7.518  17.891  0.1694  0.2455 -0.2254
36102DOPC   GL244245  20.957   7.218  17.820  0.0921 -0.5742  0.0299
36102DOPC   C1A44246  21.000   7.662  18.258 -0.0302 -0.3272 -0.0597
36102DOPC   D2A44247  21.139   8.019  18.553 -0.2147  0.0412  0.0628
36102DOPC   C3A44248  21.550   8.089  18.679 -0.1025  0.3967  0.3128
36102DOPC   C4A44249  21.822   8.474  18.543  0.0037  0.0503  0.0659
36102DOPC   C1B44250  21.273   7.279  18.021  0.2536  0.0751  0.0567
36102DOPC   D2B44251  21.533   7.527  18.245  0.1601 -0.2218 -0.3136
36102DOPC   C3B44252  21.705   7.468  18.691 -0.2518  0.0134 -0.0100
36102DOPC   C4B44253  21.820   7.800  19.025  0.0043 -0.4409  0.0789
36103DOPC   NC344254  11.404   2.080  11.010  0.1552  0.0829  0.0237
36103DOPC   PO444255  11.644   2.150  11.348  0.2412 -0.0605 -0.2367
36103DOPC   GL144256  11.531   2.127  11.743 -0.1126  0.0067  0.0645
36103DOPC   GL244257  11.547   1.871  11.857  0.4622 -0.0624  0.0403
36103DOPC   C1A44258  11.185   2.288  11.932 -0.0235 -0.0677 -0.2074
36103DOPC   D2A44259  10.846   2.636  11.958 -0.3253 -0.1884 -0.0595
36103DOPC   C3A44260  10.494   2.862  12.191 -0.0492 -0.2125 -0.1018
36103DOPC   C4A44261  10.454   2.810  12.691 -0.3839  0.1172  0.0230
36103DOPC   C1B44262  11.430   1.934  12.268 -0.1281  0.1420 -0.0542
36103DOPC   D2B44263  11.127   2.012  12.656 -0.4351 -0.1142 -0.0559
36103DOPC   C3B44264  10.847   2.248  12.887  0.1313 -0.4013 -0.2515
36103DOPC   C4B44265  10.389   2.482  13.023 -0.0184  0.0778 -0.0479
36104DOPC   NC344266  17.050   0.649  18.245 -0.2111 -0.0434  0.1923
36104DOPC   PO444267  17.022   0.813  17.891 -0.0253 -0.2541 -0.0721
36104DOPC   GL144268  16.685   1.073  18.000  0.0878 -0.0949 -0.2065
36104DOPC   GL244269  16.774   1.088  18.282  0.1774 -0.0135  0.0597
36104DOPC   C1A44270  16.289   0.842  17.988  0.1015 -0.0736  0.1829
36104DOPC   D2A44271  15.764   0.622  17.949  0.2504 -0.1980  0.1491
36104DOPC   C3A44272  15.338   0.733  18.031  0.1138 -0.0913 -0.0980
36104DOPC   C4A44273  14.953   0.602  17.793  0.2617  0.0865  0.2185
36104DOPC   C1B44274  16.418   0.999  18.493 -0.1676  0.2135  0.2897
36104DOPC   D2B44275  15.908   0.894  18.514 -0.0892  0.0175 -0.1706
36104DOPC   C3B44276  15.535   1.059  18.762  0.1612  0.0678 -0.1326
36104DOPC   C4B44277  15.277   1.166  19.134  0.1540 -0.5608  0.2222
36105DOPC   NC344278   4.469   5.753  10.966  0.1516 -0.0172  0.2243
36105DOPC   PO444279   4.813   5.672  10.790 -0.0240 -0.2344  0.1233
36105DOPC   GL144280   5.092   5.568  11.022 -0.1816  0.1676  0.1793
36105DOPC   GL244281   4.972   5.817  11.164  0.3076 -0.0134  0.2566
36105DOPC   C1A44282   5.072   5.167  11.165 -0.1364  0.2060  0.2510
36105DOPC   D2A44283   5.145   4.645  11.285 -0.1177 -0.0353 -0.0661
36105DOPC   C3A44284   5.248   4.256  11.516  0.1023  0.0311  0.4133
36105DOPC   C4A44285   5.382   3.792  11.462  0.0296 -0.0174 -0.0666
36105DOPC   C1B44286   5.283   6.144  11.206  0.1451 -0.0596 -0.0621
36105DOPC   D2B44287   5.500   6.581  11.385  0.1039 -0.1456 -0.2635
36105DOPC   C3B44288   5.280   6.653  11.876  0.0331  0.2723 -0.1473
36105DOPC   C4B44289   5.182   6.867  12.316 -0.2792  0.0629  0.1242
36106DOPC   NC344290   1.942   2.637  12.085  0.1616 -0.2814 -0.3020
36106DOPC   PO444291   1.710   2.968  12.171 -0.0372  0.1631  0.3856
36106DOPC   GL144292   1.663   2.898  12.564  0.0972  0.2553 -0.0029
36106DOPC   GL244293   1.642   3.143  12.678 -0.0211  0.0661 -0.4590
36106DOPC   C1A44294   1.914   2.697  12.912 -0.1014 -0.2473  0.0778
36106DOPC   D2A44295   2.342   2.557  13.019 -0.1398  0.1024  0.1936
36106DOPC   C3A44296   2.561   2.582  13.443 -0.1179  0.0775 -0.3599
36106DOPC   C4A44297   2.692   2.725  13.888 -0.0672 -0.1475  0.0630
36106DOPC   C1B44298   1.977   3.337  12.932 -0.2091 -0.0202 -0.0852
36106DOPC   D2B44299   2.483   3.480  12.936 -0.0716 -0.2042  0.1621
36106DOPC   C3B44300   2.648   3.556  13.364  0.0377 -0.0335 -0.2296
36106DOPC   C4B44301   2.709   3.938  13.680  0.1609 -0.2440 -0.1825
36107DOPC   NC344302   2.316   3.298  11.493 -0.1594 -0.0375 -0.0689
36107DOPC   PO444303   2.155   3.244  11.882 -0.2634  0.1841 -0.2472
36107DOPC   GL144304   2.242   3.010  12.251 -0.1274  0.4739 -0.2044
36107DOPC   GL244305   2.385   2.811  12.042  0.2417 -0.1570 -0.1988
36107DOPC   C1A44306   2.274   3.005  12.686 -0.3039  0.1567  0.0447
36107DOPC   D2A44307   2.284   3.040  13.187  0.0826 -0.0289 -0.1831
36107DOPC   C3A44308   2.237   3.361  13.526 -0.0811 -0.0996  0.2301
36107DOPC   C4A44309   2.315   3.478  13.991  0.1681  0.1068 -0.2476
36107DOPC   C1B44310   2.452   2.456  11.947 -0.0939  0.2178  0.0065
36107DOPC   D2B44311   2.373   2.015  12.204 -0.0041 -0.1864  0.0442
36107DOPC   C3B44312   2.823   1.876  12.334 -0.0205  0.0773  0.1367
36107DOPC   C4B44313   3.319   1.707  12.303  0.1255 -0.1445  0.0177
36108DOPC   NC344314   3.044   7.055  11.602 -0.0794  0.1145 -0.0759
36108DOPC   PO444315   2.669   7.064  11.431  0.0342  0.1959 -0.0005
36108DOPC   GL144316   2.619   6.860  11.804  0.1653  0.0667  0.3135
36108DOPC   GL244317   2.335   6.825  11.765 -0.3176 -0.3951  0.1149
36108DOPC   C1A44318   2.798   7.120  12.143  0.2170 -0.0466 -0.1853
36108DOPC   D2A44319   2.894   7.422  12.565 -0.0043 -0.1115 -0.0689
36108DOPC   C3A44320   3.302   7.250  12.858 -0.1031  0.0987  0.1363
36108DOPC   C4A44321   3.560   7.372  13.290 -0.1540  0.3038 -0.1726
36108DOPC   C1B44322   2.328   6.613  12.149  0.0332 -0.1192 -0.2645
36108DOPC   D2B44323   2.281   6.336  12.562 -0.1628  0.1169  0.3030
36108DOPC   C3B44324   2.389   6.266  12.984  0.0393 -0.2419 -0.1767
36108DOPC   C4B44325   2.559   6.046  13.384 -0.0179 -0.0317 -0.2812
36109DOPC   NC344326  21.654   6.790  17.329 -0.1801  0.2770  0.0933
36109DOPC   PO444327  21.337   6.644  17.191 -0.1899 -0.1765 -0.1057
36109DOPC   GL144328  21.248   6.303  17.343 -0.2679 -0.1167 -0.0093
36109DOPC   GL244329  21.557   6.149  17.316 -0.3895 -0.2227 -0.2179
36109DOPC   C1A44330  21.397   6.366  17.742  0.1958  0.0517  0.4227
36109DOPC   D2A44331  21.510   6.544  18.168  0.0720  0.0946 -0.2420
36109DOPC   C3A44332  21.888   6.266  18.413 -0.0600  0.0579 -0.0327
36109DOPC   C4A44333  22.125   6.140  18.881  0.1043 -0.4039  0.0939
36109DOPC   C1B44334  21.855   6.115  17.661  0.0423 -0.2754 -0.2910
36109DOPC   D2B44335  22.382   6.309  17.813  0.4702  0.1064 -0.3432
36109DOPC   C3B44336  22.504   6.333  18.260 -0.1340 -0.0835  0.1160
36109DOPC   C4B44337  22.911   6.360  18.503 -0.0643  0.1271  0.4209
36110DOPC   NC344338   4.083   4.189  10.675 -0.0904 -0.0366  0.0501
36110DOPC   PO444339   3.971   4.447  10.997 -0.0060  0.1533 -0.1799
36110DOPC   GL144340   4.110   4.439  11.388 -0.2911  0.5486  0.3393
36110DOPC   GL244341   4.228   4.198  11.517 -0.0854 -0.2719 -0.0801
36110DOPC   C1A44342   4.182   4.844  11.486 -0.1951  0.1300 -0.2919
36110DOPC   D2A44343   4.362   5.061  11.853 -0.0295  0.0579  0.0198
36110DOPC   C3A44344   4.782   5.297  12.026 -0.2213  0.0505 -0.1882
36110DOPC   C4A44345   5.070   5.617  12.272  0.0003  0.0342 -0.3391
36110DOPC   C1B44346   4.268   4.425  11.857  0.0746 -0.0576  0.0101
36110DOPC   D2B44347   4.398   4.703  12.291  0.3144 -0.0611  0.1155
36110DOPC   C3B44348   4.722   4.927  12.636  0.1175 -0.0630  0.3729
36110DOPC   C4B44349   4.790   5.392  12.590 -0.0620 -0.0421 -0.2912
36111DOPC   NC344350   3.936   1.100  10.838 -0.0237 -0.0813 -0.2883
36111DOPC   PO444351   4.232   1.218  10.601 -0.3408 -0.0680  0.0011
36111DOPC   GL144352   4.574   1.389  10.860 -0.0303  0.0444 -0.4139
36111DOPC   GL244353   4.757   1.306  10.647 -0.2716  0.0712  0.1519
36111DOPC   C1A44354   4.671   1.283  11.266 -0.1494 -0.0036  0.0266
36111DOPC   D2A44355   4.551   1.360  11.731  0.0600  0.3341  0.0180
36111DOPC   C3A44356   4.458   1.204  12.154 -0.2564 -0.1192 -0.1605
36111DOPC   C4A44357   4.174   1.224  12.532  0.2231 -0.1782  0.3095
36111DOPC   C1B44358   5.031   1.115  10.932 -0.0663  0.3115 -0.0457
36111DOPC   D2B44359   5.416   0.850  11.172 -0.1642  0.1464  0.2373
36111DOPC   C3B44360   5.657   0.761  11.548  0.1433 -0.2743  0.1885
36111DOPC   C4B44361   5.998   0.673  11.889  0.0132 -0.1095  0.0752
36112DOPC   NC344362  15.705   1.083  16.769 -0.2454 -0.2095  0.1295
36112DOPC   PO444363  15.844   0.717  16.668 -0.0595  0.1970 -0.1053
36112DOPC   GL144364  15.628   0.400  16.759 -0.2388 -0.1691 -0.0521
36112DOPC   GL244365  15.374   0.383  16.548 -0.2629 -0.0663 -0.2996
36112DOPC   C1A44366  15.442   0.251  17.173  0.0947 -0.2783 -0.0583
36112DOPC   D2A44367  15.495  -0.137  17.501 -0.2163 -0.0447 -0.1043
36112DOPC   C3A44368  15.110  -0.413  17.462  0.0692  0.0271  0.2148
36112DOPC   C4A44369  14.686  -0.659  17.547 -0.0343  0.0046 -0.2469
36112DOPC   C1B44370  14.959   0.312  16.732  0.2115  0.0633 -0.1241
36112DOPC   D2B44371  14.484   0.316  16.600 -0.1044 -0.0305 -0.0006
36112DOPC   C3B44372  14.181   0.551  16.846  0.0926  0.1082 -0.1892
36112DOPC   C4B44373  13.893   0.717  17.177  0.2495  0.1882 -0.2265
36113DOPC   NC344374  19.516   0.042  18.876 -0.1652  0.2159 -0.0291
36113DOPC   PO444375  19.744  -0.003  18.589  0.1467 -0.1688 -0.0675
36113DOPC   GL144376  19.997  -0.265  18.861  0.0466  0.4380 -0.3057
36113DOPC   GL244377  19.800  -0.290  19.081  0.0319 -0.6679 -0.2574
36113DOPC   C1A44378  20.278  -0.221  19.190  0.1232 -0.1753  0.1201
36113DOPC   D2A44379  20.491  -0.283  19.644  0.0109 -0.2426 -0.2333
36113DOPC   C3A44380  20.683  -0.723  19.669  0.0376  0.1678  0.0863
36113DOPC   C4A44381  20.837  -1.202  19.710  0.1591 -0.1471 -0.1147
36113DOPC   C1B44382  19.906  -0.382  19.562  0.1302 -0.1411 -0.1459
36113DOPC   D2B44383  20.134  -0.239  19.988  0.1586 -0.0218  0.1719
36113DOPC   C3B44384  20.103  -0.628  20.330  0.1142 -0.0581  0.3859
36113DOPC   C4B44385  20.054  -0.958  20.651  0.2130  0.2799  0.2402
36114DOPC   NC344386   0.587   6.899  12.589  0.2848  0.0273 -0.0673
36114DOPC   PO444387   0.247   6.814  12.781 -0.0479 -0.3160  0.1142
36114DOPC   GL144388   0.537   6.667  13.108 -0.1908 -0.4285  0.1850
36114DOPC   GL244389   0.293   6.742  13.302  0.1148 -0.0614  0.0225
36114DOPC   C1A44390   0.928   6.510  13.264 -0.0789 -0.0875 -0.0086
36114DOPC   D2A44391   1.133   6.179  13.542 -0.1833 -0.1317 -0.2011
36114DOPC   C3A44392   1.100   6.033  13.963  0.0879  0.1071  0.3404
36114DOPC   C4A44393   1.043   5.647  14.295  0.1123 -0.0961  0.0410
36114DOPC   C1B44394   0.499   6.843  13.673  0.0333 -0.0363  0.2195
36114DOPC   D2B44395   0.940   6.730  13.729 -0.1599 -0.1045  0.0148
36114DOPC   C3B44396   1.089   6.978  14.134  0.1417  0.0151 -0.1303
36114DOPC   C4B44397   1.160   7.099  14.590  0.1637  0.0899  0.1230
36115DOPC   NC344398  22.736   6.743  16.031 -0.1749  0.2190 -0.0484
36115DOPC   PO444399  22.693   7.089  16.206  0.1912 -0.2352 -0.2437
36115DOPC   GL144400  23.015   7.172  16.561 -0.2276  0.0437  0.1386
36115DOPC   GL244401  22.840   7.105  16.785 -0.0628  0.0489  0.2300
36115DOPC   C1A44402  23.375   7.322  16.715 -0.0386 -0.0473  0.1933
36115DOPC   D2A44403  23.651   7.567  17.003  0.1193 -0.2291 -0.1310
36115DOPC   C3A44404  23.696   7.529  17.477  0.2208  0.0269  0.0213
36115DOPC   C4A44405  23.635   7.540  17.969  0.1242 -0.0783  0.2901
36115DOPC   C1B44406  23.112   7.126  17.115 -0.0255  0.3544 -0.2301
36115DOPC   D2B44407  23.309   7.195  17.593  0.1624  0.0880  0.1196
36115DOPC   C3B44408  23.328   7.083  18.052  0.2192 -0.0011  0.1263
36115DOPC   C4B44409  23.671   7.070  18.458  0.1228 -0.1111  0.2629
36116DOPC   NC344410  24.261   4.540  13.762  0.0510  0.1443 -0.1697
36116DOPC   PO444411  24.519   4.396  14.042 -0.2148 -0.1683 -0.0026
36116DOPC   GL144412  24.766   4.117  14.293  0.4913 -0.3503  0.0464
36116DOPC   GL244413  24.782   4.313  14.494  0.1042  0.0400  0.1116
36116DOPC   C1A44414  25.177   4.142  14.112  0.1157  0.0083  0.1419
36116DOPC   D2A44415  25.547   3.810  14.019 -0.0024 -0.2571 -0.1170
36116DOPC   C3A44416  25.947   3.650  14.142  0.0190  0.0104 -0.0671
36116DOPC   C4A44417  26.347   3.430  14.274  0.0188  0.0147 -0.0198
36116DOPC   C1B44418  25.152   4.391  14.813  0.2410 -0.0869  0.1642
36116DOPC   D2B44419  25.477   4.524  15.175  0.0657 -0.0827  0.1499
36116DOPC   C3B44420  25.687   4.508  14.817  0.1391 -0.1601 -0.0349
36116DOPC   C4B44421  25.906   4.570  14.371  0.5509  0.1957  0.1431
36117DOPC   NC344422  12.475   0.006  12.076  0.0697 -0.1767 -0.1989
36117DOPC   PO444423  12.111   0.066  12.239 -0.0271  0.1907 -0.1644
36117DOPC   GL144424  12.144   0.074  12.738 -0.0885  0.1546  0.2250
36117DOPC   GL244425  12.015   0.306  12.678  0.0998  0.3321  0.0391
36117DOPC   C1A44426  11.957  -0.129  13.132  0.0939  0.0300  0.1484
36117DOPC   D2A44427  11.668  -0.278  13.549  0.0904 -0.0390 -0.0173
36117DOPC   C3A44428  11.259  -0.093  13.783 -0.2108 -0.3729  0.1825
36117DOPC   C4A44429  10.944   0.290  13.804  0.3104 -0.0428  0.0062
36117DOPC   C1B44430  11.955   0.446  13.102  0.0065  0.3902  0.1004
36117DOPC   D2B44431  11.652   0.222  13.391  0.1753  0.1039  0.1342
36117DOPC   C3B44432  11.195   0.193  13.247  0.3052  0.1934  0.0262
36117DOPC   C4B44433  10.717   0.161  13.028  0.1241  0.0943  0.1853
36118DOPC   NC344434  23.903   2.707  14.424  0.3080 -0.0612 -0.1751
36118DOPC   PO444435  23.633   2.879  14.711 -0.2306  0.2923  0.0631
36118DOPC   GL144436  23.801   3.085  15.087 -0.1509  0.1685 -0.0713
36118DOPC   GL244437  23.932   3.223  14.856  0.2478  0.0640 -0.3638
36118DOPC   C1A44438  23.982   3.132  15.495  0.0240 -0.2342  0.0526
36118DOPC   D2A44439  24.230   3.271  15.918  0.1688  0.0828  0.4214
36118DOPC   C3A44440  24.286   3.285  16.366  0.2045  0.3332 -0.2387
36118DOPC   C4A44441  24.497   3.453  16.830 -0.1999 -0.1621  0.0406
36118DOPC   C1B44442  24.302   3.140  15.080 -0.2563 -0.0884  0.2093
36118DOPC   D2B44443  24.550   3.130  15.551 -0.1862  0.2398  0.0768
36118DOPC   C3B44444  24.762   3.227  15.938 -0.1078 -0.1210  0.0549
36118DOPC   C4B44445  24.844   3.241  16.396 -0.0756 -0.0469  0.1433
36119DOPC   NC344446  22.174   3.449  16.296 -0.2586 -0.2846 -0.1423
36119DOPC   PO444447  22.582   3.438  16.278  0.0468 -0.3942 -0.1455
36119DOPC   GL144448  22.753   3.287  16.616 -0.0480  0.0216  0.0834
36119DOPC   GL244449  22.854   3.091  16.509 -0.1178 -0.0213  0.1523
36119DOPC   C1A44450  23.006   3.511  16.888  0.2751  0.1112  0.1310
36119DOPC   D2A44451  23.136   3.788  17.223  0.2598  0.0534 -0.0868
36119DOPC   C3A44452  23.481   3.740  17.509  0.3644 -0.0580 -0.1619
36119DOPC   C4A44453  23.907   3.829  17.750  0.2106  0.1293 -0.0578
36119DOPC   C1B44454  23.182   2.983  16.751 -0.1411 -0.0289 -0.0913
36119DOPC   D2B44455  23.335   3.077  17.205  0.0160  0.2083 -0.0719
36119DOPC   C3B44456  23.476   2.858  17.653  0.0110  0.0629 -0.0003
36119DOPC   C4B44457  23.587   2.678  18.138  0.0646 -0.1625 -0.4231
36120DOPC   NC344458   6.779   6.404   9.866 -0.1765  0.0449 -0.0693
36120DOPC   PO444459   6.429   6.361  10.031  0.2266  0.0820  0.0646
36120DOPC   GL144460   6.172   6.564  10.296 -0.0152  0.1172  0.2125
36120DOPC   GL244461   6.455   6.483  10.476  0.3035  0.1368  0.1526
36120DOPC   C1A44462   6.067   6.339  10.667  0.0352  0.1793  0.2004
36120DOPC   D2A44463   6.260   6.249  11.136  0.0867 -0.0431 -0.3743
36120DOPC   C3A44464   6.023   6.314  11.547 -0.1348  0.3611  0.2343
36120DOPC   C4A44465   5.751   6.469  11.930 -0.3128  0.1726 -0.0276
36120DOPC   C1B44466   6.508   6.136  10.741  0.0273  0.0245  0.1601
36120DOPC   D2B44467   6.824   5.845  10.865 -0.0334  0.3605  0.0439
36120DOPC   C3B44468   7.202   6.021  11.026 -0.1793 -0.0278  0.1606
36120DOPC   C4B44469   7.473   6.486  11.032  0.1131 -0.0451  0.2482
36121DOPC   NC344470   6.866   2.491  10.345 -0.4834 -0.0163  0.0771
36121DOPC   PO444471   6.733   2.106  10.292 -0.3301 -0.0311 -0.1253
36121DOPC   GL144472   6.547   1.882  10.564  0.0146  0.3599 -0.1062
36121DOPC   GL244473   6.564   2.095  10.816 -0.1682 -0.1752  0.3199
36121DOPC   C1A44474   6.785   1.596  10.809 -0.1803 -0.1387 -0.2062
36121DOPC   D2A44475   6.931   1.211  11.066  0.0022  0.1571 -0.1296
36121DOPC   C3A44476   7.091   1.029  11.436  0.2444  0.0509 -0.1754
36121DOPC   C4A44477   7.052   0.969  11.894 -0.3155  0.0600 -0.0443
36121DOPC   C1B44478   6.785   2.148  11.152  0.0077 -0.0048  0.1501
36121DOPC   D2B44479   6.864   2.340  11.509  0.0095  0.0079 -0.0774
36121DOPC   C3B44480   7.006   2.356  11.954 -0.3574  0.0350 -0.2613
36121DOPC   C4B44481   6.775   2.395  12.362  0.3553  0.0101 -0.1375
36122DOPC   NC344482   7.792   4.119  10.243 -0.0624  0.1425  0.1984
36122DOPC   PO444483   8.136   4.301  10.152 -0.1129  0.2757  0.0660
36122DOPC   GL144484   8.415   4.285  10.505 -0.3241 -0.0175 -0.0986
36122DOPC   GL244485   8.521   4.056  10.370 -0.2389 -0.0001 -0.1185
36122DOPC   C1A44486   8.633   4.124  10.844  0.2820 -0.1673 -0.1041
36122DOPC   D2A44487   8.757   3.981  11.234  0.2106  0.0383 -0.1337
36122DOPC   C3A44488   8.890   4.110  11.630 -0.0006 -0.1265 -0.1557
36122DOPC   C4A44489   9.253   4.171  11.954 -0.3358  0.0072 -0.0133
36122DOPC   C1B44490   8.350   3.681  10.608 -0.0128 -0.1279 -0.0293
36122DOPC   D2B44491   8.230   3.245  10.874  0.0622  0.0917 -0.0521
36122DOPC   C3B44492   7.795   3.098  10.981  0.1235 -0.0845  0.2166
36122DOPC   C4B44493   7.300   3.124  11.100 -0.3887  0.0312  0.1750
36123DOPC   NC344494   4.255   0.520  10.845  0.2316 -0.0647 -0.4043
36123DOPC   PO444495   4.208   0.120  10.874 -0.0836  0.0682 -0.1197
36123DOPC   GL144496   4.211  -0.025  11.332  0.0179 -0.3417  0.0287
36123DOPC   GL244497   4.226   0.273  11.302  0.2487 -0.1381 -0.0954
36123DOPC   C1A44498   4.356  -0.014  11.761  0.0666 -0.0448  0.0015
36123DOPC   D2A44499   4.499  -0.020  12.310 -0.1682  0.0761  0.0806
36123DOPC   C3A44500   4.396   0.166  12.758  0.0011 -0.3767  0.2191
36123DOPC   C4A44501   4.280   0.247  13.217  0.2890 -0.4365  0.0421
36123DOPC   C1B44502   4.311   0.481  11.649  0.0421 -0.1436  0.0298
36123DOPC   D2B44503   4.405   0.428  12.104 -0.0523 -0.0331  0.1753
36123DOPC   C3B44504   4.296   0.640  12.481  0.0372  0.2080  0.2564
36123DOPC   C4B44505   3.940   0.856  12.821 -0.0852 -0.3015  0.0432
36124DOPC   NC344506  25.019   0.650  13.905  0.3070 -0.1554 -0.1782
36124DOPC   PO444507  24.699   0.835  13.993  0.3064 -0.0216  0.1102
36124DOPC   GL144508  25.001   1.053  14.177  0.1586  0.2117  0.1894
36124DOPC   GL244509  25.241   1.094  14.004  0.1970 -0.0930 -0.1616
36124DOPC   C1A44510  25.157   1.393  14.426 -0.0793  0.5313  0.0934
36124DOPC   D2A44511  25.158   1.900  14.534 -0.0051 -0.1171 -0.0740
36124DOPC   C3A44512  24.931   1.960  15.014 -0.0361  0.2560  0.1381
36124DOPC   C4A44513  24.524   2.158  15.185 -0.1114  0.0764  0.1036
36124DOPC   C1B44514  25.547   1.073  14.384  0.0917  0.0363 -0.1508
36124DOPC   D2B44515  25.856   1.005  14.751  0.0830 -0.3115  0.0321
36124DOPC   C3B44516  25.922   0.832  15.178  0.0601  0.1182 -0.1182
36124DOPC   C4B44517  25.876   0.915  15.617  0.0910  0.0026  0.2203
36125DOPC   NC344518  18.469   6.295  18.329  0.0504  0.0032 -0.0268
36125DOPC   PO444519  18.303   6.602  18.209  0.0619 -0.1340  0.2602
36125DOPC   GL144520  18.251   6.786  18.550 -0.4683 -0.1027 -0.1039
36125DOPC   GL244521  18.049   6.979  18.603  0.2120 -0.1695  0.2250
36125DOPC   C1A44522  18.107   6.619  18.972  0.0247 -0.1563 -0.1408
36125DOPC   D2A44523  17.932   6.636  19.432  0.3758  0.0604 -0.0453
36125DOPC   C3A44524  17.784   6.523  19.806  0.0546  0.1750 -0.3008
36125DOPC   C4A44525  17.619   6.247  20.245 -0.1148  0.0784 -0.4986
36125DOPC   C1B44526  17.973   7.106  19.018 -0.4137  0.0458  0.0470
36125DOPC   D2B44527  17.724   7.083  19.459 -0.0055  0.2653  0.1253
36125DOPC   C3B44528  17.583   7.188  19.930 -0.0310  0.0791  0.2702
36125DOPC   C4B44529  17.363   7.289  20.333 -0.0030  0.0620  0.0462
36126DOPC   NC344530  21.906   1.740  17.474  0.2890 -0.0173 -0.1351
36126DOPC   PO444531  21.740   1.870  17.166 -0.3193 -0.0365  0.0159
36126DOPC   GL144532  21.962   2.250  17.069 -0.1583 -0.0856 -0.1617
36126DOPC   GL244533  22.194   2.128  17.219 -0.1178  0.2986  0.0921
36126DOPC   C1A44534  22.078   2.542  17.363 -0.1084 -0.0454  0.0398
36126DOPC   D2A44535  22.359   2.857  17.668 -0.1156  0.3246 -0.0435
36126DOPC   C3A44536  22.626   2.858  18.101 -0.0883  0.0672 -0.0987
36126DOPC   C4A44537  22.749   2.807  18.611 -0.0003  0.1015  0.0750
36126DOPC   C1B44538  22.360   2.238  17.585  0.0814 -0.0293 -0.3078
36126DOPC   D2B44539  22.778   2.516  17.765 -0.0426 -0.1704  0.1294
36126DOPC   C3B44540  22.933   2.376  18.131  0.2294 -0.1548 -0.0210
36126DOPC   C4B44541  23.098   2.374  18.620  0.1704  0.1609 -0.2722
36127DOPC   NC344542  15.735   7.006  16.416  0.1721 -0.1630  0.0395
36127DOPC   PO444543  15.796   7.372  16.286  0.0436  0.0467  0.1710
36127DOPC   GL144544  15.439   7.469  16.502  0.3119  0.0316  0.2903
36127DOPC   GL244545  15.436   7.252  16.650  0.2002  0.0450  0.0107
36127DOPC   C1A44546  15.005   7.474  16.393 -0.1629  0.0268 -0.0623
36127DOPC   D2A44547  14.659   7.747  16.684  0.1316 -0.0971  0.0870
36127DOPC   C3A44548  14.548   8.063  17.062  0.2173  0.1120 -0.2759
36127DOPC   C4A44549  14.188   8.163  17.269 -0.0488  0.2371 -0.0677
36127DOPC   C1B44550  15.072   7.357  16.849  0.1260 -0.0334  0.1775
36127DOPC   D2B44551  14.644   7.442  17.091 -0.2352  0.3508  0.0418
36127DOPC   C3B44552  14.269   7.661  17.204  0.1320  0.0367  0.0671
36127DOPC   C4B44553  13.777   7.736  17.339 -0.1084  0.2884 -0.1825
36128DOPC   NC344554  19.018   0.762  18.832 -0.0156  0.0456 -0.1814
36128DOPC   PO444555  19.235   0.457  18.886  0.3001  0.1391  0.1212
36128DOPC   GL144556  19.534   0.618  19.121  0.3380  0.1657  0.2246
36128DOPC   GL244557  19.780   0.522  19.031  0.0040 -0.1164 -0.4778
36128DOPC   C1A44558  19.512   0.682  19.549 -0.0143 -0.1253  0.0663
36128DOPC   D2A44559  19.280   1.045  19.817  0.1789 -0.3184 -0.2787
36128DOPC   C3A44560  19.301   1.408  20.153  0.0249 -0.2115 -0.0455
36128DOPC   C4A44561  18.968   1.779  20.296 -0.0661 -0.2122  0.2014
36128DOPC   C1B44562  19.967   0.580  19.430 -0.0488 -0.0070 -0.0045
36128DOPC   D2B44563  20.246   0.154  19.573 -0.1023 -0.1956 -0.2291
36128DOPC   C3B44564  20.325   0.227  20.062  0.1287 -0.2913  0.1015
36128DOPC   C4B44565  20.122  -0.086  20.471 -0.1929 -0.2930  0.2950
36129DOPC   NC344566  18.461   4.176  18.493  0.2064  0.4585 -0.1434
36129DOPC   PO444567  18.036   4.241  18.431  0.0192  0.3410  0.0821
36129DOPC   GL144568  17.792   3.848  18.583  0.1088 -0.3379  0.2126
36129DOPC   GL244569  17.759   4.027  18.810 -0.0031 -0.1428 -0.0841
36129DOPC   C1A44570  17.779   3.458  18.758  0.0700 -0.1308 -0.1663
36129DOPC   D2A44571  17.660   3.091  19.048  0.2956  0.0993 -0.2238
36129DOPC   C3A44572  17.978   2.751  19.186  0.0324 -0.1387 -0.3596
36129DOPC   C4A44573  18.176   2.766  19.669 -0.3737  0.2263  0.1316
36129DOPC   C1B44574  17.961   3.899  19.195  0.0554 -0.1640 -0.0410
36129DOPC   D2B44575  18.111   3.847  19.656  0.0679  0.2212  0.0374
36129DOPC   C3B44576  18.232   4.001  20.054 -0.0070 -0.4188 -0.2742
36129DOPC   C4B44577  18.340   4.306  20.393  0.1739 -0.0569  0.1121
36130DOPC   NC344578  20.207   6.965  18.368 -0.1312  0.0217  0.0030
36130DOPC   PO444579  20.288   6.575  18.365  0.2476  0.0595  0.0297
36130DOPC   GL144580  20.717   6.609  18.518  0.0408 -0.3218 -0.1158
36130DOPC   GL244581  20.674   6.847  18.600  0.1742  0.3739 -0.1225
36130DOPC   C1A44582  20.987   6.382  18.782 -0.0881 -0.1281  0.1211
36130DOPC   D2A44583  21.299   6.149  19.106  0.0248  0.1114 -0.0321
36130DOPC   C3A44584  21.491   6.507  19.340 -0.0758 -0.1566  0.1829
36130DOPC   C4A44585  21.782   6.821  19.518 -0.4554  0.0297  0.3654
36130DOPC   C1B44586  21.065   6.888  18.719 -0.0847 -0.2407  0.2323
36130DOPC   D2B44587  21.418   6.563  18.689 -0.0342  0.0918 -0.1128
36130DOPC   C3B44588  21.754   6.486  18.913 -0.1819 -0.1735 -0.0308
36130DOPC   C4B44589  22.075   6.425  19.306  0.2155  0.2473 -0.0178
36131DOPC   NC344590  19.750   7.331  18.568  0.1138  0.2928  0.0449
36131DOPC   PO444591  20.106   7.497  18.415 -0.0518 -0.0927 -0.1239
36131DOPC   GL144592  20.361   7.436  18.718  0.1953  0.1890  0.3041
36131DOPC   GL244593  20.149   7.180  18.794 -0.0386  0.3261 -0.2333
36131DOPC   C1A44594  20.644   7.293  19.016 -0.2966  0.0302  0.0767
36131DOPC   D2A44595  21.077   7.236  19.199 -0.2638 -0.0945  0.0338
36131DOPC   C3A44596  21.164   7.229  19.644 -0.2686 -0.0998  0.0251
36131DOPC   C4A44597  21.342   7.063  20.160 -0.0537 -0.2308 -0.3203
36131DOPC   C1B44598  20.212   7.149  19.244 -0.1570 -0.2352 -0.2849
36131DOPC   D2B44599  20.179   7.135  19.801  0.1052  0.0576 -0.0273
36131DOPC   C3B44600  19.704   7.215  19.981 -0.1968 -0.1473  0.1000
36131DOPC   C4B44601  19.351   7.459  20.184  0.1282 -0.1138  0.1921
36132DOPC   NC344602   6.148   6.887   9.958 -0.2282  0.0490  0.0357
36132DOPC   PO444603   6.545   6.845  10.034  0.2295  0.2156 -0.1641
36132DOPC   GL144604   6.777   6.918  10.401  0.1727 -0.0696  0.0356
36132DOPC   GL244605   6.867   6.623  10.402  0.2224 -0.0838 -0.1900
36132DOPC   C1A44606   7.059   7.167  10.725  0.0672 -0.1267 -0.0282
36132DOPC   D2A44607   7.340   7.278  11.159  0.1537 -0.1499  0.0968
36132DOPC   C3A44608   7.442   6.927  11.411 -0.1189  0.2046 -0.1521
36132DOPC   C4A44609   7.548   6.539  11.654  0.0329  0.1882  0.2188
36132DOPC   C1B44610   6.949   6.364  10.756 -0.0610  0.2680 -0.3861
36132DOPC   D2B44611   6.817   6.319  11.283 -0.3537  0.0756  0.1141
36132DOPC   C3B44612   6.559   6.441  11.683  0.0073 -0.2287  0.0598
36132DOPC   C4B44613   6.229   6.333  12.010 -0.3297 -0.1144  0.0599
36133DOPC   NC344614  13.581   3.351  12.970  0.2697 -0.0476  0.2619
36133DOPC   PO444615  13.209   3.332  12.831  0.0747  0.0392  0.1583
36133DOPC   GL144616  12.926   3.145  13.037  0.0768 -0.1598 -0.3771
36133DOPC   GL244617  12.725   3.159  12.800 -0.4044  0.0721 -0.0643
36133DOPC   C1A44618  12.728   3.208  13.377 -0.3137  0.0486  0.1096
36133DOPC   D2A44619  12.268   3.095  13.554  0.2344  0.0236 -0.2895
36133DOPC   C3A44620  12.013   2.931  13.848  0.0583 -0.1898 -0.0264
36133DOPC   C4A44621  11.967   2.798  14.332 -0.0501 -0.2904 -0.0651
36133DOPC   C1B44622  12.328   3.286  13.032 -0.0613 -0.0698 -0.0718
36133DOPC   D2B44623  11.934   3.524  13.239  0.1591  0.2881 -0.2201
36133DOPC   C3B44624  11.542   3.628  13.003  0.3120  0.0914  0.0442
36133DOPC   C4B44625  11.092   3.555  13.201  0.2259 -0.1278  0.0565
36134DOPC   NC344626  18.752   1.249  18.208 -0.4070  0.1303 -0.1071
36134DOPC   PO444627  18.736   0.875  18.392  0.0349  0.0279  0.2749
36134DOPC   GL144628  18.544   0.744  18.804  0.0416  0.0274 -0.0110
36134DOPC   GL244629  18.341   0.960  18.683  0.1683  0.1285 -0.1102
36134DOPC   C1A44630  18.646   0.902  19.167 -0.1046  0.0289 -0.1310
36134DOPC   D2A44631  18.675   1.214  19.554 -0.1290  0.1412  0.2744
36134DOPC   C3A44632  18.729   1.242  20.027  0.1825  0.2147 -0.0770
36134DOPC   C4A44633  18.702   0.900  20.390 -0.0380  0.0026  0.0609
36134DOPC   C1B44634  18.081   1.113  18.954 -0.2777 -0.2324 -0.0969
36134DOPC   D2B44635  17.784   1.263  19.321 -0.0067 -0.1846  0.2814
36134DOPC   C3B44636  17.771   1.052  19.710 -0.0699  0.2745 -0.3288
36134DOPC   C4B44637  17.951   0.672  19.968 -0.0939  0.1359 -0.0712
36135DOPC   NC344638   6.064   3.206  10.466 -0.1165  0.0798  0.1303
36135DOPC   PO444639   5.635   3.214  10.479  0.1204 -0.3046 -0.1794
36135DOPC   GL144640   5.773   3.203  10.911 -0.2182  0.1944  0.0424
36135DOPC   GL244641   5.943   2.875  10.794  0.0937  0.0501 -0.0697
36135DOPC   C1A44642   5.802   3.061  11.308  0.0414  0.1129 -0.3399
36135DOPC   D2A44643   6.083   3.041  11.754  0.1157  0.1306  0.1793
36135DOPC   C3A44644   6.072   2.824  12.142 -0.2859  0.0985 -0.2795
36135DOPC   C4A44645   6.295   2.499  12.489 -0.0269  0.2777  0.0060
36135DOPC   C1B44646   6.245   3.102  11.035 -0.4734  0.0140  0.0514
36135DOPC   D2B44647   6.446   3.384  11.376 -0.0426  0.0262  0.0701
36135DOPC   C3B44648   6.605   3.354  11.765 -0.0231  0.3567 -0.0050
36135DOPC   C4B44649   6.924   3.314  12.186  0.0829  0.0918 -0.1167
36136DOPC   NC344650   0.845   3.898  13.043  0.1307  0.0280  0.0194
36136DOPC   PO444651   0.887   3.528  12.876 -0.0462  0.4489 -0.2873
36136DOPC   GL144652   1.009   3.385  13.242 -0.0747  0.2810  0.0738
36136DOPC   GL244653   1.209   3.651  13.267  0.0222 -0.0364 -0.0927
36136DOPC   C1A44654   1.317   3.017  13.337 -0.0792  0.3248  0.0166
36136DOPC   D2A44655   1.557   2.759  13.735 -0.0852 -0.0002  0.1653
36136DOPC   C3A44656   1.943   2.619  13.985  0.0422  0.3943  0.1764
36136DOPC   C4A44657   2.318   2.631  14.185  0.1042  0.2565  0.2279
36136DOPC   C1B44658   1.604   3.426  13.294  0.1082 -0.2703  0.2114
36136DOPC   D2B44659   1.788   3.041  13.424  0.2354  0.1362  0.1922
36136DOPC   C3B44660   1.920   2.607  13.461 -0.2499  0.3919  0.1752
36136DOPC   C4B44661   2.108   2.183  13.437 -0.4058  0.4518 -0.2353
36137DOPC   NC344662   2.653   2.595  11.485 -0.0403  0.0868  0.1865
36137DOPC   PO444663   2.700   2.993  11.578 -0.1534  0.2832  0.0099
36137DOPC   GL144664   2.813   2.786  11.956  0.0966 -0.1605  0.5271
36137DOPC   GL244665   2.880   2.529  11.882 -0.2274 -0.1961 -0.1103
36137DOPC   C1A44666   2.688   2.882  12.370  0.1838  0.0130 -0.0160
36137DOPC   D2A44667   2.724   2.880  12.884 -0.1110 -0.1432  0.0341
36137DOPC   C3A44668   2.803   3.071  13.280  0.0682  0.1153 -0.1085
36137DOPC   C4A44669   2.751   3.205  13.752  0.1354  0.0314 -0.1319
36137DOPC   C1B44670   3.231   2.591  12.118  0.1541 -0.1294 -0.1193
36137DOPC   D2B44671   3.651   2.662  12.417 -0.1564 -0.1857 -0.0832
36137DOPC   C3B44672   4.012   2.562  12.678 -0.0587  0.4639  0.0385
36137DOPC   C4B44673   4.338   2.411  12.950  0.2216 -0.1848 -0.5223
36138DOPC   NC344674  17.079   0.269  17.914 -0.1195 -0.2860 -0.0352
36138DOPC   PO444675  17.158   0.178  18.292 -0.2851  0.0346  0.1042
36138DOPC   GL144676  16.972  -0.148  18.244  0.1558 -0.0076  0.1680
36138DOPC   GL244677  16.786  -0.014  18.052  0.0243  0.0811 -0.1411
36138DOPC   C1A44678  16.616  -0.472  18.247  0.0359 -0.0726 -0.1134
36138DOPC   D2A44679  16.156  -0.663  18.296  0.1483 -0.2533 -0.3203
36138DOPC   C3A44680  16.008  -0.813  18.759 -0.3938  0.4397  0.4420
36138DOPC   C4A44681  15.890  -0.880  19.187  0.0821 -0.0070 -0.0224
36138DOPC   C1B44682  16.529   0.019  18.304  0.2607  0.2437 -0.0979
36138DOPC   D2B44683  16.208   0.033  18.645  0.0440 -0.2428 -0.0077
36138DOPC   C3B44684  15.789   0.007  18.821  0.0103 -0.0885 -0.2528
36138DOPC   C4B44685  15.387   0.179  19.088 -0.2068  0.0151 -0.2497
36139DOPC   NC344686  23.547   3.405  14.693 -0.1206 -0.1485 -0.0582
36139DOPC   PO444687  23.669   3.531  15.048  0.0641  0.1296  0.2036
36139DOPC   GL144688  24.048   3.542  15.145 -0.1277 -0.1769 -0.1997
36139DOPC   GL244689  24.026   3.835  14.998  0.3018 -0.2702  0.0544
36139DOPC   C1A44690  24.465   3.618  15.310  0.0294  0.0689  0.2195
36139DOPC   D2A44691  24.942   3.470  15.556 -0.0554  0.0222  0.0748
36139DOPC   C3A44692  25.418   3.587  15.640 -0.0088 -0.0010 -0.1432
36139DOPC   C4A44693  25.865   3.792  15.785  0.2113  0.2697 -0.1293
36139DOPC   C1B44694  24.245   4.058  15.328  0.2847 -0.1737 -0.1400
36139DOPC   D2B44695  24.727   4.000  15.512  0.0597  0.0018 -0.0325
36139DOPC   C3B44696  25.077   3.891  15.815  0.2384  0.1277  0.0203
36139DOPC   C4B44697  25.476   3.948  16.120 -0.1250 -0.0481  0.0395
36140DOPC   NC344698  24.397   1.181  13.809 -0.1112  0.1502 -0.0600
36140DOPC   PO444699  24.217   1.093  14.155  0.2557 -0.1305  0.1311
36140DOPC   GL144700  24.519   1.011  14.483  0.2325 -0.2300  0.1899
36140DOPC   GL244701  24.392   1.262  14.637 -0.0024  0.0082  0.0555
36140DOPC   C1A44702  24.910   0.979  14.602  0.0691  0.1468 -0.0108
36140DOPC   D2A44703  25.312   1.042  14.813  0.0544  0.0227  0.0479
36140DOPC   C3A44704  25.599   1.185  15.156  0.2192 -0.1238  0.0934
36140DOPC   C4A44705  25.813   1.488  15.464  0.0199  0.1056  0.0398
36140DOPC   C1B44706  24.494   1.128  15.048  0.2166  0.3887  0.1746
36140DOPC   D2B44707  24.634   0.805  15.441 -0.1325  0.0317 -0.4070
36140DOPC   C3B44708  24.931   0.965  15.786  0.0350  0.2087 -0.1596
36140DOPC   C4B44709  25.222   1.120  16.245 -0.1135 -0.1970  0.2235
36141DOPC   NC344710  16.307   2.175  17.623 -0.0826  0.0606  0.0920
36141DOPC   PO444711  16.046   2.282  17.312 -0.2623  0.0016 -0.0791
36141DOPC   GL144712  15.731   2.204  17.531  0.4335  0.0541 -0.0765
36141DOPC   GL244713  15.843   1.888  17.542  0.3923  0.1110  0.0202
36141DOPC   C1A44714  15.299   2.329  17.472 -0.1998 -0.1901 -0.0042
36141DOPC   D2A44715  14.851   2.394  17.475 -0.1257  0.0368  0.0702
36141DOPC   C3A44716  14.443   2.209  17.709  0.2166 -0.2032  0.2645
36141DOPC   C4A44717  14.199   1.978  18.030 -0.0376 -0.0335 -0.1734
36141DOPC   C1B44718  15.515   1.946  17.830  0.0548  0.1847  0.1684
36141DOPC   D2B44719  15.298   1.945  18.278 -0.1383  0.2215 -0.2571
36141DOPC   C3B44720  15.034   1.556  18.230 -0.0903 -0.1321 -0.0437
36141DOPC   C4B44721  14.601   1.311  18.225  0.0686  0.1493 -0.0044
36142DOPC   NC344722  15.554   1.802  16.147  0.4144  0.0853 -0.0145
36142DOPC   PO444723  15.510   2.196  16.043  0.0122 -0.0643  0.1684
36142DOPC   GL144724  15.073   2.213  16.057 -0.1657  0.0620 -0.0810
36142DOPC   GL244725  14.982   1.942  16.221 -0.2544 -0.2844 -0.1172
36142DOPC   C1A44726  14.771   2.586  16.017 -0.1981 -0.1736 -0.1613
36142DOPC   D2A44727  14.461   2.893  15.846  0.1015  0.0301 -0.0657
36142DOPC   C3A44728  14.019   2.905  16.045 -0.2451  0.3335 -0.1703
36142DOPC   C4A44729  13.741   2.859  16.439 -0.0884 -0.0478 -0.2280
36142DOPC   C1B44730  14.862   2.008  16.678  0.0232  0.0296  0.2725
36142DOPC   D2B44731  14.613   1.964  17.120  0.0912  0.2139 -0.0430
36142DOPC   C3B44732  14.880   1.903  17.528 -0.1152  0.1599 -0.0116
36142DOPC   C4B44733  14.948   2.087  17.988  0.4048 -0.3360  0.1182
36143DOPC   NC344734   1.790   3.453  12.130  0.0872  0.0194 -0.1321
36143DOPC   PO444735   1.868   3.878  12.018  0.1884  0.0248 -0.0135
36143DOPC   GL144736   2.170   4.005  12.169  0.0052  0.0086 -0.0330
36143DOPC   GL244737   2.206   4.292  12.162  0.3701 -0.1131 -0.0659
36143DOPC   C1A44738   2.281   3.925  12.607  0.0025 -0.1640  0.1353
36143DOPC   D2A44739   2.221   3.837  13.143 -0.2010  0.0472  0.0919
36143DOPC   C3A44740   2.228   3.847  13.603 -0.0065 -0.0436  0.1871
36143DOPC   C4A44741   2.394   3.954  14.088 -0.1088  0.1049  0.1666
36143DOPC   C1B44742   2.475   4.438  12.509 -0.1437 -0.1265 -0.0393
36143DOPC   D2B44743   2.831   4.405  12.862 -0.0022 -0.0147 -0.1072
36143DOPC   C3B44744   2.697   4.418  13.321 -0.2618  0.1225  0.4496
36143DOPC   C4B44745   2.533   4.412  13.770 -0.1814  0.0725 -0.2898
36144DOPC   NC344746  16.021   4.088  16.293  0.3291  0.2318 -0.0563
36144DOPC   PO444747  15.880   4.026  16.660  0.1721 -0.0292 -0.0188
36144DOPC   GL144748  15.530   4.168  16.586 -0.3930  0.2828 -0.1173
36144DOPC   GL244749  15.473   4.311  16.908  0.2273  0.5002 -0.1164
36144DOPC   C1A44750  15.121   4.111  16.495 -0.3702  0.0975 -0.1638
36144DOPC   D2A44751  14.546   4.147  16.513 -0.3058 -0.0407  0.1208
36144DOPC   C3A44752  14.370   4.280  16.917 -0.3636 -0.0421 -0.2249
36144DOPC   C4A44753  14.423   4.748  17.194 -0.2427  0.1697  0.0705
36144DOPC   C1B44754  15.377   4.127  17.350 -0.2043 -0.1262  0.1749
36144DOPC   D2B44755  15.228   3.934  17.794 -0.1319  0.1220 -0.0153
36144DOPC   C3B44756  15.042   4.019  18.204 -0.2892 -0.0497  0.0696
36144DOPC   C4B44757  14.850   4.291  18.565 -0.0323 -0.0157 -0.0944
36145DOPC   NC344758  11.604   4.623  10.982  0.2377  0.0190  0.1638
36145DOPC   PO444759  11.278   4.671  11.217  0.0524  0.0259 -0.0498
36145DOPC   GL144760  11.070   4.610  11.577  0.0749 -0.2461  0.0785
36145DOPC   GL244761  11.051   4.365  11.623 -0.1019 -0.0021  0.1417
36145DOPC   C1A44762  11.191   4.795  12.001  0.0025 -0.1595  0.2246
36145DOPC   D2A44763  11.551   5.046  12.302  0.1440 -0.0900  0.2696
36145DOPC   C3A44764  11.350   5.421  12.510  0.0661 -0.1888 -0.0524
36145DOPC   C4A44765  10.972   5.507  12.797 -0.0254  0.0259 -0.1467
36145DOPC   C1B44766  10.627   4.170  11.651 -0.3701 -0.0867  0.0080
36145DOPC   D2B44767  10.172   4.118  11.894  0.1152 -0.0549 -0.3734
36145DOPC   C3B44768  10.235   4.288  12.332  0.0338 -0.1562  0.0725
36145DOPC   C4B44769  10.084   4.011  12.697  0.1053  0.0798  0.1974
36146DOPC   NC344770  22.650   5.233  15.362  0.0708  0.0636 -0.1293
36146DOPC   PO444771  22.720   4.934  15.644 -0.0691 -0.2102  0.1186
36146DOPC   GL144772  23.017   5.142  15.834  0.5758  0.2079  0.0369
36146DOPC   GL244773  22.881   5.237  16.124 -0.1699  0.1920  0.2733
36146DOPC   C1A44774  23.354   5.092  16.104 -0.1363 -0.0245 -0.2412
36146DOPC   D2A44775  23.471   4.856  16.490  0.3168  0.1692  0.0166
36146DOPC   C3A44776  23.556   4.375  16.400  0.3880  0.1039 -0.1432
36146DOPC   C4A44777  23.601   3.915  16.410  0.1380  0.0041  0.0769
36146DOPC   C1B44778  23.100   5.191  16.567 -0.1950 -0.0697 -0.0598
36146DOPC   D2B44779  23.436   4.950  16.946  0.0081  0.0385 -0.1480
36146DOPC   C3B44780  23.809   4.818  17.202  0.2683 -0.1720 -0.0308
36146DOPC   C4B44781  24.229   4.599  17.277 -0.1810 -0.0279 -0.2876
36147DOPC   NC344782  18.748   7.745  18.667  0.1749 -0.2682  0.1675
36147DOPC   PO444783  19.023   7.829  18.902 -0.2034 -0.0537  0.1292
36147DOPC   GL144784  19.017   7.885  19.245 -0.1952  0.0545  0.1817
36147DOPC   GL244785  19.232   8.114  19.309 -0.2902 -0.0153 -0.1015
36147DOPC   C1A44786  18.941   7.769  19.588 -0.0289  0.3224  0.1715
36147DOPC   D2A44787  18.835   7.567  20.033 -0.0305  0.3496 -0.2000
36147DOPC   C3A44788  18.456   7.527  20.322 -0.2570 -0.1427 -0.0395
36147DOPC   C4A44789  18.118   7.516  20.774 -0.0148 -0.3454 -0.0079
36147DOPC   C1B44790  19.348   8.111  19.701  0.1924  0.3397  0.1686
36147DOPC   D2B44791  19.244   7.916  20.094  0.2636  0.0855  0.0738
36147DOPC   C3B44792  18.946   7.887  20.469  0.1791  0.2028  0.1070
36147DOPC   C4B44793  18.663   7.867  20.865 -0.0327 -0.0434  0.1945
36148DOPC   NC344794   8.949   0.180  10.304 -0.0175  0.0270  0.4262
36148DOPC   PO444795   8.972  -0.180  10.452 -0.1659 -0.3984 -0.0507
36148DOPC   GL144796   8.805  -0.271  10.817 -0.1283  0.1983  0.1576
36148DOPC   GL244797   9.065  -0.317  10.863 -0.0610 -0.0493  0.1539
36148DOPC   C1A44798   8.740  -0.358  11.222  0.0909 -0.1796 -0.3201
36148DOPC   D2A44799   8.538  -0.368  11.722 -0.0330 -0.1246 -0.1598
36148DOPC   C3A44800   8.315  -0.057  12.020  0.0904 -0.2471  0.0673
36148DOPC   C4A44801   7.931   0.248  12.131 -0.2645 -0.0585  0.3255
36148DOPC   C1B44802   9.230  -0.068  11.242 -0.4781  0.0996  0.0776
36148DOPC   D2B44803   9.268   0.125  11.661 -0.1005 -0.1896 -0.1801
36148DOPC   C3B44804   9.313   0.419  11.970 -0.1020  0.0165 -0.1244
36148DOPC   C4B44805   9.335   0.800  12.200  0.3200  0.0576  0.4879
36149DOPC   NC344806  23.751   6.162  14.767 -0.0640 -0.0831 -0.3169
36149DOPC   PO444807  24.045   5.919  14.937  0.1061  0.1254  0.2219
36149DOPC   GL144808  24.472   5.966  15.132 -0.1025 -0.4538  0.3834
36149DOPC   GL244809  24.400   5.806  15.335 -0.2528  0.1469 -0.1231
36149DOPC   C1A44810  24.789   6.241  15.151  0.0086 -0.2802 -0.1812
36149DOPC   D2A44811  25.187   6.500  15.214  0.2536  0.0684  0.2072
36149DOPC   C3A44812  25.509   6.376  15.516 -0.1246 -0.1328 -0.2738
36149DOPC   C4A44813  25.900   6.581  15.772 -0.2857  0.1923 -0.1644
36149DOPC   C1B44814  24.570   5.477  15.531 -0.1248  0.1868 -0.1703
36149DOPC   D2B44815  24.985   5.252  15.693  0.1042  0.2429  0.0044
36149DOPC   C3B44816  25.181   4.884  15.919 -0.0981  0.3153  0.2026
36149DOPC   C4B44817  25.524   4.507  16.126  0.0623 -0.3760 -0.2639
36150DOPC   NC344818   6.182   2.136  10.345 -0.4605  0.3048 -0.1513
36150DOPC   PO444819   5.755   2.168  10.416  0.2720  0.2013 -0.1708
36150DOPC   GL144820   5.657   2.152  10.896 -0.2425  0.1753 -0.0007
36150DOPC   GL244821   5.511   2.362  10.723  0.3171  0.3252  0.5123
36150DOPC   C1A44822   5.931   2.098  11.248 -0.2753 -0.1582 -0.0687
36150DOPC   D2A44823   6.305   2.134  11.613 -0.1746  0.3762 -0.2119
36150DOPC   C3A44824   6.467   2.479  11.874 -0.3624  0.2893  0.4332
36150DOPC   C4A44825   6.589   2.845  12.174 -0.1912 -0.0857  0.2590
36150DOPC   C1B44826   5.198   2.123  10.966 -0.0893  0.0586 -0.2780
36150DOPC   D2B44827   4.920   1.901  11.387  0.0279 -0.1780 -0.0699
36150DOPC   C3B44828   5.018   1.616  11.719  0.1483  0.1969 -0.4003
36150DOPC   C4B44829   5.383   1.524  12.056  0.0680  0.3342 -0.2227
36151DOPC   NC344830   5.842   5.135  10.508  0.2449 -0.1078 -0.1825
36151DOPC   PO444831   6.244   5.209  10.565  0.1129 -0.1955 -0.1183
36151DOPC   GL144832   6.553   5.280  10.921  0.1195  0.2186 -0.0946
36151DOPC   GL244833   6.222   5.282  11.107  0.4321  0.2333 -0.0144
36151DOPC   C1A44834   6.766   5.458  11.230 -0.0459 -0.1940  0.1197
36151DOPC   D2A44835   6.941   5.814  11.566 -0.0873  0.1563 -0.0665
36151DOPC   C3A44836   6.815   6.071  11.904  0.0989 -0.0950  0.0340
36151DOPC   C4A44837   6.667   6.508  12.177  0.0547  0.1170  0.1212
36151DOPC   C1B44838   6.240   5.425  11.516  0.1541 -0.1939  0.1253
36151DOPC   D2B44839   6.240   5.526  12.009  0.2145 -0.0148 -0.0600
36151DOPC   C3B44840   6.086   5.660  12.465 -0.0798 -0.2441  0.2906
36151DOPC   C4B44841   5.769   5.785  12.805  0.0456  0.1786  0.1242
36152DOPC   NC344842   3.969   4.975  11.085 -0.0997  0.3398 -0.3359
36152DOPC   PO444843   4.168   5.322  11.064 -0.1374 -0.1517  0.2344
36152DOPC   GL144844   4.386   5.392  11.314  0.2270  0.1200  0.1185
36152DOPC   GL244845   4.675   5.453  11.253  0.3480 -0.2293 -0.1662
36152DOPC   C1A44846   4.409   5.535  11.754  0.0631 -0.1814  0.2738
36152DOPC   D2A44847   4.400   5.611  12.248  0.1294 -0.0013 -0.2718
36152DOPC   C3A44848   4.294   5.167  12.338 -0.4083  0.0742 -0.2625
36152DOPC   C4A44849   4.102   4.923  12.731 -0.0045  0.0434  0.0224
36152DOPC   C1B44850   4.930   5.503  11.566  0.2377  0.3158 -0.3807
36152DOPC   D2B44851   5.369   5.645  11.806 -0.1039 -0.2604  0.1414
36152DOPC   C3B44852   5.769   5.367  11.855  0.1526 -0.1808 -0.2530
36152DOPC   C4B44853   6.151   5.048  11.946 -0.0645 -0.1129 -0.0727
36153DOPC   NC344854  15.618   4.598  17.238  0.1330  0.1400  0.2062
36153DOPC   PO444855  16.049   4.569  17.271 -0.0508  0.2632  0.1460
36153DOPC   GL144856  15.923   4.359  17.704 -0.0815 -0.2208  0.1843
36153DOPC   GL244857  15.669   4.402  17.617 -0.2263  0.1034 -0.4827
36153DOPC   C1A44858  15.787   4.025  18.020  0.0583  0.0772 -0.1282
36153DOPC   D2A44859  15.824   3.966  18.498  0.3119 -0.1744 -0.1982
36153DOPC   C3A44860  15.808   4.076  18.991  0.2423 -0.3199  0.0774
36153DOPC   C4A44861  15.912   4.215  19.407 -0.2401 -0.2320 -0.0289
36153DOPC   C1B44862  15.485   4.856  17.673 -0.0339 -0.0438 -0.1741
36153DOPC   D2B44863  15.169   5.000  18.000  0.0286  0.2673  0.3320
36153DOPC   C3B44864  14.743   4.955  18.091 -0.2944  0.0814 -0.1501
36153DOPC   C4B44865  14.334   5.094  18.401  0.1738  0.3285 -0.1013
36154DOPC   NC344866  10.142   6.928  10.602  0.0821  0.3429  0.1458
36154DOPC   PO444867   9.747   6.862  10.706 -0.0214  0.2506 -0.0986
36154DOPC   GL144868   9.603   6.611  10.944 -0.1243  0.2699 -0.0842
36154DOPC   GL244869   9.776   6.452  11.116  0.1820  0.2030  0.5503
36154DOPC   C1A44870   9.186   6.696  11.216  0.0131 -0.0319  0.0177
36154DOPC   D2A44871   8.714   6.602  11.420 -0.2919 -0.2702 -0.1628
36154DOPC   C3A44872   8.542   6.718  11.823  0.0061 -0.0022  0.2157
36154DOPC   C4A44873   8.382   6.902  12.260 -0.0533 -0.1696  0.2837
36154DOPC   C1B44874   9.580   6.448  11.535 -0.2800 -0.2330  0.1466
36154DOPC   D2B44875   9.349   6.289  11.966  0.1918 -0.1717 -0.5698
36154DOPC   C3B44876   9.347   6.436  12.410 -0.1840 -0.0582  0.1112
36154DOPC   C4B44877   9.223   6.724  12.704 -0.0846  0.1799 -0.0775
36155DOPC   NC344878  17.398   5.146  17.782 -0.0828  0.0006 -0.0611
36155DOPC   PO444879  17.293   4.803  18.021 -0.2733  0.1598 -0.1255
36155DOPC   GL144880  16.997   4.847  18.314  0.4070  0.1472  0.4331
36155DOPC   GL244881  16.818   5.027  18.318 -0.2786  0.1368  0.1815
36155DOPC   C1A44882  16.811   4.619  18.611  0.3517  0.2586 -0.1129
36155DOPC   D2A44883  16.388   4.772  18.816  0.1720 -0.1022 -0.0806
36155DOPC   C3A44884  16.050   4.854  19.167 -0.0281  0.2154  0.1467
36155DOPC   C4A44885  16.126   5.094  19.595  0.0007 -0.1145 -0.0861
36155DOPC   C1B44886  16.803   5.083  18.759 -0.0948 -0.1347 -0.0178
36155DOPC   D2B44887  16.663   4.992  19.237 -0.0417 -0.1875  0.0451
36155DOPC   C3B44888  16.711   5.291  19.581 -0.0159  0.1996  0.2379
36155DOPC   C4B44889  16.868   5.653  19.877 -0.1254  0.0741 -0.0378
36156DOPC   NC344890  21.607   7.473  17.607 -0.1540  0.3090  0.0634
36156DOPC   PO444891  21.829   7.315  17.316 -0.5194  0.2284 -0.1812
36156DOPC   GL144892  22.080   7.163  17.658 -0.0802 -0.0938 -0.0063
36156DOPC   GL244893  22.149   6.966  17.422 -0.2750  0.1558 -0.3856
36156DOPC   C1A44894  22.348   6.944  17.968  0.0697  0.1066  0.0538
36156DOPC   D2A44895  22.611   6.779  18.431 -0.0577 -0.0432 -0.0954
36156DOPC   C3A44896  22.322   7.093  18.751  0.0088 -0.1959  0.2414
36156DOPC   C4A44897  22.267   7.477  19.025 -0.0183  0.1897 -0.1172
36156DOPC   C1B44898  22.522   6.676  17.573 -0.0859 -0.0025  0.0497
36156DOPC   D2B44899  22.894   6.318  17.608  0.2767 -0.4035  0.3480
36156DOPC   C3B44900  23.330   6.292  17.780 -0.0799  0.1318 -0.2562
36156DOPC   C4B44901  23.636   6.097  18.098  0.1306 -0.1035 -0.1938
36157DOPC   NC344902  10.486   4.515  10.115 -0.1695 -0.2745 -0.2313
36157DOPC   PO444903  10.099   4.420  10.117  0.1048  0.2184 -0.0691
36157DOPC   GL144904   9.776   4.256  10.347  0.2369  0.2262  0.4311
36157DOPC   GL244905   9.734   4.410  10.558 -0.1658 -0.4877 -0.0669
36157DOPC   C1A44906   9.643   3.850  10.522 -0.0369 -0.2076  0.0330
36157DOPC   D2A44907   9.744   3.450  10.871 -0.5668 -0.0708  0.0056
36157DOPC   C3A44908   9.567   3.360  11.370 -0.0018  0.0270  0.1858
36157DOPC   C4A44909   9.324   3.316  11.753 -0.0976 -0.1568  0.1128
36157DOPC   C1B44910   9.493   4.314  10.868  0.0014 -0.1364 -0.1795
36157DOPC   D2B44911   9.377   3.840  11.057  0.0502 -0.0931 -0.0997
36157DOPC   C3B44912   9.321   3.811  11.559 -0.0824  0.2092 -0.0472
36157DOPC   C4B44913   9.340   3.654  12.060 -0.1084 -0.0514  0.1752
36158DOPC   NC344914  10.732   4.224  10.593 -0.3108  0.0962  0.1035
36158DOPC   PO444915  10.599   3.860  10.705  0.0001 -0.3380  0.2489
36158DOPC   GL144916  10.158   3.863  10.843  0.3036  0.1084  0.1694
36158DOPC   GL244917  10.321   3.774  11.138  0.1666 -0.0952  0.0671
36158DOPC   C1A44918   9.840   3.990  10.978  0.1740  0.1720 -0.1595
36158DOPC   D2A44919   9.617   4.197  11.363 -0.0003 -0.2436  0.2506
36158DOPC   C3A44920   9.778   4.503  11.674  0.1210 -0.0913  0.1735
36158DOPC   C4A44921  10.039   4.734  12.055  0.2236 -0.0125 -0.4012
36158DOPC   C1B44922  10.544   3.385  11.314  0.2699  0.0846 -0.1063
36158DOPC   D2B44923  10.419   2.936  11.328 -0.4968  0.0127 -0.1950
36158DOPC   C3B44924  10.424   2.717  11.736  0.1767  0.0057  0.0593
36158DOPC   C4B44925  10.051   2.693  12.093  0.0067  0.0267 -0.1859
36159DOPC   NC344926  20.652   0.180  17.423 -0.0617  0.0482  0.2925
36159DOPC   PO444927  21.018   0.219  17.623  0.0820 -0.1269 -0.3381
36159DOPC   GL144928  21.338   0.411  17.868 -0.0532  0.2127 -0.1189
36159DOPC   GL244929  21.163   0.500  18.073 -0.2545 -0.0923  0.0522
36159DOPC   C1A44930  21.623   0.169  18.161  0.0177  0.0504  0.1902
36159DOPC   D2A44931  21.997   0.129  18.521 -0.1366  0.0296  0.0373
36159DOPC   C3A44932  22.164   0.318  18.922  0.0096 -0.0217  0.1903
36159DOPC   C4A44933  22.569   0.506  18.978 -0.3466 -0.0992  0.1005
36159DOPC   C1B44934  21.306   0.662  18.452 -0.0553  0.1039  0.1509
36159DOPC   D2B44935  21.324   0.654  18.928  0.0817  0.0370  0.0797
36159DOPC   C3B44936  21.628   0.416  19.176  0.1705  0.0941  0.3648
36159DOPC   C4B44937  22.034   0.421  19.433 -0.0223 -0.1791 -0.0570
36160DOPC   NC344938  19.241   4.251  18.187  0.1367  0.0258 -0.1648
36160DOPC   PO444939  18.978   4.126  18.474 -0.1977 -0.0881  0.0427
36160DOPC   GL144940  18.782   4.298  18.764 -0.0591 -0.0757 -0.2930
36160DOPC   GL244941  18.751   4.011  18.902 -0.0628  0.3714 -0.2180
36160DOPC   C1A44942  18.652   4.437  19.185 -0.0168  0.2434  0.0812
36160DOPC   D2A44943  18.668   4.664  19.575  0.1971  0.0954 -0.3050
36160DOPC   C3A44944  18.376   4.597  19.945  0.1084 -0.0877  0.1351
36160DOPC   C4A44945  18.059   4.770  20.229 -0.1527 -0.0117 -0.0128
36160DOPC   C1B44946  18.900   3.845  19.234  0.1352 -0.1375 -0.1137
36160DOPC   D2B44947  19.087   3.836  19.737  0.0121  0.1325  0.1033
36160DOPC   C3B44948  19.231   3.383  19.900 -0.0565 -0.0173 -0.2295
36160DOPC   C4B44949  19.510   2.960  19.990  0.0668  0.0173  0.1883
36161DOPC   NC344950   6.521   4.010  10.569 -0.0253 -0.0442  0.3671
36161DOPC   PO444951   6.233   4.222  10.381  0.0515 -0.1494  0.2900
36161DOPC   GL144952   6.168   4.406  10.780 -0.2348 -0.2993 -0.0263
36161DOPC   GL244953   6.033   4.195  10.905  0.0241  0.1007  0.1049
36161DOPC   C1A44954   6.314   4.435  11.212  0.2254  0.0427  0.1644
36161DOPC   D2A44955   6.619   4.409  11.613 -0.2356  0.3720 -0.2014
36161DOPC   C3A44956   6.559   4.766  11.938  0.1298  0.1102 -0.0530
36161DOPC   C4A44957   6.730   5.159  12.271  0.3177  0.2680 -0.2694
36161DOPC   C1B44958   5.828   4.076  11.317 -0.0158  0.2890  0.1303
36161DOPC   D2B44959   5.767   4.136  11.789 -0.0705 -0.2096 -0.2754
36161DOPC   C3B44960   5.566   3.741  12.045 -0.2020  0.1766  0.1105
36161DOPC   C4B44961   5.251   3.414  12.260 -0.1570 -0.2140  0.1534
36162W        W44962   4.223   1.249  23.414  0.2468 -0.2030 -0.2816
36163W        W44963  19.316   4.656  24.449 -0.1026 -0.2615  0.0856
36164W        W44964  12.724   4.038  12.314 -0.0869  0.2815  0.1249
36165W        W44965   2.046   6.888   6.539 -0.1121 -0.1889 -0.0996
36166W        W44966  16.713   3.678  22.125  0.3783  0.2137 -0.0892
36167W        W44967   7.701   4.315   5.550 -0.0913  0.0413 -0.0021
36168W        W44968  16.502   7.578  11.924  0.2357  0.0848  0.2226
36169W        W44969   1.382   7.633   4.857  0.0923 -0.1624  0.1501
36170W        W44970   0.897   5.513   2.295 -0.1620 -0.0441  0.1063
36171W        W44971  20.309   2.703  31.013 -0.0529  0.1732  0.0128
36172W        W44972  19.320   3.191   6.122  0.0386  0.0995 -0.1012
36173W        W44973  10.939   5.525  24.245  0.1284  0.0026 -0.0541
36174W        W44974  13.744   3.128  31.320 -0.1554  0.0188 -0.6510
36175W        W44975  24.908   3.077   9.085  0.2801 -0.1201 -0.1912
36176W        W44976  13.040   4.137  10.696  0.1504  0.0425 -0.1965
36177W        W44977  20.588   3.361  26.722 -0.1148 -0.1806 -0.0754
36178W        W44978  20.293   0.325   2.542 -0.0454  0.0913  0.4184
36179W        W44979  12.288   1.678  30.220 -0.0332 -0.0574  0.0756
36180W        W44980  21.071   6.942   4.762  0.1100 -0.0609  0.2149
36181W        W44981   6.532   1.892  22.277 -0.0499  0.0325  0.0647
36182W        W44982   1.424   4.186  23.068 -0.3950 -0.0899 -0.1724
36183W        W44983   5.297   6.348  28.964  0.0787  0.0470  0.1636
36184W        W44984  16.469   2.229  15.673 -0.1684 -0.0279  0.3676
36185W        W44985   1.550   5.647   1.074  0.0749 -0.1173 -0.6035
36186W        W44986  17.657   3.901  31.283 -0.0071 -0.1982  0.2320
36187W        W44987  20.927   0.562  17.251  0.1801  0.1746  0.1090
36188W        W44988  25.032   7.504  29.069  0.2944 -0.0020 -0.0901
36189W        W44989  16.799   7.685  24.258 -0.0850  0.2239  0.0799
36190W        W44990  25.135   0.889  22.423  0.3444  0.0702 -0.3211
36191W        W44991  19.346   6.651  14.409  0.0088 -0.2287 -0.0960
36192W        W44992  20.961   3.249  24.004  0.0534 -0.1964 -0.0558
36193W        W44993  13.063   5.136  11.829 -0.0238 -0.6081  0.3521
36194W        W44994   7.552   3.169  18.423  0.0091  0.0627  0.2405
36195W        W44995  12.389   5.605   7.507  0.1881  0.4987 -0.0256
36196W        W44996  16.361   6.487   2.021  0.0856 -0.0060  0.0907
36197W        W44997   4.182   4.408  26.387 -0.3900 -0.1292 -0.3629
36198W        W44998  23.979   7.592  28.322 -0.2816 -0.0748 -0.3320
36199W        W44999  13.236   6.208  23.463 -0.1154  0.0945 -0.0279
36200W        W45000  24.746   4.688   9.760 -0.1105  0.0010 -0.0200
36201W        W45001  19.993   2.732  30.620 -0.0180  0.3220  0.0219
36202W        W45002  19.127   6.091  14.019  0.1719 -0.0707  0.0406
36203W        W45003  10.805   5.110  20.530  0.0218  0.0491  0.1219
36204W        W45004  24.744   7.093  29.311  0.1201  0.0833 -0.0187
36205W        W45005  17.460   6.332  31.679  0.2221 -0.2072  0.0469
36206W        W45006   4.079   7.173  16.942 -0.0198  0.1063  0.2077
36207W        W45007   4.971   5.530  28.625 -0.0992  0.4403 -0.1677
36208W        W45008  22.246   2.176   1.626 -0.1674 -0.0798 -0.0342
36209W        W45009  18.357   4.191   1.512  0.0889 -0.2828  0.1530
36210W        W45010   0.906   1.882  22.368  0.3487 -0.0667  0.2999
36211W        W45011  20.990   7.587   0.674 -0.2795  0.0848 -0.0348
36212W        W45012  14.511   5.728  29.544  0.0982  0.3435  0.3548
36213W        W45013  20.610   1.403  14.395 -0.1980  0.0754 -0.0544
36214W        W45014  18.890   7.607  10.410 -0.0829 -0.3915 -0.1899
36215W        W45015  15.578   3.677  16.449  0.3030 -0.1711 -0.1075
36216W        W45016  24.659   2.755  32.234  0.0630  0.0068  0.0775
36217W        W45017  11.544   0.206  19.188  0.0497 -0.1588 -0.0374
36218W        W45018  24.034   5.487  20.148  0.4326 -0.0797 -0.1092
36219W        W45019   0.735   2.656  12.078 -0.1197 -0.1186  0.1138
36220W        W45020   1.439   1.576  24.366 -0.0397 -0.4863  0.1011
36221W        W45021  21.016   1.129  27.531  0.0685  0.1992 -0.2278
36222W        W45022  13.115   6.682   1.635  0.0933 -0.3377 -0.1922
36223W        W45023   4.667   0.014  22.838 -0.1411 -0.1637  0.1991
36224W        W45024  10.369   3.159  29.232  0.1381  0.2524 -0.1805
36225W        W45025  23.757   4.806   8.579 -0.0342  0.2933 -0.0865
36226W        W45026  16.234   1.597  10.580 -0.2566 -0.0424  0.0543
36227W        W45027  13.171   7.104  28.350 -0.0539 -0.0579  0.0546
36228W        W45028  15.128   2.041  31.226 -0.1721  0.1429 -0.1992
36229W        W45029  10.936   5.400   3.627 -0.0545  0.4723 -0.4937
36230W        W45030  10.750   2.408  16.050  0.0573 -0.0019 -0.1830
36231W        W45031   8.536   5.506  26.516  0.1610  0.0102 -0.0326
36232W        W45032  23.256   3.642  26.897  0.3347  0.1615  0.0754
36233W        W45033  17.309   7.847  25.008 -0.0465 -0.2411  0.5966
36234W        W45034  21.059   6.510  16.169  0.3381  0.0105  0.1129
36235W        W45035  21.625   5.417  15.163  0.2890 -0.2281  0.0917
36236W        W45036   5.992   7.090  18.130 -0.1311 -0.0681 -0.0483
36237W        W45037   0.474   4.782  29.880  0.1428  0.1284 -0.1394
36238W        W45038   0.294   1.248  25.921  0.2256  0.0963  0.1229
36239W        W45039  18.436   1.349  13.725 -0.2238 -0.1265 -0.0964
36240W        W45040   0.911   3.426  19.203 -0.1850  0.0271  0.1193
36241W        W45041   3.685   0.947  21.680 -0.1521 -0.1637  0.0106
36242W        W45042  22.552   5.896   0.040  0.2493 -0.0064 -0.2706
36243W        W45043   2.026   3.772   0.063  0.1205 -0.2729 -0.1372
36244W        W45044  17.058   5.593  10.614  0.0855 -0.3867  0.0424
36245W        W45045  12.993   2.199   5.473 -0.2160  0.0570 -0.0887
36246W        W45046  17.562   5.359  26.840  0.2275 -0.2573 -0.0584
36247W        W45047  13.985   2.847   1.339  0.2478 -0.3243 -0.1066
36248W        W45048  18.169   0.407  13.926  0.1340  0.2429 -0.0485
36249W        W45049  18.603   1.923  29.972 -0.0572 -0.4184 -0.0381
36250W        W45050  13.753   0.503   2.999  0.1201  0.3240  0.0578
36251W        W45051  14.678   7.686  29.777  0.1783  0.0077 -0.2410
36252W        W45052   2.962   6.011  16.533 -0.2479 -0.0837  0.1311
36253W        W45053   7.751   0.032   5.452 -0.0421  0.1437  0.2235
36254W        W45054   6.818   5.347  23.351  0.1162 -0.0737  0.1003
36255W        W45055  10.585   4.574  21.081  0.3351 -0.0744  0.1562
36256W        W45056  19.985   4.227  30.328  0.1250  0.3035  0.0198
36257W        W45057  22.230   5.042  14.552 -0.1150 -0.0518 -0.0028
36258W        W45058   0.109   0.472   8.570 -0.1016  0.0359  0.2130
36259W        W45059   3.298   3.864  32.248 -0.0644 -0.0379  0.1134
36260W        W45060  17.607   0.233  14.687  0.2858  0.0199 -0.0735
36261W        W45061   9.778   1.478   3.175 -0.3656  0.2074 -0.1299
36262W        W45062   7.952   7.658   1.592 -0.2313 -0.1805 -0.1394
36263W        W45063   5.910   0.228   8.300 -0.0712 -0.1667  0.0903
36264W        W45064  22.854   1.367  32.425 -0.1522  0.2114 -0.1293
36265W        W45065  13.771   0.573   5.617 -0.0229 -0.0438  0.0225
36266W        W45066  17.972   0.819  11.624  0.0367  0.2842  0.1901
36267W        W45067   7.423   7.550   5.171  0.0604  0.0244 -0.3974
36268W        W45068   2.415   2.604  30.361 -0.4768  0.1428 -0.4964
36269W        W45069  17.579   7.079  17.708  0.0386  0.3296  0.1781
36270W        W45070   4.896   3.293   9.972  0.2156 -0.2132 -0.0792
36271W        W45071   8.062   7.612  16.804  0.2557  0.3910  0.1159
36272W        W45072   3.968   2.252  16.217 -0.1046  0.4271 -0.1507
36273W        W45073   9.908   5.452  18.844 -0.2390 -0.2340 -0.1977
36274W        W45074   8.261   5.759   5.598  0.0238 -0.0583 -0.0495
36275W        W45075  23.230   7.289  23.893 -0.3555  0.2807 -0.2549
36276W        W45076  10.267   3.155  17.953 -0.2240 -0.0539  0.1706
36277W        W45077   1.388   0.880  19.668  0.1247 -0.1407 -0.2889
36278W        W45078  24.323   1.741  23.588 -0.1967  0.2272 -0.1442
36279W        W45079   4.144   5.064  10.031  0.0821  0.1350 -0.1416
36280W        W45080   1.000   3.823  11.477  0.0103  0.0500  0.3516
36281W        W45081  18.809   7.254  22.242 -0.0975  0.2184 -0.1383
36282W        W45082  17.367   3.510  29.761  0.1429  0.1969 -0.1720
36283W        W45083   8.352   1.912   6.228  0.1243  0.0541 -0.0159
36284W        W45084  15.335   4.255   2.438 -0.1976  0.1236  0.0157
36285W        W45085  19.654   0.070  25.864  0.3398 -0.1595  0.1089
36286W        W45086   9.807   1.847  26.107 -0.1559 -0.1614  0.1314
36287W        W45087   7.253   5.787  22.739 -0.2444 -0.0609  0.0682
36288W        W45088   3.960   0.896   6.032  0.1526  0.0068 -0.2114
36289W        W45089  12.311   3.624  31.499  0.0117 -0.0658 -0.2499
36290W        W45090   4.407   4.019   1.373  0.1599  0.0534 -0.1125
36291W        W45091  24.725   6.189  29.468 -0.0545  0.1889  0.3212
36292W        W45092  16.833   6.673  25.666  0.0312 -0.3452 -0.2428
36293W        W45093  24.503   4.167  32.360  0.2210  0.0044 -0.1783
36294W        W45094   6.756   5.660   6.020 -0.1817 -0.0565 -0.0397
36295W        W45095  25.071   3.420   1.740  0.0584  0.1488  0.4083
36296W        W45096  10.200   1.715   8.220 -0.3107 -0.0549 -0.1925
36297W        W45097  20.679   0.807   8.726  0.0011  0.3601  0.0792
36298W        W45098   2.285   4.802  23.854 -0.0583 -0.1976  0.2605
36299W        W45099  21.878   3.319  29.723  0.4401  0.0932 -0.2789
36300W        W45100  16.436   4.920   9.823 -0.3639  0.0930 -0.1490
36301W        W45101  10.539   0.892   0.705 -0.1796  0.0849 -0.0040
36302W        W45102   8.756   6.736  26.537 -0.1028 -0.3655 -0.0543
36303W        W45103   3.829   6.221  10.517  0.0071  0.1459  0.1299
36304W        W45104  12.426   4.930   1.386  0.2223  0.1176 -0.0986
36305W        W45105   6.938   0.791  26.796 -0.0715  0.1604 -0.1836
36306W        W45106  24.881   4.229  21.956  0.2030  0.1268  0.0387
36307W        W45107   5.415   3.946   9.818 -0.1416  0.1598 -0.1717
36308W        W45108   5.402   6.889  28.165  0.1540 -0.1718 -0.2350
36309W        W45109  17.458   1.323  17.216  0.0636 -0.2483  0.1544
36310W        W45110  13.113   1.127  20.426 -0.0076 -0.2206  0.2939
36311W        W45111   7.976   1.798   3.236 -0.2904 -0.1785 -0.2323
36312W        W45112   2.152   4.058   8.352 -0.2267  0.1159  0.0339
36313W        W45113   8.244   0.564   3.456  0.1498 -0.1718 -0.0983
36314W        W45114   6.196   4.479   4.584  0.0169 -0.0905 -0.1359
36315W        W45115  15.446   2.868  24.169  0.0048 -0.0297  0.0632
36316W        W45116   4.501   7.107  27.492 -0.1035 -0.2238 -0.0433
36317W        W45117  18.523   4.585   1.236 -0.0070  0.1597  0.1069
36318W        W45118  21.810   6.100  31.411 -0.1847 -0.0231 -0.0874
36319W        W45119  14.928   5.957  12.141  0.1028 -0.1461 -0.1931
36320W        W45120  12.864   3.270  26.573  0.0533 -0.3520 -0.0110
36321W        W45121  15.101   3.215  11.786 -0.1998  0.0405 -0.0759
36322W        W45122  18.121   5.705  27.188 -0.0982 -0.2901  0.0915
36323W        W45123  14.028   4.485  29.132 -0.1500 -0.0051 -0.3153
36324W        W45124   2.216   2.809  22.417 -0.4131 -0.0036  0.3032
36325W        W45125   0.707   4.512  10.370  0.0047 -0.1374  0.1954
36326W        W45126   8.714   3.825   3.601  0.0098 -0.3118 -0.0043
36327W        W45127  21.138   2.407  15.962 -0.0347 -0.0371 -0.3677
36328W        W45128   4.436   2.513  26.901 -0.0382  0.3422  0.1077
36329W        W45129   6.603   1.478  29.010 -0.1956  0.2544  0.0391
36330W        W45130  17.128   6.586   7.470 -0.0621 -0.0989 -0.2604
36331W        W45131   3.015   2.350  19.676  0.1328  0.0255 -0.1055
36332W        W45132  22.712   2.933   2.033  0.1041  0.0158  0.0127
36333W        W45133  15.074   3.478   6.717 -0.3227 -0.2723  0.0497
36334W        W45134  14.988   6.540   9.301 -0.2063 -0.3560 -0.1198
36335W        W45135  21.763   5.766  23.830  0.2270  0.1638  0.0343
36336W        W45136  23.238   4.280   2.410 -0.2529  0.2151  0.0295
36337W        W45137  11.629   3.734  10.538  0.4678 -0.2485 -0.1857
36338W        W45138   4.390   6.858  23.727 -0.2222 -0.0171 -0.3433
36339W        W45139   7.058   0.150  15.544  0.3900 -0.0978 -0.1456
36340W        W45140  23.317   4.375  11.719  0.2871 -0.1656  0.2456
36341W        W45141  11.078   3.157   8.044 -0.2758 -0.0047  0.0093
36342W        W45142  19.573   2.568  12.830 -0.0192  0.1494 -0.1922
36343W        W45143  19.292   5.825   2.354  0.0276 -0.1429  0.2067
36344W        W45144   7.351   2.348  15.099  0.0199  0.0670 -0.0472
36345W        W45145  19.541   4.648  27.557  0.0099 -0.2791 -0.1067
36346W        W45146  11.848   5.759   5.372 -0.1934  0.1831  0.2076
36347W        W45147   0.172   2.690   1.266  0.0103 -0.0331 -0.0986
36348W        W45148   7.992   6.010  16.314 -0.1106  0.2464  0.0757
36349W        W45149  24.365   2.111   6.842 -0.1082 -0.1886 -0.0045
36350W        W45150  23.810   0.185   6.406 -0.0587  0.0321 -0.0375
36351W        W45151   7.284   0.891  15.116 -0.0045  0.0985  0.0411
36352W        W45152  16.340   5.100  16.013 -0.3653  0.0092  0.3843
36353W        W45153  17.298   0.043  31.972  0.0014  0.0387  0.2396
36354W        W45154  10.489   2.233  17.197  0.1299  0.2900  0.0641
36355W        W45155  11.922   0.239  27.824  0.3564 -0.0494 -0.1526
36356W        W45156  13.873   2.201   4.519 -0.0130  0.1513 -0.1205
36357W        W45157   2.439   1.136   3.067 -0.1366  0.0161  0.2135
36358W        W45158   8.195   3.395  26.810 -0.0861  0.0060 -0.1505
36359W        W45159  21.347   3.824  29.386  0.0065  0.1955 -0.3768
36360W        W45160  17.346   4.326  17.771 -0.0042  0.1282  0.0388
36361W        W45161  18.486   6.210  30.767  0.1019  0.0166 -0.0068
36362W        W45162  23.908   0.151   4.769  0.0485  0.3326 -0.0981
36363W        W45163   3.789   1.319  10.339  0.1233  0.2568 -0.1304
36364W        W45164  22.604   3.003  29.620 -0.3776 -0.1681  0.0297
36365W        W45165  15.122   3.868   4.071 -0.0218  0.0152 -0.0293
36366W        W45166  17.019   0.419  22.679 -0.1611  0.2387  0.2015
36367W        W45167  16.080   1.899  28.817 -0.1886  0.1272  0.0366
36368W        W45168   7.673   1.688  17.899 -0.0413  0.2021  0.2331
36369W        W45169   0.425   3.585   8.497 -0.0368  0.0965  0.0789
36370W        W45170   0.296   0.152  31.016  0.1545  0.0372  0.1928
36371W        W45171   4.626   0.862   8.729 -0.1037  0.0660  0.0324
36372W        W45172   6.326   3.098  27.729 -0.0900  0.0715  0.0591
36373W        W45173  16.099   6.550  30.430 -0.1967 -0.1652  0.1218
36374W        W45174   0.171   2.675   5.293 -0.1103 -0.0625  0.1070
36375W        W45175  11.226   0.338  18.444  0.0204 -0.4278 -0.1879
36376W        W45176  24.069   3.039  27.608  0.1395  0.0528 -0.1628
36377W        W45177  14.537   0.860   7.398 -0.0072 -0.0006 -0.1926
36378W        W45178   2.679   0.555   1.135 -0.0389  0.0354 -0.1054
36379W        W45179  18.335   5.455  10.163 -0.1803  0.3748 -0.1759
36380W        W45180  13.356   7.210   4.346 -0.1535  0.1609 -0.0018
36381W        W45181  12.816   5.816  26.945 -0.3070 -0.1420 -0.2027
36382W        W45182  23.677   5.580   2.090 -0.0605 -0.2335 -0.3424
36383W        W45183  24.774   0.190   1.770  0.5205 -0.0662 -0.4156
36384W        W45184  24.150   1.322  24.334 -0.0395  0.0230  0.0746
36385W        W45185  16.374   2.078  30.409  0.1210 -0.2404  0.2133
36386W        W45186   8.911   4.876  10.212  0.0309  0.1064 -0.2163
36387W        W45187  22.332   7.015  12.661 -0.0176 -0.4566 -0.0028
36388W        W45188  18.241   3.809  14.432 -0.1063 -0.2288  0.0431
36389W        W45189  21.949   6.174  27.804 -0.3221  0.3983  0.0130
36390W        W45190   5.297   2.812   4.607  0.2228  0.0771 -0.1908
36391W        W45191   7.522   4.474   6.442 -0.0216  0.1750  0.0362
36392W        W45192   0.851   5.554   5.837 -0.2141  0.0897  0.0081
36393W        W45193   8.563   5.655  24.352 -0.0078 -0.0231  0.0815
36394W        W45194   9.950   1.382   5.318 -0.2403 -0.0285  0.0722
36395W        W45195  24.418   5.539  28.765  0.2839  0.1152  0.0833
36396W        W45196  23.025   1.558  14.956  0.0944 -0.3648  0.1113
36397W        W45197  12.773   3.329   6.290  0.1328  0.4980 -0.3127
36398W        W45198  17.146   3.544   5.902  0.0146  0.0256 -0.0213
36399W        W45199  10.615   2.835   6.872  0.1867 -0.1874 -0.0511
36400W        W45200  17.905   4.778  29.434  0.0366 -0.2618  0.0018
36401W        W45201   9.521   5.072  28.383  0.0647 -0.0142  0.0615
36402W        W45202  21.875   2.665  31.208 -0.2071  0.1081 -0.0977
36403W        W45203  12.411   6.005   6.701  0.0091 -0.1568 -0.0748
36404W        W45204   7.650   6.735  19.345  0.0297  0.4331 -0.1917
36405W        W45205  22.289   3.292  29.984 -0.1490 -0.1759 -0.1218
36406W        W45206  11.486   6.742   6.469 -0.2372  0.1192  0.1784
36407W        W45207  18.244   3.724  23.996  0.2549 -0.1807 -0.1844
36408W        W45208  16.905   1.012  11.604  0.0782  0.2647  0.0781
36409W        W45209  14.296   0.817  10.686  0.0319  0.2093  0.1323
36410W        W45210  14.447   7.666   1.265 -0.3893  0.3257  0.1288
36411W        W45211   9.813   3.531   9.666 -0.2376  0.2385  0.1924
36412W        W45212  15.986   4.221  11.699  0.1492  0.0282  0.1286
36413W        W45213  21.613   2.957   7.302  0.0187  0.0814 -0.2913
36414W        W45214  20.389   6.112  17.516 -0.0705  0.0463 -0.2563
36415W        W45215  13.855   4.561  14.307  0.4182  0.1921 -0.0505
36416W        W45216   9.982   0.204   5.340  0.0809 -0.0304  0.0370
36417W        W45217   9.545   4.021  18.562 -0.0929 -0.0610 -0.3679
36418W        W45218   5.963   5.194  17.394  0.0025  0.0255  0.3196
36419W        W45219   8.540   7.246  22.404  0.1756  0.2644  0.0140
36420W        W45220   7.136   4.017  26.565  0.0723  0.0260 -0.1501
36421W        W45221  22.868   1.467   1.827 -0.3272 -0.0336  0.0253
36422W        W45222  24.071   1.151   0.152  0.2541  0.1194 -0.2578
36423W        W45223   6.133   2.833  14.801  0.3535 -0.3176 -0.3854
36424W        W45224   4.107   2.841  19.537 -0.2736  0.0624 -0.2166
36425W        W45225   6.148   0.590   1.626 -0.0187  0.0933 -0.2275
36426W        W45226  18.559   1.880  26.315 -0.1835 -0.2676 -0.1657
36427W        W45227  20.695   7.508  11.144 -0.0534  0.1801  0.1899
36428W        W45228   3.863   6.505  19.798  0.2412  0.0573 -0.1511
36429W        W45229  11.021   3.209   9.601  0.0054  0.0174 -0.2130
36430W        W45230  16.388   7.076   8.648 -0.1012  0.0251  0.0211
36431W        W45231   0.902   5.709  27.722 -0.2947  0.0008  0.0811
36432W        W45232   9.138   5.597  25.810 -0.1694  0.0616  0.2555
36433W        W45233  23.204   1.003   2.856 -0.1684  0.1495  0.0583
36434W        W45234   4.840   5.778   3.241  0.0852  0.0139  0.2072
36435W        W45235   2.675   2.240  31.269  0.0131 -0.1050  0.0527
36436W        W45236  13.601   6.586   1.531  0.1563  0.0505 -0.0219
36437W        W45237  20.225   4.570   4.664  0.0013 -0.0041 -0.1705
36438W        W45238  16.731   1.659  14.667 -0.0993 -0.2338 -0.2008
36439W        W45239   7.614   0.281  28.820  0.1236  0.1740  0.0604
36440W        W45240  13.200   4.305  23.359 -0.2505  0.2011  0.1967
36441W        W45241   8.742   2.791   6.247  0.2256 -0.0929 -0.2485
36442W        W45242  19.383   3.238   1.660  0.2119 -0.1619 -0.2386
36443W        W45243   0.014   0.263  12.683  0.1976 -0.1649 -0.0832
36444W        W45244  20.844   0.366   4.796  0.1157 -0.0055 -0.2016
36445W        W45245  10.640   3.920   8.762 -0.1814 -0.4658  0.3295
36446W        W45246   0.580   7.189   9.738  0.2550  0.0238 -0.1398
36447W        W45247   2.217   2.409   4.030 -0.2078 -0.0009 -0.0732
36448W        W45248  17.449   0.644   4.983 -0.3145  0.1093  0.0282
36449W        W45249   4.467   3.015   3.338  0.0613  0.0165  0.1716
36450W        W45250   0.827   6.581   5.869  0.1554  0.4720  0.2543
36451W        W45251   5.526   1.024   6.287 -0.4038 -0.0854 -0.2200
36452W        W45252  17.886   6.565  16.531  0.0192 -0.0582 -0.1153
36453W        W45253   1.734   5.013   2.831  0.1878  0.0464 -0.1031
36454W        W45254  14.308   7.549  10.720 -0.0531 -0.0495 -0.0056
36455W        W45255  14.850   6.346  13.654 -0.0059 -0.1263  0.1625
36456W        W45256   2.730   5.894  27.598 -0.2148 -0.0830 -0.3349
36457W        W45257  20.758   5.572   5.573  0.2123  0.2919 -0.1297
36458W        W45258   4.237   5.367   5.017  0.0707 -0.2368  0.0075
36459W        W45259   4.676   2.998  29.522 -0.0476  0.0337 -0.2173
36460W        W45260  12.520   2.928  32.047  0.2295 -0.2041  0.2995
36461W        W45261   2.314   3.907   7.273  0.0167  0.1084 -0.1513
36462W        W45262  15.823   4.484  27.856  0.2205  0.0968 -0.0791
36463W        W45263  15.001   1.325  26.818 -0.2683  0.3850  0.0046
36464W        W45264   0.361   5.248  23.095 -0.1675  0.0457  0.0443
36465W        W45265  13.760   2.364   8.195  0.0442 -0.3078 -0.3135
36466W        W45266  14.337   6.160  24.687  0.0890  0.0724  0.0092
36467W        W45267   1.066   1.152   2.496 -0.1278  0.0945  0.0793
36468W        W45268   8.005   5.497  22.669 -0.2394  0.1360 -0.1305
36469W        W45269  13.962   4.818   9.182 -0.1571  0.0869  0.1236
36470W        W45270  12.268   7.847  27.479  0.1373  0.4260 -0.3136
36471W        W45271   0.841   2.135   9.004  0.0886 -0.0545  0.0581
36472W        W45272   3.561   2.339   0.037 -0.2200 -0.1392  0.0505
36473W        W45273   7.593   1.594  24.364  0.1754  0.2842  0.0444
36474W        W45274   4.326   6.166   9.238  0.0833  0.2770 -0.0316
36475W        W45275  11.040   6.709  22.524  0.0244 -0.0636 -0.1758
36476W        W45276   8.563   3.304  18.217  0.1838 -0.0440  0.1768
36477W        W45277   3.446   5.277   3.342  0.3076  0.1970 -0.0124
36478W        W45278   2.104   3.910  10.728 -0.2179 -0.0184 -0.0898
36479W        W45279  17.319   4.531  14.962 -0.0992  0.0723 -0.0476
36480W        W45280  18.381   0.719  25.038  0.3345  0.2190 -0.0557
36481W        W45281  11.220   5.329  25.079 -0.0590 -0.1861  0.3104
36482W        W45282  20.277   3.108  11.655 -0.0107  0.2351 -0.0767
36483W        W45283   5.238   3.152  25.994 -0.2074 -0.0934 -0.1226
36484W        W45284  15.492   0.700  31.466 -0.1514  0.1097 -0.1622
36485W        W45285  14.714   5.544  23.074 -0.0761 -0.1637  0.1399
36486W        W45286   3.819   1.194  27.345  0.0185  0.0959  0.1410
36487W        W45287  20.777   6.265  11.010 -0.0010  0.1724 -0.1491
36488W        W45288  15.615   2.371  14.400  0.3181 -0.2104 -0.2210
36489W        W45289  22.186   0.560  12.245 -0.2263  0.1518  0.2001
36490W        W45290  10.278   0.813  32.245  0.0532 -0.1518  0.0497
36491W        W45291   0.889   1.071   7.416 -0.0849  0.1905 -0.0550
36492W        W45292  20.706   2.249  28.960 -0.0235  0.1562  0.1332
36493W        W45293   0.330   2.260  19.471 -0.0595 -0.1923  0.2346
36494W        W45294  21.231   6.862  22.952  0.0072 -0.0545 -0.2970
36495W        W45295  10.765   7.530  30.442  0.2505  0.4455 -0.0005
36496W        W45296   5.020   2.941   2.074 -0.1502  0.0877 -0.0374
36497W        W45297  23.151   1.511  12.127  0.3555  0.1087 -0.0646
36498W        W45298  21.331   7.128  28.340  0.1111  0.1413  0.1601
36499W        W45299   5.005   2.539   5.850 -0.2246  0.2771 -0.0761
36500W        W45300  20.144   3.993   9.479 -0.4373  0.0681 -0.1125
36501W        W45301  20.004   5.922   2.112  0.0746 -0.1180 -0.2691
36502W        W45302   0.656   0.344   2.981 -0.0989 -0.1936 -0.2755
36503W        W45303  17.773   5.214  24.203 -0.1026 -0.1313 -0.0300
36504W        W45304   9.018   2.252  18.606 -0.2471 -0.3146  0.2289
36505W        W45305  13.962   6.448   0.239  0.1436  0.1693  0.1717
36506W        W45306  21.180   3.769  23.767 -0.1089  0.0383  0.1032
36507W        W45307   9.111   3.388  31.854  0.0290 -0.1120 -0.0785
36508W        W45308   7.713   3.506  31.744 -0.1069 -0.0030 -0.1710
36509W        W45309  13.124   1.664  23.991 -0.0160 -0.1893  0.3583
36510W        W45310  24.119   7.402   5.440  0.1074  0.0851 -0.0895
36511W        W45311  10.647   7.155   9.188 -0.1995 -0.0357 -0.1854
36512W        W45312   6.968   6.794  15.915  0.0075  0.3109 -0.0625
36513W        W45313  16.280   4.028  11.352  0.4262 -0.0026 -0.1910
36514W        W45314  11.649   4.287   4.911  0.1865  0.0565  0.0198
36515W        W45315  23.054   6.893   9.327  0.0473 -0.1633  0.0357
36516W        W45316  14.733   6.354  22.649 -0.2672 -0.1551 -0.1120
36517W        W45317  19.979   3.821   1.452 -0.0174  0.1671  0.0570
36518W        W45318  12.207   3.976  12.220  0.1392  0.1421 -0.1196
36519W        W45319  16.930   6.534  14.348 -0.2676 -0.2604  0.2975
36520W        W45320  11.286   2.582  10.142 -0.0415 -0.1300  0.1546
36521W        W45321   0.755   1.915  19.547  0.0737 -0.0038  0.1086
36522W        W45322   3.344   2.318  28.848 -0.2946 -0.1699  0.0671
36523W        W45323  23.280   3.066   5.628 -0.1286  0.2090 -0.3090
36524W        W45324  11.404   5.805  20.251  0.3856 -0.3561 -0.1035
36525W        W45325   1.398   4.758  12.155 -0.2699 -0.2796 -0.2155
36526W        W45326  12.299   2.428   1.789  0.1514  0.2300 -0.2223
36527W        W45327   5.061   2.901  21.210  0.0133 -0.0572  0.1087
36528W        W45328   7.667   2.732  14.785  0.1758  0.1578 -0.0627
36529W        W45329  20.857   4.620  27.600 -0.0206 -0.0086 -0.1795
36530W        W45330  19.820   4.982  16.183 -0.1253 -0.0767  0.1698
36531W        W45331   1.339   3.086   4.777 -0.1656  0.1607 -0.0387
36532W        W45332  22.183   7.821   9.904 -0.0793 -0.0492 -0.1496
36533W        W45333   8.568   3.318   6.366  0.0394  0.4448 -0.1340
36534W        W45334  12.340   5.005   5.778  0.0588 -0.1206  0.0024
36535W        W45335   7.880   6.759   5.546  0.3156  0.0455 -0.1124
36536W        W45336   2.726   4.062  17.420 -0.0903  0.0312 -0.0818
36537W        W45337   3.794   2.274   7.530 -0.0958 -0.0091  0.0418
36538W        W45338  10.601   3.840   6.828  0.0374 -0.0491  0.0064
36539W        W45339  22.246   3.000   9.663  0.2389  0.1220 -0.1581
36540W        W45340   0.287   7.553  30.819  0.2638  0.0952 -0.0465
36541W        W45341   1.239   5.287  27.791  0.0164  0.0575  0.3157
36542W        W45342   4.194   4.430   8.916  0.0146  0.1046  0.1737
36543W        W45343   3.631   1.438   8.230 -0.1352 -0.2451 -0.0550
36544W        W45344   7.567   4.907  16.941  0.0274 -0.3540 -0.2636
36545W        W45345  23.380   2.909   2.899  0.3114 -0.1065 -0.1674
36546W        W45346  15.189   2.910  32.278 -0.1201  0.3344 -0.0233
36547W        W45347   7.241   6.602   0.841 -0.2399  0.1220 -0.1749
36548W        W45348  18.324   3.231  10.193  0.0085 -0.0422  0.3522
36549W        W45349   9.460   7.025  30.140  0.0355  0.1464  0.0951
36550W        W45350   9.544   5.155   8.234 -0.2080  0.1965  0.2924
36551W        W45351  13.514   0.729  12.574 -0.1482 -0.0035 -0.2935
36552W        W45352  13.368   2.517   4.222  0.2186  0.1333 -0.0710
36553W        W45353  22.067   6.858   3.413  0.4288  0.0130 -0.0400
36554W        W45354  22.598   0.927   0.563  0.0670  0.1428  0.1391
36555W        W45355   5.882   0.322   3.956  0.0550 -0.0098 -0.0598
36556W        W45356  19.280   0.736  31.390  0.1485 -0.1269 -0.2513
36557W        W45357   4.514   0.702  24.752  0.1896  0.2622 -0.0978
36558W        W45358   7.341   6.532   7.528  0.1266 -0.0440  0.3156
36559W        W45359  18.591   7.775   0.608 -0.3283  0.1483  0.2008
36560W        W45360  13.502   2.896  31.740  0.0184 -0.0652 -0.1798
36561W        W45361   9.881   7.474  22.616  0.1207 -0.0455  0.1214
36562W        W45362   4.357   4.700   5.584  0.0965  0.2387 -0.2071
36563W        W45363  17.367   5.640   4.334 -0.1378  0.1161  0.1493
36564W        W45364   0.719   6.238  12.846 -0.1175 -0.0044  0.0628
36565W        W45365   4.156   0.439  17.905  0.1010  0.0150 -0.2752
36566W        W45366  19.411   0.810  12.084 -0.1662  0.2432  0.2654
36567W        W45367   7.634   5.777  19.126 -0.0664 -0.3164 -0.0355
36568W        W45368  18.213   6.311  13.286  0.0557  0.1267  0.1428
36569W        W45369   0.726   2.953  10.744  0.2622 -0.0554 -0.1511
36570W        W45370   8.060   5.507   2.227 -0.2866 -0.0791 -0.1263
36571W        W45371  17.886   5.303  12.712  0.0782  0.0484  0.1329
36572W        W45372   9.758   6.622  21.177 -0.0639 -0.0281  0.1907
36573W        W45373  13.932   2.586   7.798 -0.0798 -0.0320 -0.0479
36574W        W45374  15.581   6.258  23.337 -0.0497  0.1218  0.1150
36575W        W45375   9.009   4.035  15.493  0.4331 -0.2425  0.0822
36576W        W45376  13.216   4.201  12.194 -0.2613  0.1192  0.0850
36577W        W45377  18.443   0.365  15.390  0.1840 -0.1807 -0.0362
36578W        W45378   7.736   2.488  25.628 -0.0651  0.0607  0.0688
36579W        W45379  23.382   0.116  27.840 -0.3194  0.1034  0.1549
36580W        W45380  12.384   7.541   7.275 -0.1562  0.0454 -0.0250
36581W        W45381  14.037   3.884   1.229 -0.0018 -0.4307 -0.0040
36582W        W45382  10.034   0.980  21.389 -0.0372 -0.1060 -0.0392
36583W        W45383   9.737   6.101  22.118 -0.0588  0.0623 -0.2716
36584W        W45384   0.070   0.021   8.890  0.1463 -0.0310 -0.1645
36585W        W45385   6.416   5.876   3.701  0.0108  0.0663  0.0251
36586W        W45386  16.445   3.295  10.261 -0.2243 -0.2161  0.1522
36587W        W45387  24.554   0.501   5.738  0.3909 -0.3574 -0.0296
36588W        W45388   4.812   1.673  21.497  0.0219 -0.2329 -0.0112
36589W        W45389  19.215   1.607   8.060  0.3943 -0.2615 -0.0000
36590W        W45390  17.258   0.199   5.071  0.0793  0.0072  0.1316
36591W        W45391   8.226   6.566  28.313 -0.0896 -0.1069  0.0461
36592W        W45392   8.613   2.246  21.491  0.1405  0.1322 -0.2381
36593W        W45393  11.242   0.179  26.561  0.0066  0.1195 -0.1343
36594W        W45394   4.859   6.239   4.497 -0.0516  0.1750 -0.2620
36595W        W45395  16.191   7.477  27.778 -0.0877 -0.0316 -0.0162
36596W        W45396  16.755   1.887   0.988  0.2905  0.2547 -0.0906
36597W        W45397  20.398   7.791  25.482  0.0188  0.0229 -0.2898
36598W        W45398   3.151   2.752   3.688 -0.2023  0.0262 -0.4060
36599W        W45399  10.508   5.887   7.707  0.1880  0.0630  0.0260
36600W        W45400   6.977   5.867  29.332  0.0344 -0.0755  0.0719
36601W        W45401   6.769   2.184   5.266 -0.0622  0.0615  0.0455
36602W        W45402   4.131   0.001  15.619  0.2060  0.0204 -0.0813
36603W        W45403  15.192   6.999  30.380  0.1826 -0.3142  0.0334
36604W        W45404  10.878   5.652  31.138  0.0009 -0.1948 -0.1626
36605W        W45405  18.390   1.831  15.754  0.0506  0.1739  0.2001
36606W        W45406  12.246   4.925   8.118  0.0278  0.0703  0.2324
36607W        W45407   3.971   1.003   0.109  0.1366  0.0656 -0.0942
36608W        W45408   0.512   4.230   7.785  0.0275 -0.1567 -0.1291
36609W        W45409   9.585   1.453  32.432 -0.1180 -0.1766  0.0184
36610W        W45410   5.464   4.746  29.886  0.0704 -0.0253 -0.0417
36611W        W45411  19.185   3.092  27.420 -0.0488  0.0214  0.0821
36612W        W45412   7.611   2.620   6.327  0.1726 -0.0247  0.3851
36613W        W45413  17.817   4.334   1.756  0.1823 -0.1095  0.2976
36614W        W45414   6.694   3.304  23.977  0.1382 -0.0904 -0.2648
36615W        W45415   6.947   6.489  16.383  0.0983 -0.1582  0.1423
36616W        W45416   6.268   7.148   2.135 -0.1616  0.2838 -0.0723
36617W        W45417  14.645   4.087   0.792  0.0006 -0.0893  0.2699
36618W        W45418  17.806   4.917  31.402 -0.0298  0.0800  0.0998
36619W        W45419  13.172   6.886  25.425 -0.0645  0.2545 -0.0555
36620W        W45420  25.147   2.334   7.457  0.1264 -0.2512  0.1403
36621W        W45421   8.254   0.955  23.240  0.1409 -0.0737  0.0473
36622W        W45422   4.721   4.886   2.873 -0.1686 -0.1691  0.0598
36623W        W45423   4.658   1.245  20.195  0.1713 -0.0395  0.1885
36624W        W45424  12.793   2.385  19.040 -0.0326  0.0073  0.1752
36625W        W45425  20.892   6.449   8.036  0.0604 -0.0287 -0.1624
36626W        W45426   7.062   6.757  14.647  0.0213 -0.1037 -0.2340
36627W        W45427  18.703   6.634  26.362 -0.1026 -0.1069 -0.3002
36628W        W45428  17.413   1.653   5.778 -0.1465  0.1171 -0.1636
36629W        W45429  16.101   3.424  11.213 -0.0180 -0.1878 -0.1129
36630W        W45430  11.085   0.573  11.835 -0.2749 -0.1446 -0.0979
36631W        W45431  14.048   6.747  12.943  0.0225 -0.1105 -0.0370
36632W        W45432   7.297   0.528   3.727  0.1019  0.0509  0.3397
36633W        W45433   6.549   6.170  20.246  0.3406  0.3815  0.2211
36634W        W45434  23.578   6.555  30.251  0.4535 -0.0155 -0.0826
36635W        W45435  22.717   0.347   6.714 -0.0790  0.2714  0.0308
36636W        W45436  23.953   2.427  27.300  0.2816 -0.2031 -0.0947
36637W        W45437  10.426   5.319   8.494  0.0730  0.0179  0.1496
36638W        W45438  10.594   7.393   0.745  0.0449  0.0479 -0.0725
36639W        W45439   1.482   2.169   0.072  0.1086  0.1011 -0.2560
36640W        W45440   7.491   4.358   7.278  0.0406 -0.2707  0.2483
36641W        W45441  18.367   5.387   6.497 -0.0175 -0.3488 -0.2736
36642W        W45442   0.666   2.545  27.380 -0.1071 -0.2866 -0.0864
36643W        W45443  15.711   1.942  24.688  0.0101 -0.0208 -0.1823
36644W        W45444   9.541   5.055  21.595 -0.0124  0.2974 -0.1588
36645W        W45445   8.236   6.332  19.131 -0.2354  0.2105 -0.1064
36646W        W45446  11.944   0.344   4.179  0.0106  0.0718  0.1213
36647W        W45447   4.652   1.508  32.164 -0.3728 -0.2200  0.0516
36648W        W45448  12.184   5.087  31.950 -0.0976  0.0027  0.0761
36649W        W45449  12.146   1.930   6.402  0.0439  0.1944  0.1052
36650W        W45450   3.297   4.706  29.527  0.0573 -0.1085  0.3596
36651W        W45451  20.049   2.564   3.196  0.0074 -0.0156  0.1982
36652W        W45452  24.882   5.821  30.271 -0.2905 -0.0328  0.0457
36653W        W45453  23.491   4.615  12.599 -0.0235 -0.1732 -0.1380
36654W        W45454  19.775   4.903  29.743 -0.1226 -0.4721 -0.1336
36655W        W45455  23.190   6.433  27.608 -0.1563  0.1534  0.1111
36656W        W45456   9.713   2.303  25.882 -0.0092  0.0614 -0.0988
36657W        W45457  17.930   3.449   7.895 -0.1543 -0.2452 -0.0946
36658W        W45458  16.909   4.599  12.826  0.0666  0.1057  0.0932
36659W        W45459  20.426   2.969  10.501  0.3991  0.2084  0.0580
36660W        W45460   9.859   7.695  27.508 -0.0716 -0.1072  0.1064
36661W        W45461   4.739   4.058   4.844 -0.1376 -0.0768  0.2174
36662W        W45462  19.510   7.835  14.843  0.1127  0.2044 -0.1477
36663W        W45463  16.940   2.178   5.921  0.2769 -0.0997  0.2980
36664W        W45464  24.141   5.028   8.326  0.0476 -0.1232  0.0916
36665W        W45465  16.922   1.846  31.799 -0.2092  0.0238  0.0193
36666W        W45466  16.096   4.977  27.095 -0.0994  0.0496 -0.3006
36667W        W45467  12.814   0.145  26.915  0.0694  0.0794  0.1116
36668W        W45468  24.439   4.727  32.451  0.1081  0.2130  0.3800
36669W        W45469   2.834   5.333   0.902 -0.1220  0.0755 -0.1066
36670W        W45470   3.983   1.747   5.020  0.3412  0.1261  0.2657
36671W        W45471  23.388   6.828  21.581  0.0524  0.2630  0.1001
36672W        W45472   1.990   3.290  20.035 -0.3448  0.3198  0.0755
36673W        W45473   9.384   1.982   9.660  0.1864  0.2225 -0.5398
36674W        W45474   2.924   7.733   9.914  0.5002 -0.2337  0.0007
36675W        W45475  10.388   3.565   7.933  0.2108  0.1435 -0.1189
36676W        W45476  13.528   1.400   5.389  0.1339 -0.0668 -0.0102
36677W        W45477  13.396   1.312   1.324 -0.1152 -0.0407 -0.0331
36678W        W45478   2.124   0.331  22.908 -0.1276 -0.0634  0.1092
36679W        W45479  14.335   5.746   9.400 -0.0896 -0.1006  0.3300
36680W        W45480  13.495   5.012   8.353 -0.1522  0.2575 -0.0814
36681W        W45481   2.859   6.252   4.277  0.2424 -0.2607  0.4010
36682W        W45482   5.887   5.194  18.459  0.0708  0.3005  0.1904
36683W        W45483  10.642   0.971   8.185  0.0244 -0.0739  0.4352
36684W        W45484  20.416   7.360  23.011 -0.0941  0.2783 -0.1641
36685W        W45485   1.155   5.719   4.482 -0.0747  0.0210  0.0299
36686W        W45486  15.797   7.096  24.771  0.1327  0.2486 -0.0914
36687W        W45487  16.932   1.981  13.692  0.0030  0.0079 -0.1190
36688W        W45488  25.152   2.444   1.827  0.5560  0.2167 -0.0571
36689W        W45489  19.118   3.512  13.177 -0.1661  0.1666 -0.1860
36690W        W45490  15.789   5.725  12.613 -0.1574  0.0767 -0.0229
36691W        W45491   5.403   6.807  16.662 -0.2087 -0.2159 -0.0695
36692W        W45492   8.450   3.635  20.419 -0.1138 -0.1240 -0.3554
36693W        W45493  17.271   0.081  28.533  0.0228 -0.1232 -0.1361
36694W        W45494  12.542   3.641  23.101 -0.2702  0.1320 -0.1916
36695W        W45495  16.443   5.071  27.516  0.2149  0.2374  0.2057
36696W        W45496  10.986   1.122   7.727 -0.1207  0.1189 -0.1272
36697W        W45497   8.109   5.182   8.102 -0.0109 -0.2631 -0.1478
36698W        W45498  18.737   3.041   8.864  0.1863 -0.1049 -0.0009
36699W        W45499  18.788   5.069  23.532  0.0553  0.0244 -0.2715
36700W        W45500  11.145   2.031   6.665  0.3414  0.1753 -0.1042
36701W        W45501   9.406   5.354   1.551  0.5885  0.0663 -0.1233
36702W        W45502  19.724   3.670  10.178 -0.0552  0.1637  0.1180
36703W        W45503   4.019   2.452  19.894  0.0415 -0.1070 -0.0980
36704W        W45504   6.522   3.031  14.359 -0.1755 -0.3414  0.0877
36705W        W45505  21.614   4.722  27.925  0.0795  0.0409  0.0734
36706W        W45506   5.821   0.368  13.832  0.2741 -0.0768 -0.1641
36707W        W45507  14.533   0.395  25.485  0.0559 -0.1871 -0.0941
36708W        W45508   3.705   0.072  11.110 -0.1694 -0.2728 -0.0214
36709W        W45509   5.293   4.663  24.033 -0.1579 -0.1172  0.1323
36710W        W45510   2.741   4.260  17.879 -0.2881 -0.0678  0.0737
36711W        W45511   7.741   1.704  21.571  0.0636  0.1399  0.0308
36712W        W45512   2.862   7.008  17.470 -0.1724  0.3010 -0.0244
36713W        W45513  20.796   2.424  28.052  0.1505 -0.0540  0.1845
36714W        W45514  20.286   2.693   8.797  0.2644 -0.2110  0.1296
36715W        W45515   3.197   7.075  18.402 -0.0549  0.2700  0.2470
36716W        W45516  16.693   1.572  26.436  0.0294 -0.0643 -0.2740
36717W        W45517  19.237   5.083  25.211  0.2461 -0.0348  0.2522
36718W        W45518  17.192   5.879  13.937  0.2381  0.0031  0.0838
36719W        W45519  11.657   4.631  26.341  0.0283  0.0795 -0.0229
36720W        W45520  16.773   7.841   1.956 -0.0569 -0.0058 -0.2201
36721W        W45521  16.139   1.416   5.113 -0.1557  0.1270 -0.0236
36722W        W45522   4.318   6.217  15.421  0.2875  0.1529  0.0934
36723W        W45523  14.712   7.122  30.349  0.1586  0.2592 -0.0938
36724W        W45524  17.978   0.299  11.451  0.0960 -0.1957 -0.1121
36725W        W45525   9.631   1.604   2.657  0.6480 -0.2039 -0.1152
36726W        W45526  23.000   0.352  15.644 -0.0895  0.2042 -0.2766
36727W        W45527   0.101   1.080   1.806  0.0360  0.0218  0.1420
36728W        W45528  14.186   6.341  22.800 -0.0158  0.1742  0.2825
36729W        W45529   6.549   1.098   7.456 -0.4191  0.2030  0.0648
36730W        W45530   9.325   4.172   9.999  0.0869  0.2015  0.2349
36731W        W45531   5.534   2.598   2.039 -0.1216  0.0902 -0.0211
36732W        W45532   6.535   0.069  23.206 -0.2139  0.0950  0.2040
36733W        W45533  20.096   7.713   0.794  0.0480 -0.0616  0.0314
36734W        W45534  17.662   2.350  25.422  0.1655 -0.3352 -0.0718
36735W        W45535  18.363   2.129  24.868  0.0021 -0.2491  0.2467
36736W        W45536  12.229   7.157  23.136 -0.5756 -0.0097  0.1810
36737W        W45537  17.593   4.410  23.365 -0.4192  0.1575 -0.1242
36738W        W45538   3.415   5.579  23.113  0.0475  0.1301  0.0781
36739W        W45539   6.589   5.888  31.574  0.2329 -0.4052  0.2085
36740W        W45540   1.003   1.370  20.457 -0.1525 -0.1127  0.0570
36741W        W45541  18.857   7.608   2.566 -0.0456 -0.3399 -0.1910
36742W        W45542  10.732   5.813  27.828 -0.2536  0.0725 -0.5541
36743W        W45543  15.201   6.034  10.132  0.0979 -0.2792 -0.1011
36744W        W45544   8.134   6.959  31.112  0.0167  0.0525  0.0740
36745W        W45545  11.015   4.211  26.543 -0.1448 -0.3691 -0.0645
36746W        W45546  22.565   6.142  12.941 -0.3057  0.4499 -0.3614
36747W        W45547   1.867   5.363   3.673  0.1499 -0.1605 -0.1145
36748W        W45548   6.988   7.133   1.481 -0.2200  0.1551 -0.1848
36749W        W45549   8.419   2.697   5.665  0.3013  0.1129 -0.0649
36750W        W45550  15.876   5.962   1.133  0.1596  0.1005  0.0189
36751W        W45551  17.476   0.400  26.470 -0.3534  0.0416  0.1931
36752W        W45552  16.713   2.529  22.378  0.0424 -0.1805  0.0382
36753W        W45553   9.089   7.728   2.883  0.1933  0.1257 -0.4291
36754W        W45554   3.536   2.029  25.249  0.0490  0.2389  0.2484
36755W        W45555  20.004   4.941  12.349 -0.2361  0.3377 -0.0183
36756W        W45556   5.968   2.217  30.337 -0.0074 -0.0449 -0.1115
36757W        W45557  13.388   1.249   5.864  0.0654  0.2748  0.3447
36758W        W45558  19.889   1.263  14.774  0.3265  0.2886 -0.0908
36759W        W45559  24.835   6.164   5.870 -0.0915  0.0489 -0.0566
36760W        W45560  13.317   2.774  26.510  0.0055 -0.1690 -0.2297
36761W        W45561  16.777   2.985  27.815 -0.2316 -0.3014 -0.0141
36762W        W45562   3.464   5.321  24.469  0.3441  0.0061  0.1654
36763W        W45563  21.229   0.018   7.808 -0.2160  0.0531 -0.0667
36764W        W45564  24.823   3.732  23.538 -0.3616  0.1397  0.4041
36765W        W45565  17.654   4.778  28.078 -0.1206  0.0929  0.2235
36766W        W45566  18.727   5.141  31.424  0.3267 -0.1679  0.0534
36767W        W45567  15.864   2.451  22.121  0.1880  0.0487  0.1666
36768W        W45568  16.942   6.935  10.738  0.1393  0.0593  0.1617
36769W        W45569   2.698   0.140   3.564  0.0881 -0.1627  0.1708
36770W        W45570  24.691   7.474   9.333  0.1219 -0.2356  0.3337
36771W        W45571   6.996   1.502  24.293  0.0750  0.0964  0.0289
36772W        W45572   5.337   4.621   5.847  0.0920 -0.1456 -0.1264
36773W        W45573   6.921   1.500  21.600  0.0572 -0.2273 -0.0125
36774W        W45574  11.063   5.880  23.696  0.0522  0.0908  0.0143
36775W        W45575   6.182   0.041  18.795 -0.1093 -0.1048  0.0380
36776W        W45576  17.254   2.099  12.288 -0.0841  0.2693 -0.0445
36777W        W45577  14.664   0.833  29.566 -0.0540  0.1013  0.0604
36778W        W45578  10.446   1.988  29.617 -0.0050  0.3233 -0.1060
36779W        W45579  19.863   6.231  32.054 -0.5962  0.1458  0.1608
36780W        W45580  22.923   5.314  24.522 -0.3478  0.0046 -0.0595
36781W        W45581  14.590   4.875  26.239 -0.0359  0.0367 -0.1457
36782W        W45582  15.674   5.017  25.665 -0.0224  0.1727  0.1714
36783W        W45583   6.399   2.013  18.460  0.4770  0.1871 -0.2550
36784W        W45584  12.328   4.808   2.334 -0.1931  0.2450 -0.1400
36785W        W45585  19.227   2.541   6.033 -0.2390  0.0364  0.2618
36786W        W45586   4.313   5.077  23.906  0.1949  0.1182 -0.0008
36787W        W45587   6.241   3.872   1.590  0.0458  0.2555 -0.1278
36788W        W45588  20.595   4.925   2.714  0.1996 -0.1530  0.3602
36789W        W45589  14.297   5.364   1.361  0.0860  0.2658 -0.1815
36790W        W45590  20.582   7.308  16.685 -0.1544  0.0579  0.3004
36791W        W45591   5.691   3.817  32.394  0.3169  0.1201  0.3115
36792W        W45592  20.117   3.495  27.582 -0.1730 -0.0093  0.2175
36793W        W45593  11.162   6.968   4.229  0.2165  0.2386  0.0293
36794W        W45594  16.097   2.625  25.204 -0.0589 -0.0527 -0.0932
36795W        W45595  22.213   0.441   3.507  0.2368  0.2192 -0.0786
36796W        W45596   2.075   0.933   6.987 -0.0270  0.0805  0.0884
36797W        W45597   0.102   6.654  19.373  0.0070  0.1337  0.1244
36798W        W45598  11.263   5.844  27.991 -0.0192 -0.2342 -0.2387
36799W        W45599   5.009   3.102  17.794 -0.1161  0.1474 -0.1925
36800W        W45600  14.782   7.691   1.775  0.0568  0.1650  0.0071
36801W        W45601   5.393   0.569   4.084 -0.2844 -0.1758 -0.1117
36802W        W45602  22.837   3.122   9.123 -0.0568  0.0842  0.1341
36803W        W45603  22.430   1.510  31.219 -0.0694  0.0547  0.2643
36804W        W45604   9.399   3.247  24.413 -0.1524  0.1650  0.0623
36805W        W45605   9.926   6.812  28.203  0.1142 -0.0909  0.0916
36806W        W45606   9.926   4.395  18.488 -0.0971 -0.0810  0.0113
36807W        W45607   9.251   7.852  18.938 -0.1709  0.2744 -0.1320
36808W        W45608  16.004   3.337   9.519  0.0153  0.1183 -0.0219
36809W        W45609  15.246   6.441  27.932  0.2224  0.1071  0.1429
36810W        W45610   2.560   3.282  30.957 -0.1503 -0.0019  0.1669
36811W        W45611   2.045   2.630  20.800  0.2166  0.0218 -0.0289
36812W        W45612   3.422   2.745   0.365 -0.0786  0.1301  0.0039
36813W        W45613  19.248   6.840  13.563 -0.0106  0.0235  0.0451
36814W        W45614  16.925   4.434  32.070 -0.0390  0.0457  0.1602
36815W        W45615  20.389   7.692  17.099 -0.2529 -0.3203  0.0165
36816W        W45616  16.398   6.421  23.025  0.2342 -0.0116 -0.0004
36817W        W45617  15.000   7.033   9.878  0.1651  0.1562  0.1146
36818W        W45618   2.019   7.530  19.867 -0.2564  0.1471 -0.0250
36819W        W45619  25.077   0.791  32.183 -0.0250 -0.3474  0.2288
36820W        W45620  16.288   6.646   9.468  0.0153  0.1061  0.1211
36821W        W45621   9.379   3.799   6.098 -0.1150 -0.0260  0.2608
36822W        W45622  11.174   4.594  26.225 -0.1250  0.2020 -0.0159
36823W        W45623   8.064   7.246  32.168 -0.1150  0.1690  0.1281
36824W        W45624  24.434   4.597  11.547  0.1544  0.0801  0.0063
36825W        W45625  23.016   4.046  28.177  0.0290 -0.2254 -0.0464
36826W        W45626  11.214   2.120  17.999 -0.2265 -0.1425 -0.0214
36827W        W45627   1.353   4.064  26.242 -0.1081 -0.1003  0.0979
36828W        W45628  20.285   5.890   9.574 -0.1737  0.0966  0.1014
36829W        W45629  23.280   1.546   4.393 -0.1121  0.2238 -0.3234
36830W        W45630  23.842   1.274  22.884  0.1965 -0.2015 -0.1637
36831W        W45631  18.163   4.562   5.021 -0.1328  0.0529 -0.0941
36832W        W45632  14.198   2.551   4.409  0.0356  0.0182 -0.1365
36833W        W45633  18.126   0.064   8.274 -0.2588 -0.1335  0.2342
36834W        W45634  16.344   0.526  32.279 -0.1987  0.1661  0.3693
36835W        W45635  23.206   3.301  30.813  0.2052  0.1827 -0.3610
36836W        W45636  17.388   5.861  30.065 -0.3467 -0.0144  0.2974
36837W        W45637  25.077   5.450   1.598  0.0657  0.0095 -0.0063
36838W        W45638  12.866   3.264  24.613  0.1385 -0.2384  0.1218
36839W        W45639  10.755   7.812  11.171  0.1528 -0.1154 -0.1812
36840W        W45640  19.946   4.347  29.301  0.0513  0.0157  0.1648
36841W        W45641  11.542   7.482  26.277  0.0991  0.2558 -0.4300
36842W        W45642  11.967   7.735   3.404 -0.1313 -0.0432  0.0175
36843W        W45643  16.384   4.838  29.643 -0.2060 -0.4189  0.2346
36844W        W45644   5.618   3.297   5.759  0.0004  0.2128  0.0702
36845W        W45645  12.385   1.436   1.069 -0.1816  0.1417 -0.0658
36846W        W45646   8.391   7.764   2.652 -0.0853  0.0628 -0.0722
36847W        W45647  19.082   3.483  12.350 -0.3066 -0.0118 -0.2284
36848W        W45648   7.245   7.012  32.057  0.1376  0.1148 -0.0846
36849W        W45649   6.973   7.452   3.921 -0.0232 -0.1893 -0.1906
36850W        W45650   3.089   5.434  28.679 -0.1339  0.0031 -0.2378
36851W        W45651   4.409   5.487   3.904 -0.0173 -0.0470  0.3025
36852W        W45652  17.899   7.269  25.210 -0.0542 -0.0457 -0.1562
36853W        W45653  13.437   4.125   1.305 -0.1310 -0.0729  0.0509
36854W        W45654   6.253   0.293   2.071  0.0934 -0.0006  0.3650
36855W        W45655   9.858   6.764  29.907  0.1349  0.0836  0.0300
36856W        W45656  22.959   6.312   4.538 -0.1533 -0.3281  0.1884
36857W        W45657   1.105   5.636  25.131  0.0814  0.0834  0.0459
36858W        W45658   5.847   7.798  14.173  0.1914  0.0840  0.1242
36859W        W45659  16.599   5.693  13.649 -0.1344 -0.0761  0.2792
36860W        W45660  12.924   1.951  31.555 -0.0698 -0.1089  0.3202
36861W        W45661   5.623   4.954   0.438  0.2034  0.0469  0.2470
36862W        W45662  19.070   1.734  27.551 -0.2906 -0.1336  0.1261
36863W        W45663   4.439   7.826  20.908 -0.1222  0.1126 -0.4793
36864W        W45664  14.182   2.082  25.580  0.2202 -0.2091 -0.1585
36865W        W45665  22.963   7.806  12.207  0.1340  0.2183 -0.0924
36866W        W45666  23.619   0.511   5.486 -0.3066  0.0952  0.3466
36867W        W45667  23.368   4.653   7.154  0.0379 -0.0842 -0.1409
36868W        W45668   5.265   6.619   1.678 -0.1186  0.1011 -0.1486
36869W        W45669  15.097   1.072  15.609  0.0633  0.4845 -0.1047
36870W        W45670  14.335   7.122  23.055 -0.1108  0.1827  0.0884
36871W        W45671   1.425   5.189  32.527 -0.1749 -0.0856 -0.0385
36872W        W45672  13.078   7.420  29.605 -0.1965  0.3063  0.1235
36873W        W45673   2.404   2.325  23.518 -0.2016 -0.1768 -0.1052
36874W        W45674  12.848   1.076  30.700 -0.0083 -0.4322 -0.1749
36875W        W45675   0.854   5.347   4.737 -0.0424 -0.1226  0.1539
36876W        W45676   1.320   5.844   0.241  0.1266  0.1367  0.1205
36877W        W45677   9.444   5.655  27.240 -0.0063 -0.0058 -0.0591
36878W        W45678  24.057   4.613  29.368 -0.2440 -0.0345  0.1066
36879W        W45679   4.498   5.187  25.756  0.0153  0.2101 -0.3019
36880W        W45680   7.001   6.334  18.845 -0.3403 -0.1455  0.0614
36881W        W45681  14.740   7.383  10.534 -0.1772 -0.1725  0.3384
36882W        W45682  19.303   5.867  31.828  0.2248 -0.0059  0.0407
36883W        W45683  24.696   0.773  30.731 -0.1337 -0.0980 -0.1173
36884W        W45684  24.159   5.969  28.772  0.1260  0.1016  0.0393
36885W        W45685   4.612   3.310  30.287  0.1519  0.0340  0.0037
36886W        W45686   8.034   2.095   7.933  0.3632 -0.3653  0.1689
36887W        W45687   9.201   7.379   4.137 -0.2229 -0.1908 -0.0099
36888W        W45688  24.543   7.100  31.920  0.2617  0.2417 -0.1467
36889W        W45689  11.003   6.307   2.003  0.0289  0.1111 -0.3015
36890W        W45690  19.092   3.401  22.328 -0.0085 -0.3222 -0.0743
36891W        W45691  14.113   5.395   8.688  0.2388 -0.1434  0.0592
36892W        W45692  14.039   7.029  24.951  0.0198  0.0311  0.2854
36893W        W45693  20.726   5.752  29.234  0.2638 -0.0463  0.1089
36894W        W45694   5.257   2.408  32.340 -0.2468  0.1428  0.3244
36895W        W45695   6.147   3.752  24.770 -0.4266  0.1175  0.0711
36896W        W45696  20.861   4.275  31.147  0.0334  0.0394 -0.1135
36897W        W45697  16.482   5.984  15.379  0.0033  0.1126 -0.1081
36898W        W45698  10.577   3.822  24.999 -0.0179  0.0905  0.1986
36899W        W45699  24.322   5.693  25.009 -0.1641  0.1247 -0.0564
36900W        W45700   6.179   7.696   8.142  0.0333  0.1942 -0.0504
36901W        W45701   3.530   1.457   4.738 -0.0605 -0.1189  0.1764
36902W        W45702   5.463   0.345   8.552  0.0247 -0.0429 -0.2400
36903W        W45703  23.123   4.342  13.493  0.1285 -0.3504  0.1725
36904W        W45704   2.065   1.549  31.045 -0.0126  0.0821  0.2738
36905W        W45705  21.531   7.141   1.518  0.1741  0.0591  0.0100
36906W        W45706  16.212   6.993  27.769  0.0584  0.0068  0.4071
36907W        W45707  10.510   6.882  20.667  0.0385  0.0246  0.2429
36908W        W45708  17.040   2.629  32.207 -0.0611 -0.2367 -0.0087
36909W        W45709   7.069   1.603  28.793  0.1672 -0.1591  0.0235
36910W        W45710  18.417   3.868  25.276  0.1599  0.0974 -0.1988
36911W        W45711   9.572   6.951  32.018 -0.0347 -0.0437  0.1454
36912W        W45712  17.617   3.672  10.318  0.3623  0.0002 -0.1514
36913W        W45713  11.709   2.533  19.432 -0.2121 -0.0309 -0.0851
36914W        W45714  22.838   6.231  21.744 -0.0018  0.2558  0.0687
36915W        W45715  22.576   6.566  26.313 -0.0645 -0.1971 -0.1767
36916W        W45716   6.008   1.912  28.254 -0.1784 -0.0130 -0.0656
36917W        W45717   3.180   1.848   7.133 -0.1811  0.1954 -0.1147
36918W        W45718   5.425   5.841  29.306  0.0843 -0.0418 -0.2508
36919W        W45719  10.211   4.565  10.609 -0.1608  0.0284  0.0542
36920W        W45720   7.070   7.381   7.281  0.1188 -0.0098 -0.3343
36921W        W45721  22.825   2.890  25.952  0.1505  0.0684  0.0190
36922W        W45722   5.416   5.969  31.163  0.0934 -0.0518 -0.1425
36923W        W45723   8.615   0.557  32.468 -0.0909  0.0972  0.0236
36924W        W45724  17.268   3.127  25.816 -0.2571  0.1072  0.1555
36925W        W45725  18.799   4.448  15.133  0.1401  0.0298  0.2439
36926W        W45726   6.287   0.870  15.181 -0.2914 -0.2054 -0.2864
36927W        W45727  13.938   6.509  30.307  0.0510 -0.3906  0.2896
36928W        W45728  15.064   1.763   8.774  0.0504  0.2022  0.1166
36929W        W45729  21.688   4.462   1.814  0.2816 -0.1996 -0.1798
36930W        W45730   3.372   6.883   2.053 -0.1228  0.0241  0.0516
36931W        W45731   5.839   1.291   3.855 -0.1642  0.0984 -0.0757
36932W        W45732   2.665   1.940  21.083  0.2136 -0.0059 -0.2147
36933W        W45733  16.047   3.686   7.110  0.0747  0.2149  0.0116
36934W        W45734  17.890   2.676  31.365 -0.0592 -0.0790 -0.1112
36935W        W45735  21.668   6.303  27.200  0.3497  0.0797  0.1204
36936W        W45736  15.180   1.860  23.122  0.0905  0.0433  0.0826
36937W        W45737   4.224   1.981   4.564 -0.0581  0.0141 -0.0576
36938W        W45738  22.410   4.989  23.355  0.1266  0.2271 -0.1048
36939W        W45739  23.288   4.061   2.874 -0.0655 -0.1716 -0.0202
36940W        W45740   0.011   2.714  32.252 -0.0298  0.0317  0.5427
36941W        W45741  11.193   3.663   9.381 -0.1782  0.0174 -0.2800
36942W        W45742  22.331   7.609  13.603 -0.2079 -0.0618 -0.2355
36943W        W45743   3.040   2.201  26.811 -0.0017 -0.0097 -0.0365
36944W        W45744  23.714   6.965   2.183  0.0468  0.3153  0.0159
36945W        W45745  22.159   1.729   3.546  0.2115  0.0591  0.0576
36946W        W45746  20.327   0.900  13.796  0.1557 -0.0342  0.1721
36947W        W45747  23.177   6.000   3.490 -0.1789  0.1229 -0.0285
36948W        W45748  21.383   6.349  22.963 -0.2457 -0.2064 -0.2045
36949W        W45749   4.058   1.824  21.973  0.0211  0.1404  0.0897
36950W        W45750   5.595   3.518   9.286 -0.3333  0.3821 -0.2196
36951W        W45751  20.958   0.945  13.012  0.0570  0.3696  0.0280
36952W        W45752   7.054   5.689  26.989  0.0290 -0.0621 -0.0554
36953W        W45753   2.200   4.989  22.565  0.1449  0.2678 -0.1781
36954W        W45754  12.984   1.444  12.048  0.0415 -0.1201  0.0087
36955W        W45755   1.381   2.213  10.763 -0.1745 -0.1642 -0.2641
36956W        W45756   8.933   1.582  26.485 -0.3244 -0.0075  0.2005
36957W        W45757   5.653   6.059  28.773 -0.3328 -0.0145  0.0176
36958W        W45758  24.452   1.423  31.720 -0.1845 -0.2528 -0.1360
36959W        W45759  24.363   2.140   1.910 -0.0173  0.0192  0.1246
36960W        W45760  11.556   1.685  17.372  0.1887 -0.0170  0.0174
36961W        W45761  14.408   7.277  11.526 -0.1365  0.1233 -0.1208
36962W        W45762  17.102   1.615  26.164 -0.0360  0.1722 -0.0438
36963W        W45763  16.436   3.566  26.262 -0.2134  0.1377  0.1492
36964W        W45764  19.186   3.456  30.417 -0.3050  0.2613  0.2736
36965W        W45765  19.213   0.276  22.225 -0.0017  0.1003 -0.1929
36966W        W45766  10.137   6.855   1.316  0.0560 -0.0340 -0.1283
36967W        W45767   8.610   3.425  10.277  0.0942 -0.0610 -0.3398
36968W        W45768  18.573   4.702  26.955 -0.1202 -0.1583  0.2003
36969W        W45769   4.427   2.398  31.626 -0.0101 -0.1830 -0.0576
36970W        W45770   0.885   7.842  20.639  0.1479 -0.0531  0.0092
36971W        W45771  18.784   6.541   1.651  0.0033 -0.2271  0.0239
36972W        W45772   7.131   5.851  31.342 -0.0856 -0.3673 -0.2722
36973W        W45773  21.312   5.713  29.182  0.1626  0.0837 -0.2469
36974W        W45774  20.417   7.139  22.237 -0.1768  0.1060  0.1263
36975W        W45775   6.693   1.697  24.833 -0.0651  0.0352  0.1463
36976W        W45776   4.038   3.218   8.944 -0.0456  0.1460  0.2094
36977W        W45777  24.545   5.168   7.056 -0.0811  0.0228 -0.0240
36978W        W45778  12.323   3.900   8.285 -0.0747 -0.4161  0.1201
36979W        W45779  14.403   1.460  11.387  0.0868  0.4609 -0.0225
36980W        W45780  12.295   6.731  31.169  0.0043  0.0350 -0.4738
36981W        W45781  13.332   7.425  30.130 -0.1052  0.1700  0.3469
36982W        W45782  18.826   4.177  10.316 -0.1570 -0.0935 -0.1263
36983W        W45783   8.207   0.563  28.279  0.0560  0.2593 -0.2269
36984W        W45784  21.021   2.833   5.770 -0.1097  0.0803 -0.1214
36985W        W45785   9.468   6.895  16.287 -0.0166  0.4656 -0.1072
36986W        W45786   7.413   7.013  28.007  0.0368  0.0139  0.1059
36987W        W45787  16.045   6.235  10.084 -0.0751  0.2295  0.0442
36988W        W45788  11.338   1.864  22.463 -0.1173 -0.0147  0.0710
36989W        W45789   8.784   0.664   1.131 -0.0241 -0.1620  0.2316
36990W        W45790   9.512   4.088  18.012  0.1696  0.0309 -0.4174
36991W        W45791  19.099   5.234   0.808 -0.0473 -0.2206 -0.0721
36992W        W45792  21.907   1.264  11.341 -0.0957 -0.0718 -0.4786
36993W        W45793  11.556   2.534  29.287 -0.3429 -0.3279 -0.1113
36994W        W45794   6.035   0.172  32.579  0.0503  0.0133  0.2228
36995W        W45795  12.176   7.751  29.360  0.0521 -0.0238  0.0130
36996W        W45796  16.091   2.052   7.610 -0.2352  0.0379 -0.0400
36997W        W45797  22.839   7.742  14.382  0.2044  0.0240  0.2179
36998W        W45798  19.985   0.175  17.157  0.0767  0.1571  0.1210
36999W        W45799  12.974   5.666  22.153 -0.3646 -0.3050  0.0268
37000W        W45800   8.669   3.619  18.560  0.0616 -0.1793 -0.1196
37001W        W45801  23.028   1.787   3.418  0.2686 -0.0428 -0.1393
37002W        W45802  11.092   4.244   0.357  0.1748  0.0261 -0.0009
37003W        W45803  15.411   2.569  21.954 -0.0888  0.2126 -0.2078
37004W        W45804  11.725   7.703   1.432  0.0462  0.1778  0.1097
37005W        W45805  21.173   2.463  14.320  0.0754  0.1675 -0.2242
37006W        W45806   4.072   2.127   6.938 -0.4643 -0.0270 -0.1986
37007W        W45807   9.209   0.397  25.861  0.1387 -0.0191 -0.0516
37008W        W45808  10.771   7.089  24.300  0.0282 -0.1325  0.2829
37009W        W45809   6.422   3.906  25.658 -0.1217  0.0337 -0.1046
37010W        W45810  20.255   4.290  11.911 -0.1791 -0.2927 -0.0054
37011W        W45811   8.725   0.021   8.368 -0.0812  0.2354 -0.1595
37012W        W45812  19.949   6.330  17.324 -0.1927  0.1799  0.3223
37013W        W45813   2.544   0.743   4.821  0.1029  0.3141 -0.2516
37014W        W45814  15.640   5.100   5.648  0.1307  0.0316 -0.2127
37015W        W45815  17.162   4.152  12.937 -0.0345 -0.0842  0.0850
37016W        W45816   1.112   3.107  26.607  0.3006  0.1080 -0.1246
37017W        W45817   5.614   1.145   7.222 -0.2904 -0.1818 -0.2483
37018W        W45818  17.200   3.817  10.753  0.2062 -0.0883 -0.0201
37019W        W45819   3.120   7.341  18.832 -0.0839 -0.3753  0.0453
37020W        W45820  13.447   1.690   6.975 -0.0956  0.0357  0.0992
37021W        W45821  18.844   0.659  25.782 -0.1497 -0.0772 -0.1177
37022W        W45822  13.670   4.972  23.886 -0.3095 -0.1288  0.0229
37023W        W45823  20.065   2.562   8.362  0.1699 -0.0923 -0.0672
37024W        W45824   1.367   1.964   8.927  0.1150 -0.3004 -0.3148
37025W        W45825   6.810   5.019  17.961  0.0967 -0.0515 -0.1514
37026W        W45826   3.088   2.207  32.332  0.3151 -0.0732  0.1229
37027W        W45827  10.800   1.695  27.492  0.0407 -0.1053  0.0694
37028W        W45828   3.119   7.456  26.412  0.0500  0.1658  0.0612
37029W        W45829  19.117   4.412  26.034 -0.1105  0.0260  0.4399
37030W        W45830   1.067   4.397  26.560  0.0355  0.2298  0.0114
37031W        W45831  23.739   3.670   0.901  0.2599 -0.2101  0.1817
37032W        W45832  20.914   4.114  28.356 -0.2173 -0.1028 -0.1362
37033W        W45833   9.611   4.444  26.386  0.2816  0.0678  0.2514
37034W        W45834   7.960   4.286   0.523 -0.1191 -0.0777  0.1626
37035W        W45835   6.937   2.030  30.779 -0.2448  0.0216 -0.1006
37036W        W45836   6.156   4.624   3.515 -0.1256  0.0475 -0.1218
37037W        W45837   1.365   1.376  10.188  0.0155  0.0290 -0.0094
37038W        W45838  22.191   5.181  25.168  0.0100  0.2238 -0.0779
37039W        W45839  18.078   1.681  27.033 -0.1200 -0.0891 -0.0724
37040W        W45840  23.469   3.967  26.617  0.1756 -0.5046 -0.0563
37041W        W45841   6.693   4.865   3.464  0.2057  0.1132 -0.1060
37042W        W45842   3.692   2.350  21.139  0.1364 -0.1878  0.1359
37043W        W45843  13.767   1.315   3.464  0.2606 -0.1950 -0.1262
37044W        W45844  21.682   4.079  26.526 -0.1047 -0.0014 -0.2192
37045W        W45845  10.778   4.816   3.124  0.3273  0.1510  0.0193
37046W        W45846  16.245   5.769   9.375 -0.1471 -0.4460 -0.2733
37047W        W45847  24.696   5.040  28.716 -0.0744  0.1893 -0.2522
37048W        W45848  15.588   2.047   5.728 -0.1315 -0.2098  0.1450
37049W        W45849   1.022   1.703  19.194  0.0606 -0.2757 -0.0916
37050W        W45850  10.904   7.412   4.081 -0.6535 -0.0096  0.2047
37051W        W45851  17.379   2.537   4.367 -0.1344  0.0252 -0.0334
37052W        W45852   7.928   2.501   1.925 -0.1176 -0.1269 -0.1399
37053W        W45853   2.151   5.225  23.568  0.1244  0.1496  0.0764
37054W        W45854  16.791   1.486  13.851  0.1575 -0.2273 -0.1884
37055W        W45855   1.196   5.540  12.040 -0.2449 -0.0086 -0.0254
37056W        W45856   8.637   7.290   1.011 -0.1087 -0.1001  0.2658
37057W        W45857   2.827   3.603   2.602  0.0435 -0.0158  0.1522
37058W        W45858   8.239   6.194  17.225  0.1169  0.0038  0.0284
37059W        W45859   8.060   2.663  22.688  0.1051  0.0174 -0.0713
37060W        W45860  12.346   1.051  21.131 -0.1537 -0.1436 -0.1570
37061W        W45861  13.621   5.222  25.517  0.0390 -0.0196 -0.1436
37062W        W45862  16.032   6.445  11.850 -0.1419  0.2762 -0.1067
37063W        W45863   5.107   3.020  15.459 -0.0141 -0.0840 -0.1866
37064W        W45864  21.612   5.311   9.765  0.2375  0.4150 -0.0281
37065W        W45865   0.278   6.042  10.278  0.0828  0.1198 -0.0353
37066W        W45866  24.741   7.557  11.330 -0.1191 -0.1159 -0.0744
37067W        W45867  18.614   1.734   9.306 -0.0281 -0.0531  0.1304
37068W        W45868   3.414   2.843  24.391  0.0058 -0.0610 -0.0352
37069W        W45869  12.117   1.906  30.615 -0.0942  0.2610 -0.0431
37070W        W45870   4.509   7.152   0.976 -0.0085  0.1245 -0.0054
37071W        W45871  19.321   4.031   3.045 -0.0560 -0.1654  0.1309
37072W        W45872   1.165   0.108  10.420  0.0696 -0.1039  0.2530
37073W        W45873   8.342   4.234   0.176 -0.0220 -0.1114  0.2045
37074W        W45874  13.728   2.874   3.903 -0.1401  0.3011 -0.2484
37075W        W45875  24.638   7.390  11.793 -0.3299  0.2030 -0.1610
37076W        W45876   9.093   4.607   8.198 -0.0287 -0.2000  0.0240
37077W        W45877   3.402   0.194   2.616 -0.1252 -0.0085 -0.0152
37078W        W45878  18.720   3.163  23.492 -0.2643 -0.1118  0.2816
37079W        W45879   7.740   7.523  27.285  0.2498  0.2745  0.0354
37080W        W45880  15.580   3.068   8.360  0.0650  0.0098  0.0065
37081W        W45881  10.964   6.376  27.087  0.3885  0.4716 -0.2072
37082W        W45882   2.369   0.255   8.828  0.3717  0.1778  0.0744
37083W        W45883   8.424   5.796   0.296  0.1114  0.1943 -0.2744
37084W        W45884  16.625   3.923  17.040 -0.1795 -0.0293 -0.0824
37085W        W45885  21.019   7.249   1.175  0.1952  0.1978  0.4295
37086W        W45886   8.075   1.462  27.924  0.2006  0.0641 -0.0823
37087W        W45887  13.341   5.027  20.982  0.0901  0.1477  0.0846
37088W        W45888  13.152   1.421   0.543  0.0932 -0.0577 -0.1539
37089W        W45889   8.570   6.170  22.772  0.1758  0.0916 -0.0428
37090W        W45890  15.408   4.292   6.183  0.0759  0.1389  0.1976
37091W        W45891  20.405   1.547  31.497 -0.0087 -0.2693 -0.0343
37092W        W45892   2.803   4.631   7.995 -0.1060 -0.0148  0.2056
37093W        W45893   6.108   1.445  27.087  0.1669  0.0971  0.0167
37094W        W45894  16.259   7.501   4.140 -0.2425  0.0349  0.1488
37095W        W45895   8.074   3.674  29.582  0.1313  0.0401  0.2277
37096W        W45896   3.458   5.133  19.890  0.1227 -0.3802  0.0517
37097W        W45897   1.531   2.718   7.567  0.0439 -0.1022 -0.0698
37098W        W45898   5.003   5.347  26.051  0.2609 -0.3003 -0.0563
37099W        W45899  16.539   0.403   7.774  0.2131  0.0507  0.0142
37100W        W45900   5.689   1.334  30.547  0.0543  0.0397  0.1582
37101W        W45901  13.817   5.711  22.495  0.1217  0.0730 -0.1855
37102W        W45902  10.550   4.141  30.672 -0.0743 -0.0299  0.0608
37103W        W45903  15.648   0.642  14.337  0.3984  0.2917  0.0992
37104W        W45904  23.147   5.119  22.170  0.1799  0.1192  0.0638
37105W        W45905  16.104   2.897  30.691  0.0187 -0.0475 -0.0358
37106W        W45906   9.069   7.048   1.659 -0.1571  0.0541 -0.0858
37107W        W45907   6.539   2.471   6.046 -0.0868  0.3043  0.1187
37108W        W45908  17.052   0.517  30.594  0.0280  0.2183  0.0893
37109W        W45909  18.122   0.457  24.638 -0.2239 -0.2332  0.0085
37110W        W45910   5.556   1.816  31.163 -0.1266 -0.0102 -0.2468
37111W        W45911   2.529   7.802   4.393 -0.2370  0.0118 -0.0793
37112W        W45912   6.649   3.655   3.908  0.0640  0.2033  0.2078
37113W        W45913  13.656   3.704   1.482  0.0586  0.2449  0.0525
37114W        W45914   0.781   3.454  28.596 -0.1839 -0.2458  0.0230
37115W        W45915  15.971   5.512  22.337 -0.0020  0.1181  0.0836
37116W        W45916  16.547   5.251  30.911  0.4605 -0.0110 -0.0983
37117W        W45917  13.790   1.727  28.917 -0.1817  0.1092 -0.1847
37118W        W45918   7.369   0.220   5.151 -0.0554  0.1164  0.1285
37119W        W45919   8.783   4.480  30.717 -0.1090 -0.1588 -0.0564
37120W        W45920  24.310   6.880  14.692  0.0969 -0.2173 -0.1358
37121W        W45921  13.743   1.498  31.911  0.2237  0.0431  0.0709
37122W        W45922  16.396   2.851  12.938  0.0245  0.1844 -0.0163
37123W        W45923  23.505   2.634   6.854  0.0457 -0.3915 -0.1202
37124W        W45924   3.168   7.715   0.838  0.0483  0.1036 -0.1600
37125W        W45925  22.328   5.676   2.113 -0.0404 -0.4772  0.0256
37126W        W45926  14.818   6.862   2.625  0.0931 -0.4047  0.2247
37127W        W45927  11.160   6.048  30.402  0.1022  0.0938 -0.1967
37128W        W45928  21.313   6.383  25.433 -0.2328  0.1231  0.1709
37129W        W45929   0.142   5.857   3.748 -0.1723 -0.3008  0.0275
37130W        W45930   1.873   2.905   1.006 -0.2108  0.2810 -0.3083
37131W        W45931   5.753   2.222  16.139  0.2545 -0.0810  0.2241
37132W        W45932  10.823   2.373   2.928  0.1627 -0.1468  0.0501
37133W        W45933  13.114   1.444   6.681  0.1960 -0.0308 -0.1476
37134W        W45934   6.343   0.362  19.136  0.0225 -0.0213 -0.2885
37135W        W45935   9.659   7.018  21.745  0.1817  0.0835 -0.0590
37136W        W45936  13.566   6.965  23.174 -0.1087 -0.1766 -0.1012
37137W        W45937   9.766   4.300  26.825 -0.0835  0.0709  0.0563
37138W        W45938   6.798   3.787  24.035 -0.0172 -0.0965  0.0617
37139W        W45939  20.031   1.983   6.196 -0.1161 -0.1570  0.2397
37140W        W45940  16.093   5.806   9.850 -0.0292  0.1130 -0.2032
37141W        W45941  18.366   7.505  23.417  0.0235  0.1231  0.0435
37142W        W45942   9.129   2.912  25.350  0.0667  0.0763 -0.1935
37143W        W45943  24.764   2.212   8.463  0.2213 -0.3430 -0.2898
37144W        W45944  15.931   1.104   6.779  0.1073  0.1761 -0.0279
37145W        W45945  11.361   4.815  28.999 -0.0360  0.1446 -0.1951
37146W        W45946  24.412   3.002  28.446 -0.1427  0.1213 -0.0982
37147W        W45947   3.728   0.667  22.593 -0.3934 -0.0002  0.3151
37148W        W45948  11.408   4.997  32.116 -0.0354 -0.0346  0.1402
37149W        W45949  17.571   7.247  15.554 -0.3034  0.0703  0.4157
37150W        W45950   3.047   4.216  28.704 -0.0523  0.0937  0.1631
37151W        W45951  20.453   5.723  31.337 -0.1064  0.0505 -0.1061
37152W        W45952  12.458   3.251   8.974  0.1477  0.0070  0.0920
37153W        W45953  21.453   4.876   2.886 -0.0945 -0.0272 -0.1979
37154W        W45954   7.588   2.606  30.180  0.0255 -0.1785 -0.1094
37155W        W45955   1.325   5.413   3.046 -0.1665  0.0749  0.2331
37156W        W45956  13.211   6.033  21.684  0.1428  0.1633 -0.0373
37157W        W45957  10.644   5.222  26.585 -0.0182  0.1509 -0.1550
37158W        W45958   7.794   1.074   0.236  0.2109  0.2042 -0.3081
37159W        W45959   9.511   2.765  27.610 -0.2719 -0.0175  0.1074
37160W        W45960   0.841   0.501   6.210  0.0949 -0.1774  0.2056
37161W        W45961  16.782   1.480  26.933 -0.1009 -0.0455 -0.2189
37162W        W45962  11.018   5.552  27.456  0.0658  0.3027  0.3161
37163W        W45963  19.727   4.035  23.641  0.1488  0.5204  0.0900
37164W        W45964  16.364   4.587  27.675 -0.0852  0.0081  0.3960
37165W        W45965  21.785   3.905  13.672  0.1240 -0.1291  0.1018
37166W        W45966  10.369   3.511  32.314  0.0554 -0.2824  0.0215
37167W        W45967  16.038   2.271  14.720  0.1139  0.2192  0.0933
37168W        W45968   2.369   1.865  20.223 -0.1176 -0.0252  0.0412
37169W        W45969   3.671   4.622  20.667  0.0298 -0.1387  0.0969
37170W        W45970  12.574   2.183   5.746 -0.5472  0.2570  0.0973
37171W        W45971   7.363   3.222   6.605  0.1554  0.3595  0.0616
37172W        W45972  18.833   2.288  26.449 -0.1870  0.0939 -0.1898
37173W        W45973  22.895   1.777  29.140 -0.0650  0.2706 -0.1098
37174W        W45974   4.151   4.274  30.858 -0.1124  0.0084 -0.0217
37175W        W45975  22.265   3.731  14.488  0.0279 -0.0121  0.1014
37176W        W45976   5.584   2.594   7.246  0.1516 -0.2877 -0.1290
37177W        W45977  20.274   5.988  12.955  0.0421  0.1615  0.1945
37178W        W45978   6.354   2.340  15.460  0.1250  0.0762 -0.0783
37179W        W45979   6.712   3.519  24.428 -0.0128 -0.0665 -0.0383
37180W        W45980  12.427   5.627  23.162 -0.0414  0.2594 -0.0547
37181W        W45981  17.830   2.037  27.796 -0.0397  0.2395 -0.0205
37182W        W45982   9.533   0.506  28.680 -0.3510  0.0038 -0.0774
37183W        W45983  16.961   6.389   8.880  0.1055  0.3036  0.0596
37184W        W45984   3.499   5.643   6.491 -0.1838 -0.2258 -0.2149
37185W        W45985  24.175   5.128   3.185 -0.4587 -0.0223 -0.3339
37186W        W45986  10.348   4.032   7.180  0.1507  0.1406 -0.0406
37187W        W45987   2.879   7.571   5.118 -0.3110  0.0532 -0.1120
37188W        W45988   6.549   3.191   4.601 -0.0448 -0.1163  0.3355
37189W        W45989  18.486   7.326  32.311 -0.1129  0.1625  0.3113
37190W        W45990  14.399   3.124  11.333 -0.6309  0.1070 -0.1995
37191W        W45991  10.342   5.476   7.352 -0.0208  0.0655  0.1247
37192W        W45992   6.742   5.283   2.046  0.1959  0.1394  0.1690
37193W        W45993  10.722   0.809  20.097 -0.2542  0.0203 -0.0934
37194W        W45994  18.418   2.512  15.162 -0.0320 -0.0998  0.1075
37195W        W45995  10.456   3.561   8.430  0.1956 -0.0239 -0.0464
37196W        W45996  10.413   3.000  19.171 -0.0437  0.0720 -0.2514
37197W        W45997  13.828   2.854  32.148 -0.0248 -0.1278  0.1848
37198W        W45998  16.927   7.749  11.590 -0.3696 -0.0218 -0.1218
37199W        W45999  17.709   6.080  30.369 -0.0937 -0.2365  0.0484
37200W        W46000  23.450   6.550  29.676  0.0043 -0.4125 -0.1444
37201W        W46001   8.156   3.730  27.145 -0.0454 -0.2005 -0.0206
37202W        W46002   8.030   2.342   6.388 -0.2474 -0.2833  0.0550
37203W        W46003  24.849   5.798  26.898 -0.2820  0.0613  0.0835
37204W        W46004  18.412   5.308  26.847 -0.0264  0.2964  0.2568
37205W        W46005  12.648   3.812   5.557 -0.0535  0.3623  0.2208
37206W        W46006  10.638   4.523  22.262  0.0541 -0.0113 -0.0443
37207W        W46007   4.075   3.317  17.083 -0.0727 -0.3867  0.0299
37208W        W46008  14.765   5.108  12.612  0.2327  0.0222 -0.2180
37209W        W46009   4.643   4.258  26.171  0.1251  0.1131  0.0892
37210W        W46010   1.140   1.264  28.604  0.1756 -0.2537  0.0039
37211W        W46011   1.028   6.888   0.721  0.1568  0.2228 -0.2192
37212W        W46012  20.127   7.473  10.143  0.0704 -0.0587  0.0675
37213W        W46013  12.320   3.305  24.457 -0.0928  0.0447 -0.1224
37214W        W46014  12.720   5.666  25.729  0.0661  0.0999 -0.1291
37215W        W46015  22.061   6.701   5.151 -0.0153  0.0970 -0.1794
37216W        W46016  23.410   0.197  25.229 -0.0646  0.0507 -0.0082
37217W        W46017   7.779   0.486  28.028  0.1361  0.5534  0.3697
37218W        W46018  17.569   1.184   5.822  0.1739  0.0254  0.1063
37219W        W46019  17.102   3.109  27.458 -0.2105  0.2183 -0.2656
37220W        W46020  23.859   7.737  25.115  0.0132  0.0074  0.0263
37221W        W46021  14.453   2.861  29.432  0.2751 -0.1821 -0.3306
37222W        W46022   5.849   6.129  30.361  0.0112  0.1551  0.0541
37223W        W46023   4.363   3.470  27.144  0.0018  0.1873  0.0262
37224W        W46024  10.553   4.900   0.851 -0.3389 -0.1512 -0.0179
37225W        W46025  12.762   0.795  30.246 -0.0318  0.2022 -0.0734
37226W        W46026  23.705   0.040   0.749  0.2346 -0.0079  0.1063
37227W        W46027  15.608   4.884  12.344 -0.0484 -0.2170  0.1204
37228W        W46028  17.312   3.540   4.409  0.3000  0.0782  0.2586
37229W        W46029  21.766   2.107   0.254 -0.1631  0.2355  0.1820
37230W        W46030  22.369   3.327  28.296  0.0958  0.0021  0.2039
37231W        W46031   2.791   2.521   6.840 -0.1871 -0.2330 -0.2917
37232W        W46032  10.723   6.157  32.272 -0.2384  0.3344 -0.1310
37233W        W46033  10.966   3.309  31.008 -0.2091  0.0559 -0.2920
37234W        W46034  14.825   6.414  31.063 -0.0808  0.0142  0.0625
37235W        W46035   6.027   4.557  29.992  0.0935 -0.0132  0.0197
37236W        W46036   6.053   3.559  15.040 -0.1594  0.3221  0.0171
37237W        W46037  14.901   1.316  30.247  0.0940  0.1016  0.0479
37238W        W46038   3.028   5.327   4.317  0.0703  0.1073 -0.0165
37239W        W46039   9.174   4.989  19.304 -0.0790  0.1104 -0.3070
37240W        W46040  21.113   2.970  24.389  0.0738  0.1924  0.0806
37241W        W46041  17.945   5.906  29.820  0.0319 -0.2973  0.1866
37242W        W46042  21.464   7.705  11.487 -0.4028  0.1476 -0.1007
37243W        W46043   0.389   4.196  28.265 -0.0627 -0.1918  0.1979
37244W        W46044  16.347   7.163  26.957 -0.1387 -0.3873  0.0815
37245W        W46045  22.060   4.847  31.233  0.1203 -0.2816 -0.1605
37246W        W46046   0.824   0.913   5.915  0.0678 -0.4489 -0.0258
37247W        W46047   5.504   0.348   3.565 -0.0145  0.0308 -0.2490
37248W        W46048   5.227   3.565  10.187 -0.2292 -0.0171 -0.2727
37249W        W46049   5.603   3.933   4.131 -0.1377 -0.1781 -0.1547
37250W        W46050   8.134   0.616  21.011 -0.0080  0.0403 -0.0216
37251W        W46051   0.685   3.948  18.618 -0.0740 -0.0061 -0.1115
37252W        W46052  21.738   3.171  14.701 -0.5001 -0.1679  0.0390
37253W        W46053  19.077   6.985  17.948  0.0148  0.2831  0.2934
37254W        W46054  12.973   0.478  10.360 -0.0438  0.0860  0.1547
37255W        W46055   6.691   1.117  19.719 -0.0937  0.1524  0.2431
37256W        W46056  12.363   0.872  30.841  0.2028 -0.0120  0.1045
37257W        W46057   4.853   1.023  24.955  0.0285 -0.1963 -0.0517
37258W        W46058   3.221   2.339  27.244  0.0893 -0.1329  0.0714
37259W        W46059   8.049   7.856   3.091 -0.0147  0.0714  0.0797
37260W        W46060   0.724   7.851  19.099 -0.0528 -0.1215  0.1332
37261W        W46061   6.992   4.791  17.558 -0.2377  0.0059  0.1299
37262W        W46062  16.392   1.387  31.372 -0.1306  0.0173  0.3945
37263W        W46063  16.214   5.177  24.347 -0.2334 -0.3182 -0.0213
37264W        W46064   5.958   4.736  26.271  0.2036  0.1542 -0.2809
37265W        W46065  18.881   1.121  24.375  0.2918 -0.2529  0.1891
37266W        W46066   6.765   0.541  25.547 -0.3389  0.0721 -0.2075
37267W        W46067   7.001   6.550  20.961 -0.1003  0.0181  0.0929
37268W        W46068  21.023   2.367  17.101  0.2541 -0.2071 -0.2585
37269W        W46069   1.896   4.092   5.509 -0.1785 -0.1258 -0.0077
37270W        W46070  12.983   5.406  12.705 -0.0752 -0.1084  0.0726
37271W        W46071   5.513   2.601  27.827 -0.0761  0.3239  0.1582
37272W        W46072  20.210   2.452   3.759  0.1536  0.4319 -0.4130
37273W        W46073   7.064   0.235  24.626  0.1639  0.3651 -0.1879
37274W        W46074   5.803   4.192  14.445 -0.2191  0.0364  0.0229
37275W        W46075  17.496   1.139   8.629  0.3382 -0.0811  0.0499
37276W        W46076   0.968   4.254   0.091 -0.3655  0.1067  0.3429
37277W        W46077  11.123   2.512  21.056 -0.0215  0.2520 -0.0402
37278W        W46078  20.039   5.166   7.952  0.0098  0.1591  0.1360
37279W        W46079   0.096   3.715  32.468  0.0439 -0.2844  0.0314
37280W        W46080   3.812   4.228   5.870  0.0119  0.1258 -0.1138
37281W        W46081  17.384   6.955   4.099 -0.0817 -0.1398  0.2995
37282W        W46082   4.024   4.770   1.329 -0.1204 -0.1012  0.2503
37283W        W46083   9.552   6.995  20.720 -0.1409  0.0213  0.1381
37284W        W46084   0.933   5.422   6.406 -0.0190 -0.1884 -0.0447
37285W        W46085   9.639   3.140  30.343 -0.0937 -0.0345  0.1578
37286W        W46086  24.171   7.025   9.092 -0.1034  0.2459  0.0712
37287W        W46087   0.076   6.832  21.247  0.2736  0.0089  0.2195
37288W        W46088   2.312   5.695  31.874 -0.0879 -0.0728 -0.0385
37289W        W46089   9.850   4.135  22.801  0.0560  0.2669  0.1223
37290W        W46090  17.755   2.829   7.490  0.2391  0.1024 -0.2273
37291W        W46091  22.342   7.819  14.542 -0.2047  0.1168  0.1938
37292W        W46092  18.184   5.099  31.627  0.4690  0.0551 -0.1053
37293W        W46093   6.418   0.625  23.996 -0.1072  0.0538  0.0987
37294W        W46094   9.643   1.762  17.118 -0.1985 -0.0107 -0.1299
37295W        W46095   5.006   6.868  16.219 -0.0421  0.0554  0.2020
37296W        W46096   2.380   6.763  11.117 -0.0183 -0.0543 -0.0303
37297W        W46097   3.739   5.415   5.847 -0.0817  0.2062  0.1070
37298W        W46098  22.812   1.537  11.276 -0.2462  0.2055  0.3536
37299W        W46099  10.510   4.619  21.543  0.0901  0.0152  0.0380
37300W        W46100  19.585   6.868   6.398  0.0355 -0.0985  0.2103
37301W        W46101   5.242   6.833   3.310 -0.1836  0.0237  0.0372
37302W        W46102   5.640   2.595   6.728  0.0654  0.1379  0.0348
37303W        W46103  21.406   2.117   2.073  0.1439 -0.1564  0.0912
37304W        W46104   6.221   1.402   9.673 -0.0523  0.0879 -0.0150
37305W        W46105  14.107   2.900  14.742 -0.3148 -0.3834  0.2678
37306W        W46106   5.622   0.644   8.162 -0.2050  0.1141 -0.2454
37307W        W46107  10.852   3.791  30.671  0.0463  0.0170  0.1690
37308W        W46108   4.325   4.266  23.447 -0.1185 -0.2489  0.1417
37309W        W46109   4.269   7.731  31.501 -0.2408  0.1056 -0.0175
37310W        W46110   9.337   6.591  17.906  0.0099  0.2221 -0.0067
37311W        W46111  14.758   2.251  14.482 -0.1820 -0.0342  0.0726
37312W        W46112  24.982   0.594  21.993 -0.1743 -0.3637  0.0652
37313W        W46113   6.211   6.248  14.843 -0.1080 -0.1908  0.1294
37314W        W46114   3.433   1.535   2.226 -0.0793 -0.1530 -0.4611
37315W        W46115  17.443   6.845  11.649 -0.0117  0.1328 -0.0182
37316W        W46116  14.935   0.444  23.955  0.0323 -0.3445  0.0954
37317W        W46117  13.270   5.070  26.048  0.2825 -0.1209  0.2072
37318W        W46118  18.085   1.849   4.035 -0.1725 -0.0772  0.1044
37319W        W46119  19.324   7.793  26.331 -0.1045  0.1352 -0.2299
37320W        W46120  17.381   5.044   6.697  0.1185  0.4737 -0.0158
37321W        W46121  17.169   4.822  10.824 -0.0419 -0.0343 -0.0099
37322W        W46122  12.890   7.159  25.876 -0.0880 -0.1934  0.2420
37323W        W46123  13.986   2.111   0.133  0.2987 -0.0156  0.1421
37324W        W46124  13.320   5.278  10.096 -0.4606  0.0363 -0.0017
37325W        W46125  24.655   5.838  13.288  0.1552 -0.1608 -0.1461
37326W        W46126  13.616   4.085  23.057 -0.0050 -0.1301 -0.1644
37327W        W46127  21.562   1.744  31.660 -0.0008 -0.0883  0.2907
37328W        W46128   2.592   6.612  31.123 -0.0303 -0.0656 -0.0893
37329W        W46129  21.530   5.821   9.451  0.1482 -0.0358 -0.0882
37330W        W46130   6.356   5.588  24.588  0.0322 -0.0969 -0.1354
37331W        W46131   2.046   5.172  31.350 -0.0945  0.1832  0.2370
37332W        W46132   9.733   4.803  20.760  0.1616 -0.0431 -0.1036
37333W        W46133   2.219   2.808  11.594  0.0112 -0.0759 -0.1239
37334W        W46134  16.999   2.809   3.561  0.0973 -0.2365 -0.0230
37335W        W46135  20.240   6.458  14.972  0.2246 -0.1511  0.3073
37336W        W46136  23.754   7.192  10.345 -0.0579 -0.0046  0.2947
37337W        W46137   1.672   5.927   3.034 -0.0360 -0.2952 -0.2818
37338W        W46138   6.120   1.955  23.329  0.0331  0.0038  0.0518
37339W        W46139  14.202   4.013   6.747 -0.0409  0.0757 -0.0699
37340W        W46140  19.444   6.060   1.952  0.2193 -0.0395 -0.1591
37341W        W46141  12.829   4.026  13.084 -0.1185  0.2093 -0.0700
37342W        W46142  16.480   2.046   3.850 -0.0241 -0.1655  0.0601
37343W        W46143  18.938   2.579  25.844 -0.1761  0.1209  0.0586
37344W        W46144  18.149   0.934  22.260 -0.2598  0.1825  0.0424
37345W        W46145   8.369   4.513  20.783 -0.0009 -0.1424  0.1330
37346W        W46146  22.445   3.732  25.426  0.0836  0.0775  0.0685
37347W        W46147  16.533   3.874  15.289  0.0097  0.0278  0.0334
37348W        W46148   9.813   7.681  24.982 -0.6251  0.0374  0.0307
37349W        W46149  14.591   1.118   6.892  0.2641 -0.0905 -0.2849
37350W        W46150  17.481   0.424  23.930 -0.1283  0.0436 -0.3753
37351W        W46151   5.970   3.313  17.295 -0.1333 -0.2381 -0.1398
37352W        W46152  17.939   1.541  27.567  0.0805  0.1605 -0.1454
37353W        W46153   7.130   6.887   8.936  0.1467  0.0941 -0.0687
37354W        W46154  14.735   0.409  27.269 -0.4035  0.5320 -0.1345
37355W        W46155  15.639   2.803   2.816 -0.1421 -0.4834  0.1385
37356W        W46156   2.901   5.166  31.429  0.3051  0.0942  0.1199
37357W        W46157  16.712   7.275   3.099  0.1294  0.2482  0.3000
37358W        W46158   8.381   0.620  17.024  0.0336  0.1579 -0.1539
37359W        W46159   8.451   6.748  15.862 -0.2018 -0.0533 -0.2932
37360W        W46160   8.496   1.219  10.328  0.3154  0.1382  0.4306
37361W        W46161  16.832   5.869   6.951 -0.0942 -0.1629  0.0001
37362W        W46162  16.103   0.377  27.895 -0.0776 -0.1013 -0.1448
37363W        W46163  17.671   4.255   9.575  0.0081 -0.1965 -0.0659
37364W        W46164   5.751   7.494  19.487  0.1548 -0.2740  0.2572
37365W        W46165  22.991   5.417   1.435  0.2107  0.2106 -0.0143
37366W        W46166   6.308   2.405  14.944  0.2226 -0.0011  0.1340
37367W        W46167   7.347   5.917   8.096 -0.1233 -0.0883 -0.0823
37368W        W46168   3.157   6.966  26.616 -0.0139  0.2136 -0.0496
37369W        W46169  24.751   5.895   6.726 -0.1142 -0.0574 -0.1393
37370W        W46170  12.805   4.479  23.584  0.0221 -0.1445  0.1271
37371W        W46171  10.441   1.450  18.039  0.1582  0.0013  0.1585
37372W        W46172  14.042   2.726   4.901 -0.0532 -0.1304  0.1682
37373W        W46173  16.518   6.832   0.955 -0.0592 -0.2416  0.0420
37374W        W46174   8.931   5.366  30.023  0.0356 -0.0264  0.0044
37375W        W46175  15.432   2.736   9.318 -0.4419 -0.0553  0.1356
37376W        W46176  16.124   2.244   8.140  0.0087 -0.2852 -0.1576
37377W        W46177  16.465   4.247   9.248 -0.2714  0.1722 -0.0088
37378W        W46178   8.728   5.193  28.577  0.2566  0.1218 -0.2557
37379W        W46179  21.759   0.202  12.072  0.0128 -0.3381  0.1321
37380W        W46180  20.602   4.216   6.144 -0.0298 -0.1516  0.0016
37381W        W46181  21.709   2.723  17.087  0.0323 -0.1158  0.0305
37382W        W46182  20.431   7.683  29.057  0.0440 -0.0095 -0.0939
37383W        W46183  16.403   1.694   8.896 -0.0810  0.2273  0.0483
37384W        W46184  18.501   5.539  29.149  0.0525 -0.2546  0.1343
37385W        W46185   1.161   4.866   3.796 -0.0620  0.0980  0.2544
37386W        W46186  15.233   2.572  15.754 -0.2921 -0.2357  0.1998
37387W        W46187  11.921   1.897   0.124  0.2000 -0.2099 -0.1203
37388W        W46188  15.308   6.587  26.419  0.2435  0.0972 -0.1094
37389W        W46189  21.606   7.299  21.876 -0.3850 -0.1068 -0.1335
37390W        W46190   0.573   2.379   6.544 -0.1166  0.0917  0.0638
37391W        W46191   2.407   2.573  32.210 -0.0683 -0.2116  0.1665
37392W        W46192   7.765   6.701  15.257 -0.0255 -0.0828 -0.1792
37393W        W46193   8.612   6.949  16.867  0.1361 -0.2559 -0.1150
37394W        W46194  21.475   1.530  26.804  0.2487  0.2332 -0.0864
37395W        W46195   5.964   7.490   0.540 -0.0933  0.0530  0.2024
37396W        W46196   9.955   6.794   6.432 -0.0142  0.2645 -0.0156
37397W        W46197  20.000   4.256   5.544 -0.0038 -0.0206  0.0542
37398W        W46198  20.805   3.975  24.402  0.0226  0.1769 -0.3856
37399W        W46199  21.156   7.134   4.211 -0.3093 -0.3204  0.0925
37400W        W46200  20.409   6.148  30.704 -0.0588 -0.2076 -0.0661
37401W        W46201   4.129   1.771   3.604  0.1830 -0.3570  0.1216
37402W        W46202  11.937   5.739   7.596  0.1545  0.0641  0.2731
37403W        W46203   9.675   4.746  22.074 -0.1742  0.0061  0.1411
37404W        W46204  23.089   3.797  23.106 -0.1444  0.0642 -0.1608
37405W        W46205  17.958   4.684  26.945  0.0727  0.0976  0.0443
37406W        W46206   0.661   6.851  28.729 -0.4181 -0.0905  0.2935
37407W        W46207  21.539   7.579  10.676  0.0232  0.1537 -0.1734
37408W        W46208   8.987   5.040  16.145 -0.2274 -0.2500 -0.1195
37409W        W46209   2.555   3.159   1.741 -0.0862  0.2354 -0.0758
37410W        W46210   0.784   0.139  11.332  0.0968  0.1575 -0.5024
37411W        W46211   7.559   2.481  18.128 -0.3579  0.1493  0.1174
37412W        W46212   8.096   2.738  28.264 -0.1987  0.0342 -0.0670
37413W        W46213  10.089   3.821  19.294  0.0602  0.1622  0.0397
37414W        W46214  12.815   3.640  23.606  0.1033 -0.1109  0.1406
37415W        W46215   7.245   0.578  28.267  0.0315 -0.3422  0.2045
37416W        W46216  22.878   2.626  30.563 -0.0028  0.3376 -0.1600
37417W        W46217  23.020   7.375  12.533 -0.0380 -0.0328 -0.0832
37418W        W46218   1.060   5.792   3.917 -0.1648 -0.2485  0.0360
37419W        W46219  22.621   1.612  10.081 -0.0347 -0.1597 -0.3332
37420W        W46220   9.437   4.698  20.282 -0.0179 -0.1567  0.2930
37421W        W46221   0.626   4.609   6.687  0.3326  0.2236  0.4586
37422W        W46222  17.847   1.248  16.460 -0.0838 -0.0021  0.1623
37423W        W46223  13.361   4.561  30.304 -0.0129  0.1366  0.2623
37424W        W46224  10.485   5.760  22.524 -0.1999 -0.0621  0.1408
37425W        W46225  16.905   0.467   9.571  0.1140  0.2203 -0.0218
37426W        W46226   5.168   4.466  19.013  0.1771 -0.0293  0.0323
37427W        W46227   2.945   7.340   2.982  0.0531 -0.0433  0.0342
37428W        W46228   2.718   5.942  26.729  0.1687  0.3056 -0.0064
37429W        W46229  15.273   6.146  31.108 -0.0732  0.0438  0.0940
37430W        W46230   4.445   2.400  17.519 -0.0914 -0.0239 -0.2889
37431W        W46231  25.097   6.595   5.024  0.2423 -0.2753  0.0451
37432W        W46232  11.531   7.524  25.790 -0.1628 -0.4194  0.2212
37433W        W46233   6.027   1.591  20.211  0.1527  0.0893 -0.4100
37434W        W46234   9.739   2.291  20.697 -0.0930 -0.1288  0.2739
37435W        W46235   2.473   6.461  22.266  0.2411  0.3695 -0.0007
37436W        W46236  15.669   1.623  29.207  0.2497 -0.1761  0.0316
37437W        W46237  13.543   5.199  32.451 -0.1089 -0.1972 -0.0753
37438W        W46238  22.645   4.370  22.292 -0.1171 -0.1014 -0.1182
37439W        W46239   2.542   7.014   2.264 -0.0838 -0.0571  0.0149
37440W        W46240   3.430   6.139  29.678  0.0750  0.2479  0.1558
37441W        W46241  22.917   2.740  26.568  0.1925 -0.1248  0.1230
37442W        W46242  18.877   6.660  14.850  0.0386  0.1262  0.0408
37443W        W46243   8.564   4.397  25.365  0.2017  0.0136 -0.2682
37444W        W46244  13.260   6.587  24.001 -0.0344  0.0075  0.1232
37445W        W46245   4.752   6.776   4.088 -0.0194  0.0574  0.0323
37446W        W46246  25.106   4.228  28.023  0.1257 -0.0145  0.3546
37447W        W46247   0.792   7.493  30.334 -0.0843 -0.2431 -0.1054
37448W        W46248  19.807   4.811  16.607 -0.0994  0.1801  0.2142
37449W        W46249  23.622   0.027   8.404  0.1390  0.1773  0.1333
37450W        W46250   1.543   2.346  23.905 -0.1837 -0.0223 -0.1350
37451W        W46251   2.092   4.039  26.936 -0.0439  0.0121  0.1098
37452W        W46252  13.718   2.301  30.966  0.0250  0.3333  0.1420
37453W        W46253  13.882   7.358   9.062 -0.1148  0.1997  0.0305
37454W        W46254  17.946   2.982   9.345  0.3240  0.0404 -0.0087
37455W        W46255  15.450   1.145  26.157  0.1555  0.3335  0.2100
37456W        W46256  16.020   0.105  11.969 -0.0246  0.1873 -0.0143
37457W        W46257  11.541   2.821  27.916  0.1454  0.2291 -0.0016
37458W        W46258  22.807   7.203   4.810  0.3526 -0.0219  0.0039
37459W        W46259  15.166   1.205   0.028 -0.2341  0.1224 -0.0988
37460W        W46260  23.528   1.149  30.777 -0.1508  0.1797 -0.0437
37461W        W46261   4.633   4.595  28.287  0.1291 -0.0518 -0.2573
37462W        W46262   9.693   4.518   9.890 -0.3591  0.1208 -0.2604
37463W        W46263  14.193   2.209  25.042  0.0295 -0.1815 -0.0741
37464W        W46264  16.231   5.293   7.660 -0.3672  0.1211 -0.0518
37465W        W46265  10.993   4.089   4.436 -0.0071 -0.3606 -0.3107
37466W        W46266  12.119   1.180  19.750 -0.1440  0.0084  0.0366
37467W        W46267   0.628   0.402   8.397 -0.1434  0.1172  0.2084
37468W        W46268   8.661   2.215   9.914  0.0608  0.1416  0.0864
37469W        W46269  23.897   1.497   2.385 -0.1243 -0.3611 -0.0805
37470W        W46270  16.920   4.926  11.253 -0.1706 -0.2959  0.0429
37471W        W46271   6.834   4.526   8.251 -0.3793  0.0944 -0.2502
37472W        W46272  21.449   1.204   8.808  0.0955 -0.0886  0.0405
37473W        W46273  11.449   6.158   6.780 -0.1100 -0.0939 -0.0286
37474W        W46274   4.471   4.681   0.972 -0.0148  0.0346  0.0796
37475W        W46275  15.169   3.230  22.966 -0.0608  0.0862 -0.2482
37476W        W46276  16.589   5.743  30.903  0.1676  0.1610  0.1152
37477W        W46277  10.334   0.639  28.515 -0.1564 -0.1429 -0.2678
37478W        W46278  20.161   5.930  11.599 -0.2472  0.0932 -0.3451
37479W        W46279  22.477   4.558   8.223 -0.0963 -0.2275 -0.3088
37480W        W46280   6.027   5.998  26.326  0.0366 -0.2171 -0.0299
37481W        W46281   9.197   1.723   6.757 -0.0753  0.1773 -0.1782
37482W        W46282   3.412   2.897  21.895 -0.1040  0.3712  0.1330
37483W        W46283  14.146   0.325  22.117 -0.3996 -0.0498  0.0218
37484W        W46284   2.365   1.050   5.211  0.1878  0.0343  0.3309
37485W        W46285  23.959   5.557   4.011 -0.0994 -0.1270  0.1306
37486W        W46286  20.950   1.158   6.733  0.1219 -0.1142 -0.2254
37487W        W46287   2.246   2.441  31.640 -0.0996  0.2021 -0.1459
37488W        W46288   1.761   1.063  10.127 -0.2257 -0.3150  0.1059
37489W        W46289   9.903   7.400   8.125 -0.0897  0.1542 -0.0173
37490W        W46290   8.713   5.939  32.056  0.2419 -0.1095  0.0025
37491W        W46291  17.021   7.781  32.365 -0.2613 -0.1529 -0.1819
37492W        W46292   8.534   6.804  27.023  0.0874  0.1301 -0.0876
37493W        W46293  19.569   1.714  12.508 -0.0204  0.0986 -0.1144
37494W        W46294  22.085   6.064  29.575 -0.2345  0.2167 -0.0308
37495W        W46295  14.508   1.239   1.317 -0.3693  0.1919  0.0441
37496W        W46296  18.243   7.053   8.728  0.2891 -0.2900  0.1575
37497W        W46297  21.754   1.447   3.827 -0.1883  0.0259  0.0200
37498W        W46298  18.473   1.627   1.627 -0.0102 -0.0724  0.2161
37499W        W46299   9.934   5.796  18.105  0.1348  0.2794  0.0311
37500W        W46300  21.891   2.974  30.100 -0.0645  0.0153 -0.0066
37501W        W46301  11.446   0.004   7.516  0.0908  0.1156  0.0731
37502W        W46302   1.514   1.001  10.591 -0.0061  0.3697 -0.1697
37503W        W46303   9.756   6.494  21.686 -0.1411 -0.0524  0.0004
37504W        W46304  10.479   7.558   4.713 -0.1214  0.3242  0.1950
37505W        W46305  14.684   0.436  10.739 -0.1519 -0.1537  0.0136
37506W        W46306   0.560   1.032   6.997  0.0675 -0.0413 -0.0112
37507W        W46307  17.020   6.120   3.621 -0.0630 -0.0383 -0.0689
37508W        W46308   0.653   7.795   4.348 -0.0581  0.1238  0.2649
37509W        W46309  13.615   4.964  31.083  0.2142  0.4134  0.0375
37510W        W46310   3.405   4.467  18.469  0.0491  0.2389  0.0402
37511W        W46311   0.291   4.222   9.246  0.1292 -0.0354  0.1267
37512W        W46312   3.786   0.509  30.469  0.1365 -0.1653  0.3146
37513W        W46313  21.178   7.233  21.600 -0.2293  0.1391 -0.0836
37514W        W46314   7.709   5.621   8.217  0.1945 -0.0291  0.3708
37515W        W46315   0.132   6.531   1.786  0.2103 -0.2043 -0.2269
37516W        W46316  19.937   7.379   3.764 -0.2760  0.1762 -0.0312
37517W        W46317   2.677   2.279  10.865 -0.2019  0.0459  0.0532
37518W        W46318   1.484   1.058  20.607  0.1299 -0.0185  0.0175
37519W        W46319   4.256   1.256   8.461  0.0978  0.0530 -0.1529
37520W        W46320  23.949   3.230  28.909  0.1168  0.0679  0.2013
37521W        W46321  14.152   2.311  26.400  0.0918  0.3448  0.0085
37522W        W46322  14.395   4.128  13.696 -0.0739 -0.3307 -0.0509
37523W        W46323  20.477   2.209  12.533  0.0312 -0.2973 -0.3000
37524W        W46324  18.485   2.001  30.503 -0.1666 -0.2954 -0.0421
37525W        W46325   8.662   2.569  26.069 -0.0768  0.2751  0.0343
37526W        W46326   0.333   1.665  32.035  0.0616  0.3570  0.1390
37527W        W46327  11.973   2.568  28.925  0.0434 -0.2875 -0.2639
37528W        W46328   0.596   3.734  30.656  0.0324  0.1125 -0.0700
37529W        W46329  10.788   5.805   2.720  0.1218 -0.0447 -0.0117
37530W        W46330   5.138   7.515   9.235  0.3544  0.0098 -0.2700
37531W        W46331  20.105   1.282  11.035 -0.0583  0.3830 -0.0541
37532W        W46332  24.745   7.581  20.933 -0.0065  0.0537  0.0644
37533W        W46333   7.178   6.276  14.976  0.0558 -0.0950  0.0526
37534W        W46334   4.242   2.245  17.039 -0.0120  0.0260  0.0949
37535W        W46335   8.205   4.300  27.808 -0.2351 -0.2032 -0.2079
37536W        W46336   9.490   1.290   6.745  0.1573 -0.0909 -0.0662
37537W        W46337   4.337   5.915   9.694 -0.1151  0.0645 -0.1045
37538W        W46338   0.690   4.484   1.268  0.1676 -0.1439  0.0961
37539W        W46339   3.078   1.119  18.931  0.0363  0.1244  0.2595
37540W        W46340   3.401   0.306  10.301  0.1827  0.1279  0.1521
37541W        W46341  19.976   3.098  27.815  0.1693  0.1919  0.0898
37542W        W46342  11.452   3.312   9.098 -0.0950  0.2252 -0.0468
37543W        W46343  17.459   0.942  25.493  0.1616  0.1581  0.0839
37544W        W46344  13.601   4.652   0.007 -0.0645 -0.3003 -0.1378
37545W        W46345   7.330   4.764   7.580  0.3241 -0.3144  0.1294
37546W        W46346   9.127   5.364  15.719  0.0863 -0.0806  0.0722
37547W        W46347   3.444   3.497   7.568 -0.0546 -0.0741 -0.0162
37548W        W46348   1.177   5.273   9.726 -0.0854 -0.0266 -0.0655
37549W        W46349  20.937   3.982  16.798  0.4028  0.1514 -0.4071
37550W        W46350  21.482   1.390  22.844 -0.1195  0.0274  0.1377
37551W        W46351   6.197   5.658   6.481  0.1417 -0.0607 -0.0999
37552W        W46352  16.801   1.649  16.934  0.0117  0.1613 -0.0009
37553W        W46353  23.847   7.858  30.794 -0.0375 -0.0857  0.1546
37554W        W46354  18.691   2.975   8.348  0.4340 -0.1091  0.2228
37555W        W46355  22.919   2.197  31.907 -0.0335 -0.1735 -0.1851
37556W        W46356  19.908   6.265  28.283  0.2152 -0.0028  0.1274
37557W        W46357   4.782   1.474   0.573 -0.0355  0.0716  0.2398
37558W        W46358   7.965   2.087   5.900  0.1624  0.2672  0.0851
37559W        W46359   8.198   7.584   8.014  0.4623  0.3252 -0.0545
37560W        W46360  19.833   2.612  30.108 -0.1802  0.0964 -0.0295
37561W        W46361  12.119   5.365  10.521 -0.5395  0.1472 -0.1774
37562W        W46362   6.291   1.557  20.817  0.0901  0.2008  0.1894
37563W        W46363  12.588   7.167  30.946  0.1620 -0.2280  0.0622
37564W        W46364  21.725   1.309  31.879 -0.1560  0.1972 -0.2625
37565W        W46365  18.245   4.136  10.294  0.1161 -0.1567  0.1267
37566W        W46366  16.825   0.874  24.762 -0.2820 -0.2350 -0.2546
37567W        W46367   1.474   5.981   4.801 -0.0833 -0.0576  0.2188
37568W        W46368   8.300   5.141   7.665 -0.0815 -0.4005 -0.0802
37569W        W46369  24.396   4.788  23.380 -0.1284 -0.0119  0.4434
37570W        W46370   9.537   3.587  28.142 -0.0738 -0.0698  0.2116
37571W        W46371   6.628   3.561  17.964 -0.0031  0.2766 -0.4498
37572W        W46372  24.494   3.846  12.965 -0.0288 -0.0250 -0.1208
37573W        W46373  21.650   3.700  32.148 -0.0271  0.1527  0.2280
37574W        W46374  23.714   2.520   7.375  0.3848  0.0656 -0.0274
37575W        W46375  19.824   2.316  24.612 -0.0526 -0.0335  0.2523
37576W        W46376  18.216   2.683  30.375 -0.1540 -0.0263 -0.0441
37577W        W46377  20.047   2.494   6.507  0.0625  0.1282 -0.1178
37578W        W46378  17.804   5.270  23.188 -0.2980  0.1459 -0.0813
37579W        W46379   0.771   5.575  12.207  0.0472  0.0456 -0.1803
37580W        W46380  21.428   6.149  15.505  0.1644  0.2928 -0.2806
37581W        W46381   4.130   1.813  29.576 -0.2893  0.1033  0.0024
37582W        W46382   1.290   0.054  11.506  0.0014  0.2093  0.1238
37583W        W46383   9.901   4.611  16.305  0.0210 -0.2113 -0.0124
37584W        W46384   6.856   4.166  27.454  0.3447 -0.0282 -0.0200
37585W        W46385  11.172   0.984  20.213  0.0770 -0.1029 -0.0979
37586W        W46386  11.292   0.652  21.904  0.0148 -0.2216 -0.2961
37587W        W46387   6.537   5.636  20.303  0.2373  0.0537 -0.0247
37588W        W46388   7.965   0.613  30.221  0.1821  0.0014  0.1435
37589W        W46389  11.186   3.887  18.865 -0.0486 -0.1699  0.1619
37590W        W46390  17.866   7.314   4.334 -0.1115 -0.0045 -0.2710
37591W        W46391  24.061   1.825  20.620 -0.0664  0.0672 -0.0463
37592W        W46392   2.121   1.555   2.984 -0.0284 -0.0910  0.0675
37593W        W46393   9.062   1.644   2.143  0.1306  0.0083 -0.3371
37594W        W46394   0.422   6.283   3.569 -0.0267 -0.0522 -0.0459
37595W        W46395   5.130   0.886  18.270 -0.1693 -0.0047  0.0707
37596W        W46396   3.168   0.181  17.413  0.1852 -0.1926  0.5074
37597W        W46397  12.872   3.255  28.350 -0.0394 -0.0922  0.1840
37598W        W46398   5.481   5.190   6.566  0.2291  0.1706  0.0058
37599W        W46399  24.131   2.186   5.053  0.0410  0.0421  0.1259
37600W        W46400  16.814   1.041  24.298  0.0054  0.0191 -0.2229
37601W        W46401   7.239   1.340   9.101  0.2064 -0.0825 -0.0410
37602W        W46402  18.244   7.658  17.442  0.1898  0.5212  0.0088
37603W        W46403   7.300   1.103  31.023  0.1799 -0.0661 -0.0866
37604W        W46404   9.800   4.278   9.259 -0.0139 -0.1136 -0.0322
37605W        W46405  24.798   6.569  26.423  0.0675 -0.4190 -0.1779
37606W        W46406  22.018   3.375  12.444 -0.1845 -0.0971  0.3124
37607W        W46407   5.717   0.515  25.284 -0.2421  0.1057 -0.2306
37608W        W46408  21.705   6.544  12.198  0.0223  0.2761 -0.0949
37609W        W46409  14.607   0.968  30.952 -0.2066  0.2808 -0.1475
37610W        W46410  18.856   0.874  16.655 -0.4585 -0.1644  0.0185
37611W        W46411   9.556   3.120  18.471 -0.1297  0.2312 -0.1635
37612W        W46412  12.958   2.288  30.656 -0.0897  0.1071 -0.0538
37613W        W46413  20.480   6.576  22.880 -0.1315  0.2056  0.0385
37614W        W46414  16.685   1.745  25.859  0.0778  0.2952 -0.0743
37615W        W46415  24.490   1.050  31.358  0.4692  0.0175 -0.0928
37616W        W46416  23.688   0.452   9.668 -0.0031 -0.0194 -0.0412
37617W        W46417  16.614   4.449   9.725 -0.1619 -0.0639  0.1341
37618W        W46418   7.786   1.558  27.485  0.1558  0.0221  0.1782
37619W        W46419   2.547   1.614   6.360  0.1293 -0.0802 -0.2685
37620W        W46420  19.670   2.825  15.267 -0.0130 -0.1995 -0.1857
37621W        W46421  14.322   4.349   7.479 -0.0887 -0.0398 -0.0801
37622W        W46422  13.396   0.449  11.571 -0.0839 -0.2786  0.0385
37623W        W46423  23.730   6.828   9.879 -0.2324 -0.0643 -0.1664
37624W        W46424   2.690   6.784  16.937  0.1683  0.0589  0.1034
37625W        W46425   6.869   7.453   3.325  0.1285  0.0866 -0.1009
37626W        W46426  14.362   6.754   8.173 -0.0805 -0.1732 -0.0062
37627W        W46427  22.441   5.541   8.336  0.2742  0.3575  0.0733
37628W        W46428   7.037   0.725  15.545  0.3069  0.1251 -0.0066
37629W        W46429   1.600   7.493  30.131 -0.1386  0.3142 -0.1385
37630W        W46430  12.828   2.409  31.313 -0.1070  0.1539  0.1857
37631W        W46431  18.079   7.643   3.223  0.0213  0.0696 -0.1218
37632W        W46432  22.056   3.086  13.904  0.2396  0.0007 -0.0572
37633W        W46433  15.545   4.145  10.990 -0.0739 -0.1023  0.2485
37634W        W46434  18.924   4.611  12.682  0.0157 -0.0458 -0.1425
37635W        W46435  22.054   2.636  21.989  0.0500 -0.0097  0.0748
37636W        W46436  24.982   7.766   0.650  0.3881  0.3524  0.0295
37637W        W46437  14.908   0.727   5.315 -0.1780 -0.1155 -0.0057
37638W        W46438   7.512   6.732   2.313 -0.3374 -0.2062 -0.1543
37639W        W46439  16.538   2.128  14.615  0.3082 -0.1238  0.0286
37640W        W46440  17.919   5.569  14.366  0.2131  0.0796  0.1032
37641W        W46441  21.228   6.630  27.262  0.1853 -0.0289 -0.1601
37642W        W46442  14.027   4.264  28.646 -0.0699 -0.0277  0.1185
37643W        W46443  10.612   2.254  23.382  0.1806 -0.4009  0.0102
37644W        W46444  24.896   7.712  24.072 -0.0131 -0.1720 -0.2261
37645W        W46445  24.834   3.951   9.270  0.0641  0.0044 -0.1255
37646W        W46446  16.208   3.033  24.899 -0.0629  0.1155 -0.2088
37647W        W46447  16.643   2.494  17.914 -0.1492  0.1081 -0.0862
37648W        W46448  17.540   3.637   1.302 -0.2360  0.2453 -0.3766
37649W        W46449  19.318   2.199   8.049 -0.0935 -0.1858 -0.2316
37650W        W46450  18.222   0.129   6.369 -0.0501 -0.1792 -0.2318
37651W        W46451  15.308   4.366   4.551 -0.0225  0.2644  0.0196
37652W        W46452  14.826   4.366  30.067 -0.2490  0.2086  0.0061
37653W        W46453   4.950   3.889  21.278 -0.1622 -0.3090 -0.0233
37654W        W46454  12.842   2.003  23.654  0.3038  0.0652 -0.0169
37655W        W46455   4.385   1.390  21.938 -0.1454  0.1671 -0.1905
37656W        W46456   5.553   2.343   5.914  0.0524 -0.3519  0.1920
37657W        W46457   6.558   4.520  26.260 -0.0794  0.2457  0.4155
37658W        W46458   7.511   4.165  28.499  0.0938 -0.0128 -0.1020
37659W        W46459   6.784   6.931   0.090  0.1497  0.1699 -0.0283
37660W        W46460  19.079   7.549   8.564  0.0111  0.0021  0.0921
37661W        W46461   7.287   7.600   6.732  0.1411  0.1256 -0.0084
37662W        W46462   6.277   7.565  17.956 -0.1553  0.0373  0.0696
37663W        W46463  19.329   1.592   0.575  0.0272 -0.2439  0.3087
37664W        W46464  23.890   4.702   0.078 -0.1123 -0.0888  0.1112
37665W        W46465   4.443   3.770  26.373  0.0444  0.1507  0.0258
37666W        W46466   4.303   3.900  18.342  0.1395 -0.1527  0.0889
37667W        W46467  12.467   4.687  30.444  0.1262  0.2704  0.2414
37668W        W46468  13.181   6.257  30.118 -0.0295 -0.2723  0.4006
37669W        W46469   4.465   3.587  17.310 -0.2858  0.0462  0.1902
37670W        W46470   8.168   4.170   7.154 -0.2868  0.0670  0.1717
37671W        W46471  24.732   4.689  23.818  0.0336 -0.1379  0.1255
37672W        W46472  11.865   2.793   8.491 -0.0016 -0.0242  0.2206
37673W        W46473   1.695   4.006  30.104 -0.2360  0.0173  0.0367
37674W        W46474  17.523   6.273   6.655  0.1915  0.0284 -0.0917
37675W        W46475  22.524   4.090  31.028  0.1000  0.1826 -0.2783
37676W        W46476   1.672   4.321  12.062 -0.1909 -0.1740 -0.1218
37677W        W46477  21.267   4.190  30.573 -0.1824 -0.2135 -0.0745
37678W        W46478  23.253   5.328  30.062 -0.0777  0.0354  0.1512
37679W        W46479  21.265   1.793  25.426  0.1228  0.1949  0.0993
37680W        W46480  19.442   2.631  29.188  0.1638  0.0756 -0.1058
37681W        W46481  11.495   6.426  30.211  0.2622  0.1425  0.1592
37682W        W46482  14.529   5.668  25.556  0.1791  0.0336 -0.3589
37683W        W46483  10.382   6.146  23.573 -0.1296 -0.0812 -0.0478
37684W        W46484   5.397   3.558  22.341  0.0591  0.4316  0.0865
37685W        W46485  19.634   1.835  24.809  0.2049  0.0857 -0.0699
37686W        W46486   3.455   4.399  11.033  0.2831  0.2475 -0.1905
37687W        W46487   4.322   6.002  27.880  0.2110  0.1716 -0.0268
37688W        W46488  10.532   1.339   0.928  0.1840  0.0320  0.1729
37689W        W46489  18.485   3.729   3.623  0.2777 -0.1102 -0.2008
37690W        W46490  18.457   7.604  16.940  0.0172  0.1027 -0.0234
37691W        W46491  10.054   7.016  20.660 -0.2462 -0.1238  0.2609
37692W        W46492  20.252   4.094  24.291  0.0468 -0.0025 -0.0827
37693W        W46493  20.870   0.877  13.868  0.0182  0.2270  0.0845
37694W        W46494   6.879   5.952  25.399 -0.3252 -0.0104  0.0294
37695W        W46495   3.005   3.658   8.546  0.1139 -0.2238  0.1717
37696W        W46496  14.781   0.095   4.874 -0.0754  0.2784 -0.0807
37697W        W46497  11.154   2.176   4.040  0.0774 -0.0226 -0.3040
37698W        W46498   0.947   3.068   8.302  0.3418  0.0002  0.3911
37699W        W46499   4.974   2.029   6.095 -0.2346  0.0705  0.0795
37700W        W46500  10.883   3.288   1.513 -0.0589 -0.1793  0.2087
37701W        W46501   7.034   7.076  19.490 -0.0621 -0.0312  0.2565
37702W        W46502   0.110   4.385   1.894 -0.0622  0.1148  0.1212
37703W        W46503   0.517   3.570  28.115  0.1961 -0.1227 -0.2309
37704W        W46504   0.356   4.972  27.462 -0.0645  0.0324  0.1238
37705W        W46505   2.346   4.177  29.500 -0.0547 -0.2691  0.1258
37706W        W46506  18.865   5.981   2.560 -0.2998 -0.1439  0.2271
37707W        W46507  12.848   1.773   4.172 -0.1950  0.1300  0.0532
37708W        W46508   6.771   5.026  19.074  0.2302  0.1182  0.1714
37709W        W46509  19.128   2.184  10.296 -0.0917  0.2706  0.3948
37710W        W46510  14.425   5.549   9.839 -0.2297  0.0614  0.0198
37711W        W46511   7.268   0.728   4.926  0.1496 -0.0011 -0.0261
37712W        W46512   5.416   4.274  20.583  0.0009 -0.1559  0.1222
37713W        W46513  16.733   5.826   3.389 -0.1234  0.0521 -0.0883
37714W        W46514  22.812   0.579  24.419 -0.2109 -0.0733  0.0802
37715W        W46515  19.205   7.157   0.990  0.1661  0.0419  0.1194
37716W        W46516   4.398   6.066   2.146 -0.1553  0.3401 -0.2706
37717W        W46517  14.606   1.285  20.809 -0.1290  0.0334  0.1304
37718W        W46518   8.308   6.751  26.313 -0.2141 -0.1931 -0.0747
37719W        W46519  15.063   5.444   8.047 -0.1016 -0.0242  0.0621
37720W        W46520   4.834   7.841  30.786  0.3354  0.0645  0.0894
37721W        W46521  24.325   1.309   3.453  0.0250 -0.2309 -0.0591
37722W        W46522   3.834   1.187   5.167  0.0571  0.0601 -0.5262
37723W        W46523   6.956   2.596  19.976  0.0433  0.0536 -0.0970
37724W        W46524  11.670   1.214  18.032  0.0474 -0.0993  0.0175
37725W        W46525  22.742   3.225  21.707 -0.1889 -0.2431 -0.2207
37726W        W46526   2.567   6.021  25.732 -0.2622  0.0216  0.2429
37727W        W46527  11.411   4.916   4.915  0.1004 -0.0377  0.2565
37728W        W46528  19.615   3.168  25.871 -0.2111 -0.0738  0.0169
37729W        W46529  10.490   4.405  19.651  0.0609 -0.0391  0.0534
37730W        W46530   2.086   4.396  25.669  0.0180  0.1422 -0.0663
37731W        W46531   0.738   1.621  11.784  0.0394 -0.1121  0.0903
37732W        W46532  11.900   5.643  20.393  0.0917  0.3199  0.2266
37733W        W46533   9.363   7.789  27.608 -0.0027 -0.2741  0.1074
37734W        W46534  10.791   6.622  32.503 -0.3806  0.0897 -0.2381
37735W        W46535  23.542   2.191  21.724  0.2467 -0.2866  0.0111
37736W        W46536  20.481   2.331  13.749  0.0205  0.0750 -0.2178
37737W        W46537  24.232   6.452  19.912  0.1659 -0.1695 -0.0765
37738W        W46538   5.488   1.832  16.209 -0.0977  0.2320 -0.1319
37739W        W46539  12.216   6.383  25.719 -0.1317 -0.1096  0.1473
37740W        W46540   3.266   7.721   5.515 -0.2130 -0.1213  0.0541
37741W        W46541  14.196   5.990  26.532  0.2674 -0.1680 -0.0049
37742W        W46542  21.607   0.482   8.404 -0.0809  0.1372 -0.2580
37743W        W46543  16.191   0.343   0.141 -0.1459  0.0830 -0.1561
37744W        W46544  24.090   2.404  28.372 -0.1394  0.2440  0.5410
37745W        W46545  20.409   2.825   4.656  0.1824  0.1613 -0.0261
37746W        W46546   2.361   7.187   0.280  0.1841  0.0633 -0.0995
37747W        W46547   6.272   6.244   7.280 -0.2767  0.0102 -0.0431
37748W        W46548  10.461   3.568  27.884  0.1222  0.2144  0.1216
37749W        W46549  17.295   2.853  14.778  0.0669 -0.0979 -0.0269
37750W        W46550   5.195   1.409  23.235 -0.0669  0.0394  0.2002
37751W        W46551  15.335   7.323  29.378  0.0577  0.1192  0.1658
37752W        W46552  12.747   3.507   4.715 -0.0174 -0.0438  0.0535
37753W        W46553   4.349   7.250  31.419  0.1720 -0.1325  0.0679
37754W        W46554   1.375   4.469   8.845  0.0786 -0.1943 -0.2491
37755W        W46555  14.193   5.189   9.378  0.2545 -0.2531 -0.0652
37756W        W46556  18.946   2.439  29.191  0.3740 -0.0927  0.2390
37757W        W46557  15.967   6.037  12.982 -0.2290 -0.1349 -0.1571
37758W        W46558  17.581   4.507  11.610 -0.0948 -0.1196  0.3410
37759W        W46559   3.638   6.557  27.229 -0.4790  0.1920 -0.0352
37760W        W46560  21.361   2.765   1.402 -0.2244  0.2851  0.0328
37761W        W46561  16.962   1.852   9.251 -0.0431  0.2119  0.0837
37762W        W46562   1.004   7.396   9.646 -0.1274  0.3734 -0.1704
37763W        W46563  18.053   3.891   1.241 -0.1899 -0.1669 -0.1657
37764W        W46564   4.843   3.527   3.343  0.1756 -0.1861  0.3406
37765W        W46565  19.445   7.103  31.993  0.3168  0.3679  0.1993
37766W        W46566  18.142   0.943  14.605 -0.1300 -0.2706  0.0742
37767W        W46567   6.772   6.937   0.590  0.1545 -0.1474  0.2038
37768W        W46568   6.360   3.416  18.356 -0.0717  0.3428 -0.1319
37769W        W46569  18.172   5.554   5.923  0.0055 -0.3817  0.2529
37770W        W46570   9.784   1.750  25.047  0.0146 -0.1218  0.3010
37771W        W46571   7.545   7.246   8.177 -0.1500  0.1576  0.1916
37772W        W46572   3.533   4.698  30.515 -0.0464  0.0019  0.2367
37773W        W46573  18.636   7.405   9.655  0.0509 -0.1070 -0.1067
37774W        W46574  10.564   0.661   2.505 -0.2363 -0.3020  0.0993
37775W        W46575   4.483   4.304  18.496 -0.0955 -0.2281  0.0359
37776W        W46576  17.813   2.059   1.673 -0.0570 -0.0818  0.1890
37777W        W46577  13.802   1.355  29.648 -0.1781 -0.0977 -0.0029
37778W        W46578   3.797   3.326  16.598  0.0932 -0.0568  0.3652
37779W        W46579  10.043   6.345   5.084 -0.1527  0.2463 -0.1500
37780W        W46580   3.350   1.462  22.361  0.1656 -0.1287 -0.1404
37781W        W46581  18.733   0.748  14.872  0.1309  0.1259  0.1044
37782W        W46582  15.537   0.745   5.330 -0.0622 -0.1658  0.1469
37783W        W46583  10.756   2.770   6.439  0.3420  0.2365  0.1312
37784W        W46584   7.780   6.940  28.896 -0.0805 -0.1242 -0.1157
37785W        W46585  18.405   5.744  12.028 -0.0576 -0.1350 -0.2904
37786W        W46586   8.549   7.007  10.712  0.3185  0.2342 -0.0228
37787W        W46587  19.900   7.406  13.939  0.4192  0.0663  0.1606
37788W        W46588  21.475   7.831  31.159 -0.4125  0.0829 -0.0790
37789W        W46589   1.722   2.678   3.876  0.0139  0.0748 -0.1140
37790W        W46590  22.162   6.021   7.699 -0.0639  0.0873  0.2236
37791W        W46591  12.713   4.831  27.347 -0.0099 -0.0251 -0.1724
37792W        W46592  13.565   0.394  31.703  0.1579 -0.0364 -0.4031
37793W        W46593   3.091   2.642   3.162  0.0579 -0.0057 -0.1239
37794W        W46594  22.795   5.618  23.183 -0.3759 -0.3088 -0.2669
37795W        W46595  21.289   3.222  12.854  0.0197  0.0918  0.0027
37796W        W46596  17.836   7.781  25.188  0.2355  0.0561 -0.1168
37797W        W46597   3.652   6.542  19.210  0.1996  0.2300 -0.1911
37798W        W46598  23.716   1.605   1.839 -0.2509 -0.0484  0.1651
37799W        W46599  15.679   0.194  14.037  0.1254 -0.2471  0.1599
37800W        W46600  15.962   7.598  14.028 -0.1221 -0.0872  0.0848
37801W        W46601   8.610   6.413  24.918  0.0531 -0.1445  0.3326
37802W        W46602   3.005   4.039  29.499 -0.0020  0.0459 -0.0937
37803W        W46603  16.775   2.001  12.498  0.4766  0.0732  0.3888
37804W        W46604  23.096   7.779  10.875 -0.2761 -0.0005  0.0714
37805W        W46605   8.449   7.044   4.417  0.0877 -0.3221  0.0351
37806W        W46606  22.105   0.705   5.415 -0.1174 -0.2285 -0.1761
37807W        W46607  18.762   1.314  12.707 -0.0070 -0.1101 -0.1668
37808W        W46608  11.466   6.554   5.599 -0.2384 -0.0650  0.0326
37809W        W46609  16.027   5.034  17.417  0.1288  0.1550  0.2417
37810W        W46610  19.398   2.808   4.377 -0.1121  0.1326  0.1216
37811W        W46611   5.303   4.778   6.771 -0.0037  0.2858 -0.0688
37812W        W46612  11.958   6.732  23.214  0.1223  0.0511 -0.0441
37813W        W46613  11.798   1.671   9.010  0.1824 -0.0733 -0.1859
37814W        W46614  20.557   4.231   9.562  0.0022  0.3240  0.0096
37815W        W46615  15.496   3.425   9.657 -0.1669  0.3247  0.1104
37816W        W46616   7.951   4.779  27.517 -0.0535 -0.1223  0.1191
37817W        W46617   9.229   0.526  23.063  0.1316 -0.0211  0.1819
37818W        W46618  20.569   7.684  13.178  0.2450  0.2411 -0.0446
37819W        W46619  16.003   2.921  26.907  0.2447 -0.1043  0.0362
37820W        W46620   7.460   7.064  18.044  0.1311 -0.2210 -0.3007
37821W        W46621   7.446   7.610  24.773  0.1544  0.0425  0.0783
37822W        W46622   9.611   0.823  32.326  0.3736 -0.1688 -0.1252
37823W        W46623   6.788   7.837   1.265 -0.0347  0.1192 -0.2212
37824W        W46624   0.570   4.779  22.189  0.2025 -0.1858  0.0291
37825W        W46625   3.310   4.555  27.057 -0.0167 -0.0259  0.1917
37826W        W46626  19.306   5.990  11.617 -0.1129  0.3751 -0.3668
37827W        W46627   1.716   6.036   2.558 -0.0581 -0.1856 -0.0024
37828W        W46628   3.794   0.643  19.236 -0.1752 -0.3075 -0.0379
37829W        W46629   6.731   0.042   6.436 -0.1557 -0.0460  0.1329
37830W        W46630   0.009   6.212  13.395  0.1456  0.0160  0.2206
37831W        W46631  10.817   0.566  24.488  0.4104  0.1255 -0.2168
37832W        W46632   1.320   1.089   2.035 -0.0438  0.2376  0.0122
37833W        W46633  10.502   6.584  23.694 -0.0753 -0.0252 -0.0778
37834W        W46634   5.538   5.283  29.923 -0.1730  0.1078  0.2205
37835W        W46635  23.447   2.112   0.267 -0.0218  0.0842  0.0158
37836W        W46636  13.901   3.453  12.248 -0.3607 -0.2031 -0.2721
37837W        W46637  10.921   7.126  20.411 -0.0388  0.1888  0.2025
37838W        W46638  16.288   5.339  10.065  0.0216  0.0631  0.1588
37839W        W46639   9.247   2.192  28.857 -0.1145  0.1457 -0.0218
37840W        W46640   4.190   6.981  30.893 -0.5484  0.1053  0.0625
37841W        W46641   9.293   1.613   8.366  0.1835 -0.4094 -0.1004
37842W        W46642   3.521   6.271  25.791  0.0740  0.1917  0.0721
37843W        W46643   5.920   1.847   5.918  0.2647  0.0207  0.1333
37844W        W46644  12.397   0.499   4.056 -0.0886 -0.1839  0.1172
37845W        W46645   4.655   7.461  22.580 -0.2623  0.2244  0.1750
37846W        W46646  22.951   6.008  27.448 -0.0051  0.3571 -0.3102
37847W        W46647  22.927   2.742  27.112 -0.1146 -0.2131  0.1806
37848W        W46648  20.222   1.278  22.618 -0.0339  0.1351  0.1121
37849W        W46649  19.558   1.134  23.987 -0.0821 -0.0753 -0.0560
37850W        W46650   6.683   2.406  32.520  0.0292  0.0185  0.0281
37851W        W46651  22.052   3.809   1.529 -0.1220  0.1094  0.0816
37852W        W46652   2.657   6.632  25.903 -0.2667 -0.0344 -0.0580
37853W        W46653  22.824   5.188  23.585  0.1544 -0.2867  0.1358
37854W        W46654   1.613   7.413  25.826  0.1298  0.0247 -0.0950
37855W        W46655   0.998   1.558   0.817 -0.2643 -0.1936  0.0799
37856W        W46656  14.987   4.684  28.746 -0.1067 -0.1988 -0.1860
37857W        W46657  19.741   3.137  11.953  0.0566  0.2523 -0.1164
37858W        W46658   5.791   3.876   1.459 -0.2399  0.1086 -0.0895
37859W        W46659  18.187   3.896   7.807  0.1585  0.0263  0.1097
37860W        W46660  14.314   6.229  21.744 -0.1693 -0.1734  0.4228
37861W        W46661   5.512   7.019  15.793 -0.1097  0.0479 -0.1421
37862W        W46662   7.565   5.717   1.762  0.0264  0.2501 -0.1165
37863W        W46663   1.284   0.599   2.345 -0.1298 -0.2380  0.1953
37864W        W46664  18.908   3.977   9.132 -0.0992 -0.0172  0.0551
37865W        W46665   2.021   3.015   7.451 -0.0498  0.2081  0.0759
37866W        W46666  16.421   5.462  12.358 -0.2937  0.3341 -0.1013
37867W        W46667  15.608   6.113  13.759  0.2672 -0.2939 -0.1005
37868W        W46668  21.616   2.314  24.707 -0.3041 -0.2640 -0.2277
37869W        W46669   0.824   6.420  24.980 -0.0589 -0.0298 -0.3002
37870W        W46670   9.015   6.541  31.493  0.0345 -0.1848  0.0971
37871W        W46671   5.036   6.382  24.712 -0.1579 -0.0852  0.5400
37872W        W46672  10.278   1.197  28.557 -0.3051  0.0397 -0.0145
37873W        W46673  21.904   0.143  23.317 -0.3273  0.1281 -0.0881
37874W        W46674  17.263   6.130   8.424 -0.0800  0.0296 -0.1913
37875W        W46675  11.819   1.190   3.672 -0.1769 -0.2976  0.0246
37876W        W46676  23.225   3.559   5.853  0.1623  0.3105 -0.1402
37877W        W46677   5.655   1.810  19.073  0.0850 -0.1762 -0.2864
37878W        W46678   4.069   6.756  14.757  0.0163  0.0287  0.0865
37879W        W46679   7.995   4.376  24.315 -0.1702 -0.1578  0.0401
37880W        W46680  17.713   2.172  12.141  0.5901 -0.3607  0.0561
37881W        W46681   1.359   4.837  25.474  0.0250 -0.3809  0.1663
37882W        W46682   2.533   5.174   9.368  0.2442 -0.0500  0.2518
37883W        W46683  16.223   1.181  25.192 -0.0358 -0.2595  0.2244
37884W        W46684  16.676   6.695   9.762 -0.1120 -0.0422  0.1120
37885W        W46685   5.916   0.758  17.960 -0.1074 -0.1556  0.0582
37886W        W46686   0.881   6.411  30.914  0.0230  0.0092 -0.0520
37887W        W46687   2.669   5.078   4.904 -0.0418  0.2017 -0.0636
37888W        W46688  24.610   4.950  10.183 -0.0173 -0.0787  0.0102
37889W        W46689   3.925   7.379  20.198  0.1244 -0.0414 -0.2287
37890W        W46690  22.756   3.359  14.567 -0.1783 -0.0740 -0.1364
37891W        W46691  13.619   6.284   6.812 -0.0585 -0.0195  0.4014
37892W        W46692   8.571   5.308  26.961  0.2065 -0.0328  0.1749
37893W        W46693   1.594   7.342   9.717  0.1383 -0.2722 -0.0773
37894W        W46694   4.114   4.016   2.859 -0.0389 -0.0113  0.1272
37895W        W46695   9.705   1.776   2.105 -0.1045 -0.0030 -0.0741
37896W        W46696  13.740   1.328  27.550 -0.1115  0.0281 -0.1188
37897W        W46697  17.269   1.960  11.822 -0.1055  0.2149  0.1845
37898W        W46698  23.310   0.505   2.176  0.3020  0.1369  0.0209
37899W        W46699   9.969   1.626   6.462  0.0671  0.1321 -0.2024
37900W        W46700  10.491   3.656  21.951 -0.1948  0.2592 -0.1447
37901W        W46701  19.625   7.777   3.908 -0.0972 -0.2062  0.0340
37902W        W46702  24.678   3.941   1.519  0.2203  0.1870  0.0362
37903W        W46703   3.218   6.233   0.813  0.0063 -0.0952  0.1950
37904W        W46704  10.497   5.468  23.003  0.0256  0.1691  0.4403
37905W        W46705  22.006   4.534  23.943  0.2117  0.3088  0.2346
37906W        W46706   7.182   7.272  32.543 -0.0524  0.0290  0.0570
37907W        W46707  22.117   6.616   0.692  0.0128  0.1517 -0.2007
37908W        W46708  21.773   3.778  14.147 -0.0468  0.1424  0.3446
37909W        W46709   6.960   6.231  28.326  0.0694 -0.4176 -0.0893
37910W        W46710   7.349   2.816  18.753  0.3212  0.3077 -0.3951
37911W        W46711   6.672   4.914   6.465 -0.1178 -0.6392  0.0439
37912W        W46712  11.674   2.573   5.674  0.0201  0.0549 -0.1626
37913W        W46713  11.921   1.664  27.569  0.3406 -0.1697  0.0131
37914W        W46714  10.651   5.354   3.180 -0.0954  0.2464 -0.2947
37915W        W46715   9.955   4.435  29.527  0.2002 -0.2732 -0.0740
37916W        W46716   0.762   7.634   5.737 -0.1434  0.0769  0.1108
37917W        W46717   8.666   1.567   6.655 -0.2368 -0.1585  0.4529
37918W        W46718   2.913   1.352  31.394  0.2586 -0.0076  0.1199
37919W        W46719  10.154   0.532  25.490 -0.0889 -0.0062 -0.0604
37920W        W46720  24.467   5.803   7.901 -0.0925 -0.2653  0.0716
37921W        W46721  17.976   1.297   8.861 -0.0729 -0.0833 -0.3649
37922W        W46722  16.823   2.134  29.243 -0.0061  0.1667 -0.2587
37923W        W46723  18.136   2.631  25.007 -0.1447  0.0269 -0.2390
37924W        W46724  19.218   4.857  18.060  0.5056  0.0366 -0.0323
37925W        W46725  20.108   2.151  23.917 -0.0757 -0.1151  0.1017
37926W        W46726   8.704   2.645   4.300  0.1324  0.2034 -0.0953
37927W        W46727   8.716   3.490   1.548 -0.1648 -0.1659  0.3016
37928W        W46728  14.020   1.891  31.037 -0.1150 -0.1779 -0.1115
37929W        W46729  13.207   3.637   6.561  0.2016  0.1646 -0.1678
37930W        W46730  17.916   5.650  25.398  0.3557  0.1940 -0.0737
37931W        W46731  16.565   6.419  26.043 -0.2827 -0.2046  0.1437
37932W        W46732  19.022   4.851   5.558  0.0980  0.0268  0.0408
37933W        W46733   5.785   6.002  28.284  0.0997 -0.1891 -0.2667
37934W        W46734   1.638   4.652  18.829  0.2931  0.0954 -0.0707
37935W        W46735  14.038   0.806  30.559 -0.1659 -0.1771 -0.0085
37936W        W46736   3.719   5.681   0.456  0.1125  0.3137  0.3087
37937W        W46737   0.297   1.028  29.051  0.0426  0.0668 -0.2623
37938W        W46738  12.015   5.334  22.730  0.1582  0.1718 -0.0225
37939W        W46739  12.723   4.732  29.801 -0.0133  0.3139  0.3261
37940W        W46740   3.665   7.221  28.753  0.1446 -0.0066 -0.0405
37941W        W46741  10.551   1.154  25.952 -0.1267 -0.0571  0.1711
37942W        W46742   6.813   0.519  15.999 -0.1068  0.1022 -0.0349
37943W        W46743  22.460   1.609  10.940 -0.1872 -0.2426  0.0944
37944W        W46744   4.480   6.452  31.563 -0.2054 -0.3199  0.0810
37945W        W46745  22.043   5.241   6.188  0.2769 -0.2785  0.1963
37946W        W46746  23.764   4.350   2.672  0.0440  0.0833  0.1708
37947W        W46747   5.180   7.027  29.314 -0.0455 -0.0764 -0.1579
37948W        W46748   7.826   4.879  28.867  0.2773 -0.0052 -0.1185
37949W        W46749   5.837   2.178   1.693  0.0559  0.2335 -0.0434
37950W        W46750   8.469   7.278   7.195 -0.3344 -0.2128 -0.0396
37951W        W46751   4.655   4.216  27.810  0.1494 -0.1352  0.4837
37952W        W46752  13.973   7.805  10.395  0.0601  0.1996 -0.1588
37953W        W46753  10.441   4.712   7.132 -0.1613 -0.1624  0.2501
37954W        W46754   0.791   6.164   1.430  0.1425  0.1121 -0.0328
37955W        W46755  18.786   7.268   5.285  0.0966  0.0346  0.0464
37956W        W46756  12.867   3.461   8.887 -0.2531  0.2026 -0.0016
37957W        W46757  17.642   7.097  13.383  0.2560 -0.0669  0.2956
37958W        W46758   2.370   1.160  27.020  0.1016  0.1029 -0.0259
37959W        W46759  17.914   0.659  12.993 -0.2314  0.0498 -0.1874
37960W        W46760  12.186   7.642  32.137  0.0594  0.0012  0.3099
37961W        W46761  18.437   4.606   3.924 -0.1906 -0.0316  0.1336
37962W        W46762   6.183   0.427   0.448 -0.3992 -0.1477  0.1156
37963W        W46763  17.404   6.607  26.429  0.2182  0.2107 -0.2635
37964W        W46764   2.213   0.880  29.935 -0.1307  0.4246 -0.0107
37965W        W46765  18.464   4.065  28.508  0.0126  0.0919 -0.0705
37966W        W46766  12.780   1.198  25.175  0.2519  0.0485 -0.2794
37967W        W46767  22.370   2.412   5.571 -0.0719  0.0704 -0.1600
37968W        W46768  21.190   5.588  11.555 -0.0478 -0.0130 -0.2304
37969W        W46769  23.721   1.390   6.006  0.2145  0.0482  0.0167
37970W        W46770   0.427   1.889   0.129  0.1318  0.1980 -0.0683
37971W        W46771  18.029   0.241   8.749 -0.1766 -0.1244 -0.2620
37972W        W46772   1.217   7.048  21.084  0.2107 -0.2175  0.3462
37973W        W46773   3.934   1.038  24.668  0.0093 -0.3136  0.3175
37974W        W46774  20.129   6.130   3.003  0.1296 -0.0585  0.0967
37975W        W46775  12.993   3.826  11.927  0.0732 -0.2382 -0.1948
37976W        W46776  21.438   0.913   2.926 -0.1256 -0.1952 -0.1992
37977W        W46777   2.277   2.244   8.168  0.0741 -0.1928  0.1542
37978W        W46778   8.550   2.670  31.585 -0.0138  0.2260  0.0219
37979W        W46779   7.201   2.501  31.868 -0.0204 -0.0638  0.1597
37980W        W46780   0.212   5.680  24.071 -0.0574  0.0349 -0.1351
37981W        W46781   6.760   4.754  32.176 -0.0236  0.0334 -0.1458
37982W        W46782  18.108   1.156  22.729 -0.1375 -0.1160  0.3245
37983W        W46783  18.936   5.478  27.132 -0.0514  0.0187 -0.1331
37984W        W46784  14.190   3.168   9.999 -0.1166 -0.0188 -0.2593
37985W        W46785  17.739   2.888   2.832  0.0129 -0.2036  0.1353
37986W        W46786  21.820   3.384  11.894  0.0404  0.0067 -0.1607
37987W        W46787   7.490   0.958  15.617  0.1147 -0.1171 -0.0937
37988W        W46788  17.156   5.003  14.836 -0.0735  0.1875 -0.1169
37989W        W46789  14.039   2.332  12.067  0.1155  0.1101  0.0390
37990W        W46790  23.772   2.824  29.202 -0.3280  0.0035 -0.0322
37991W        W46791  18.170   6.446  25.666 -0.2479 -0.1199  0.0589
37992W        W46792   5.700   1.408   9.866  0.0677 -0.1801  0.0990
37993W        W46793   3.886   3.504   2.902  0.0845 -0.0981  0.0773
37994W        W46794  19.072   7.469  30.602  0.2409 -0.0783 -0.0916
37995W        W46795   3.148   0.246   3.504 -0.2406 -0.3835 -0.3085
37996W        W46796  17.032   2.191  22.166  0.1628  0.0430 -0.0180
37997W        W46797   4.718   0.232  20.476  0.0877  0.0332  0.0090
37998W        W46798   2.941   6.480   9.520 -0.0858 -0.1487  0.1725
37999W        W46799   1.580   3.836  20.417  0.0201 -0.1047 -0.0284
38000W        W46800  20.798   7.147   0.520  0.1131  0.0497 -0.0999
38001W        W46801  15.785   2.125   7.129  0.0844  0.0529 -0.2243
38002W        W46802  16.411   4.095  26.350 -0.2395 -0.0586  0.1333
38003W        W46803  14.388   6.218  13.776 -0.0605 -0.0789 -0.0358
38004W        W46804  24.591   5.019  26.788 -0.0831  0.1254 -0.1437
38005W        W46805   9.161   5.322   7.451 -0.0100 -0.2805 -0.1698
38006W        W46806  20.825   4.788  26.131  0.0769 -0.1988 -0.0408
38007W        W46807   2.314   3.254   3.949  0.1551  0.0845 -0.1953
38008W        W46808  20.697   6.434  28.591 -0.3375 -0.0202  0.0225
38009W        W46809   8.969   2.234  16.796  0.1952  0.2799  0.2298
38010W        W46810  13.478   3.561  13.430  0.1848  0.1303  0.3813
38011W        W46811   3.803   7.832  25.968  0.2841  0.0998 -0.2555
38012W        W46812  16.536   6.220  14.441  0.1335 -0.0424  0.1142
38013W        W46813   6.755   7.639  14.572 -0.0910 -0.1200  0.1271
38014W        W46814   3.217   5.163   7.194 -0.0789  0.0324  0.2081
38015W        W46815  19.969   3.034   6.544 -0.0975 -0.3089 -0.2278
38016W        W46816  14.104   4.954  31.115 -0.4963  0.0676 -0.1644
38017W        W46817  23.199   2.342  26.959 -0.2112 -0.1191  0.4635
38018W        W46818   0.189   6.886   1.381  0.2923  0.2078 -0.0959
38019W        W46819   5.446   7.805  31.006 -0.3333 -0.1450  0.0538
38020W        W46820  10.563   2.501   1.609  0.1476  0.0741  0.0402
38021W        W46821  15.488   1.179   6.965  0.2249  0.0811 -0.2243
38022W        W46822   4.326   3.462  21.901 -0.1765 -0.3696  0.0616
38023W        W46823  13.658   1.281  24.472  0.3527 -0.1233 -0.0192
38024W        W46824   6.210   5.285   6.773 -0.0788 -0.0873  0.2259
38025W        W46825   9.067   5.711  20.274  0.1467  0.0917  0.1147
38026W        W46826  16.517   1.951  10.230 -0.2273  0.0254 -0.0713
38027W        W46827   7.620   3.430  24.058 -0.2924 -0.2508 -0.0333
38028W        W46828   1.816   6.222  19.438 -0.0446  0.2013 -0.0994
38029W        W46829  18.365   1.051   8.668 -0.2424 -0.0083 -0.0743
38030W        W46830  17.155   2.038  23.394  0.1347 -0.0474 -0.0175
38031W        W46831   1.485   1.869  11.879  0.1011 -0.1696  0.0700
38032W        W46832  16.045   3.959  21.824 -0.0175  0.0567 -0.0775
38033W        W46833   5.582   0.762  29.810  0.1096 -0.2222 -0.0376
38034W        W46834  18.167   7.007  23.594 -0.1180 -0.1122  0.0202
38035W        W46835  24.707   3.596  32.317 -0.1601  0.4420  0.2363
38036W        W46836  12.389   0.022   2.269 -0.0785  0.1360  0.0852
38037W        W46837   3.959   3.149   1.069  0.2496 -0.2075 -0.0729
38038W        W46838   9.058   7.358  25.824 -0.3531  0.1584 -0.2031
38039W        W46839  13.639   0.422   1.010  0.1003 -0.1991  0.1841
38040W        W46840   7.430   7.465   8.649  0.0765  0.0423  0.0344
38041W        W46841  20.555   3.391   2.835 -0.0655  0.1095 -0.1248
38042W        W46842   1.699   4.110  27.930 -0.1640 -0.0743 -0.0210
38043W        W46843  12.815   7.842   1.938 -0.1750  0.0173  0.0106
38044W        W46844  10.649   4.658  20.580 -0.0331  0.1069  0.2472
38045W        W46845   4.624   1.420   8.777 -0.1846 -0.0976 -0.4084
38046W        W46846  22.982   2.023  30.560  0.0155 -0.2190  0.2761
38047W        W46847  24.746   4.635  30.476  0.0255  0.4765  0.1594
38048W        W46848   3.341   2.589  10.438  0.1961 -0.1514  0.1252
38049W        W46849   6.099   0.984  32.237 -0.4021 -0.0907 -0.1419
38050W        W46850   2.728   2.664  10.536 -0.4084  0.0373  0.0006
38051W        W46851  23.805   3.345  25.242 -0.0201 -0.0228 -0.0023
38052W        W46852  15.931   5.814   4.169  0.0333  0.0173  0.1100
38053W        W46853  17.146   1.833   1.366  0.3163 -0.0204  0.0529
38054W        W46854  12.560   0.908  12.373  0.1356  0.0830 -0.1013
38055W        W46855   1.315   6.985  23.873 -0.2000  0.1003  0.0345
38056W        W46856   6.964   5.068  22.096  0.1136  0.1243  0.0582
38057W        W46857  14.674   1.352  27.523  0.3179  0.1305  0.0746
38058W        W46858  11.362   6.558  25.303  0.2443 -0.0852 -0.1434
38059W        W46859   8.009   4.996   4.211 -0.0281  0.4972 -0.0190
38060W        W46860   8.131   3.834  18.239 -0.0230 -0.0089 -0.1277
38061W        W46861  19.837   2.242  25.500  0.2618  0.0111  0.1030
38062W        W46862   6.714   3.504  14.271  0.0476 -0.1328  0.2226
38063W        W46863   4.375   4.563   5.049 -0.1838  0.2124  0.1638
38064W        W46864  14.639   2.087   2.805 -0.3086  0.3585 -0.2277
38065W        W46865  12.277   4.455   8.940  0.1124  0.1633 -0.2834
38066W        W46866   3.754   7.006  11.187 -0.4936 -0.2418  0.1473
38067W        W46867   2.354   5.046  10.644 -0.0691  0.1560 -0.5984
38068W        W46868  20.962   1.059  14.568 -0.0131  0.0670  0.1180
38069W        W46869   5.578   3.152   0.380  0.2204 -0.0472 -0.0179
38070W        W46870   9.718   1.285   2.271  0.3716  0.2468  0.1187
38071W        W46871  19.018   0.331   7.902  0.2954  0.0114 -0.2103
38072W        W46872   0.949   4.626  12.024  0.0717  0.1601  0.0948
38073W        W46873  24.967   1.989  29.772 -0.4384  0.1656 -0.1734
38074W        W46874  19.851   2.347  31.033  0.1706 -0.1467 -0.0026
38075W        W46875  24.663   2.279   7.620 -0.1936  0.1536  0.0614
38076W        W46876   9.074   0.977  24.335  0.1185 -0.0010 -0.0415
38077W        W46877  18.514   5.586   0.211  0.0191 -0.1812 -0.1444
38078W        W46878  12.670   2.704   9.855  0.1521  0.1033 -0.3470
38079W        W46879  21.021   6.751  10.413 -0.1687 -0.1990  0.0776
38080W        W46880   4.813   5.868   6.878  0.2270 -0.1996  0.0985
38081W        W46881  24.416   7.740   1.986  0.3615  0.0764  0.0552
38082W        W46882  10.663   6.818  20.129 -0.0113  0.3037  0.3119
38083W        W46883  14.201   1.783   7.550  0.3027 -0.1575  0.0941
38084W        W46884  21.666   7.686   1.365 -0.1204 -0.0462  0.0657
38085W        W46885  21.651   5.634  24.294 -0.0723  0.1699 -0.0741
38086W        W46886   0.454   4.531   4.314  0.0125 -0.0345  0.1189
38087W        W46887  19.725   5.570   3.732 -0.2852 -0.1267 -0.1918
38088W        W46888   8.927   6.991   3.651  0.1133 -0.0658 -0.4762
38089W        W46889  13.318   1.823  11.254 -0.2292  0.0560  0.3236
38090W        W46890  13.357   3.140  32.129 -0.1029  0.0109 -0.0060
38091W        W46891   1.362   2.237  25.133  0.1215  0.1930  0.0788
38092W        W46892  19.033   0.150   4.181 -0.1086  0.1556 -0.2886
38093W        W46893  13.625   5.903   1.650  0.2480  0.1295 -0.3329
38094W        W46894  16.674   7.646   3.924  0.0246 -0.0191 -0.1771
38095W        W46895  20.811   7.295  28.086  0.0124  0.3364  0.3449
38096W        W46896   6.668   6.076   4.167  0.2850  0.0730  0.2231
38097W        W46897  19.828   2.932  29.485 -0.1019 -0.2685  0.0587
38098W        W46898   1.037   4.861   9.496 -0.0113 -0.3984  0.0370
38099W        W46899  16.941   3.536  17.110  0.2497 -0.0600  0.0762
38100W        W46900  11.564   4.380   0.160 -0.0021 -0.0796 -0.0594
38101W        W46901  21.090   5.672  30.851  0.2024  0.2543 -0.2027
38102W        W46902  14.545   2.676   7.933  0.2747 -0.0487 -0.3178
38103W        W46903  16.074   5.510   3.303  0.2088 -0.4479  0.0888
38104W        W46904   8.316   7.506  27.954  0.0602  0.2905  0.0866
38105W        W46905  11.715   4.239  20.160 -0.2438 -0.5620  0.3467
38106W        W46906   7.752   0.594  16.269 -0.1032 -0.1383 -0.1498
38107W        W46907   0.084   0.047  10.386  0.0480  0.1786 -0.3198
38108W        W46908  19.746   0.479   2.619 -0.1597  0.0519 -0.0878
38109W        W46909  19.597   1.434  26.571  0.1715  0.0521 -0.0119
38110W        W46910  20.467   1.222  16.626  0.1994 -0.1092  0.1595
38111W        W46911  10.145   7.064  10.068 -0.0003 -0.1786 -0.4249
38112W        W46912  20.576   4.339   1.291  0.1606 -0.1685 -0.0661
38113W        W46913  15.366   3.746  31.501  0.2843 -0.2989  0.0679
38114W        W46914   2.957   0.077  10.471 -0.2025  0.2851 -0.0847
38115W        W46915  20.640   2.211  15.833 -0.1194 -0.0191  0.2974
38116W        W46916  11.091   7.780  23.009 -0.1773  0.0172 -0.1446
38117W        W46917   0.977   5.305  21.430  0.2048 -0.1650  0.2717
38118W        W46918  12.996   2.290   7.318  0.0898 -0.0258  0.0570
38119W        W46919  11.719   3.710   1.815 -0.0415 -0.0579  0.1775
38120W        W46920  11.670   6.886  27.759  0.3324  0.1466 -0.1913
38121W        W46921   6.529   3.009  29.065 -0.1136  0.0422 -0.3500
38122W        W46922   3.975   7.665   8.555  0.0990 -0.1946  0.2759
38123W        W46923  16.681   2.041  22.517  0.0969 -0.3195  0.1887
38124W        W46924  17.660   6.221  28.091  0.0308  0.0007  0.1161
38125W        W46925  10.908   6.892   3.689  0.1365 -0.0587 -0.2301
38126W        W46926  20.763   0.287  22.323 -0.1380 -0.0955  0.0785
38127W        W46927  20.609   7.280  25.486 -0.1592 -0.1653 -0.1719
38128W        W46928  19.184   3.566  17.366 -0.1563 -0.1066  0.0375
38129W        W46929  19.576   3.375   0.821  0.0596 -0.1449  0.2458
38130W        W46930  16.288   7.630   9.577 -0.1830 -0.4919  0.1576
38131W        W46931  12.170   0.248   3.648  0.0306  0.0057  0.2925
38132W        W46932  10.311   4.065  10.367 -0.1178 -0.1424  0.1673
38133W        W46933  11.371   2.708   8.279 -0.1122 -0.0419  0.1282
38134W        W46934   8.109   4.537  21.286  0.1057  0.1331  0.1018
38135W        W46935  22.038   4.122  23.439 -0.1842  0.0659 -0.0284
38136W        W46936   0.532   4.419  13.259  0.2042  0.1626 -0.1293
38137W        W46937  13.587   4.989  20.538 -0.0742  0.0489  0.1208
38138W        W46938  16.067   6.003  24.053  0.0414  0.0480 -0.1330
38139W        W46939   1.733   7.204  17.846 -0.1834  0.2435  0.1430
38140W        W46940   4.886   6.647   2.143 -0.2986 -0.0206  0.0100
38141W        W46941   9.225   3.050  28.946  0.0110 -0.0134 -0.0247
38142W        W46942   6.401   2.296   8.023  0.2455 -0.0511 -0.1167
38143W        W46943  18.209   6.269  13.853 -0.1526 -0.2119  0.0699
38144W        W46944   6.535   5.913   1.093  0.3956 -0.0322 -0.1007
38145W        W46945  21.448   6.603  12.950 -0.0349  0.3016  0.2349
38146W        W46946   1.666   1.323   0.169  0.0470  0.2110  0.1206
38147W        W46947  16.155   2.027  16.766  0.0266 -0.1061 -0.1251
38148W        W46948  22.728   5.022   1.757  0.3545 -0.0028 -0.0820
38149W        W46949  17.872   5.536  16.435  0.0011 -0.0385 -0.0451
38150W        W46950  24.917   4.300  10.065  0.0548 -0.0069 -0.0152
38151W        W46951  19.359   7.587  17.267  0.2422  0.0832 -0.0813
38152W        W46952  19.460   1.754  17.449  0.0424  0.1835 -0.2810
38153W        W46953   1.274   6.231  19.637 -0.0201 -0.1415 -0.1844
38154W        W46954  23.691   0.312  26.914  0.0750 -0.1852 -0.0793
38155W        W46955   9.538   3.102  27.985 -0.3500 -0.1178 -0.1134
38156W        W46956  23.130   4.162  31.748  0.2326 -0.0049 -0.0374
38157W        W46957  16.359   2.161  26.891 -0.1338 -0.0331  0.1686
38158W        W46958   9.074   7.791  20.269 -0.1768  0.0721 -0.2006
38159W        W46959   9.111   2.693   8.586 -0.1617 -0.2226 -0.1857
38160W        W46960  21.703   3.915  31.146 -0.0551  0.2306  0.2378
38161W        W46961  23.182   4.306   4.600  0.0255  0.0853  0.0979
38162W        W46962  23.859   2.887   1.359 -0.2387 -0.2050 -0.1796
38163W        W46963  14.856   7.611   0.290 -0.0908  0.1215  0.0572
38164W        W46964  11.227   0.872   1.206 -0.1642  0.2408  0.2064
38165W        W46965   6.090   5.143   7.213  0.1367 -0.0609  0.1918
38166W        W46966   7.610   5.507  26.225 -0.0289  0.2427  0.1366
38167W        W46967  10.550   1.770  23.212 -0.0675 -0.0303 -0.1174
38168W        W46968  19.006   6.811  13.135  0.0992 -0.1764 -0.1348
38169W        W46969  15.751   0.044  24.497  0.1040 -0.0638  0.3882
38170W        W46970  21.678   4.232  12.125 -0.1195 -0.2374 -0.1575
38171W        W46971  15.235   2.364  24.277 -0.1375  0.0753  0.1262
38172W        W46972   9.760   5.238  28.986 -0.1861 -0.1353 -0.4256
38173W        W46973  18.381   4.879   2.330 -0.2793  0.1436  0.1815
38174W        W46974   0.670   2.129  11.982 -0.0467 -0.1246 -0.1392
38175W        W46975  19.993   6.530   1.019  0.1555 -0.2658  0.0375
38176W        W46976   6.800   5.983  32.314 -0.2185  0.1047  0.2083
38177W        W46977  13.695   6.800  28.841 -0.1207  0.1081 -0.1523
38178W        W46978  15.115   7.641   4.499 -0.1399  0.1638  0.0900
38179W        W46979  17.059   5.123   0.956  0.1133 -0.1176  0.1980
38180W        W46980  12.490   0.378  10.451  0.0708  0.0616  0.0032
38181W        W46981   6.086   3.134  21.481 -0.0770  0.0299 -0.0161
38182W        W46982   7.499   6.399  24.860  0.0689  0.0549  0.1638
38183W        W46983  13.539   1.795   8.387 -0.1805 -0.0997 -0.2554
38184W        W46984  22.072   6.395  25.376  0.2040 -0.3210 -0.3121
38185W        W46985  11.876   1.065  11.502  0.0130 -0.1212 -0.4057
38186W        W46986   8.985   6.757   8.931  0.0660 -0.0612 -0.1529
38187W        W46987   4.604   7.539   1.867  0.0220 -0.1883 -0.0157
38188W        W46988   9.121   1.130  19.591 -0.2835  0.0481  0.2408
38189W        W46989  16.998   6.283  23.819 -0.0842  0.0226 -0.1209
38190W        W46990  16.968   2.811  13.656 -0.0902  0.0776 -0.2058
38191W        W46991  24.800   6.836  24.394  0.0241 -0.0897 -0.1179
38192W        W46992   3.035   5.079   0.295 -0.5236 -0.0175  0.1619
38193W        W46993  21.291   4.121  31.856 -0.1780  0.1426 -0.0959
38194W        W46994   9.266   4.099  23.800 -0.0811 -0.0482 -0.2254
38195W        W46995  22.805   4.524  15.215 -0.0043  0.1598  0.0869
38196W        W46996   0.572   0.952  20.763  0.0270 -0.0026 -0.1274
38197W        W46997   7.993   6.120  22.105  0.0887 -0.0648  0.0076
38198W        W46998  19.951   1.471  12.744  0.0540 -0.1355 -0.0948
38199W        W46999   0.130   7.560   3.610 -0.1804 -0.1113  0.1442
38200W        W47000   4.963   6.849  30.412 -0.3043 -0.0719 -0.1704
38201W        W47001   5.216   5.518  20.395 -0.1619 -0.0799 -0.3558
38202W        W47002   2.889   3.138  25.074  0.4919 -0.1898 -0.0257
38203W        W47003  16.885   0.722   2.911 -0.1685 -0.1467  0.0115
38204W        W47004   1.542   4.482  18.373 -0.0590  0.1363  0.1582
38205W        W47005  15.835   6.394  13.266  0.0465  0.0965 -0.2455
38206W        W47006  20.198   6.946  23.277 -0.1125  0.2055 -0.0985
38207W        W47007  13.034   7.721  20.920 -0.2272  0.0724 -0.0768
38208W        W47008  14.704   5.739  15.755 -0.0098  0.2046 -0.0150
38209W        W47009  10.992   2.931  21.399 -0.0395 -0.1090  0.2107
38210W        W47010   9.943   6.601  10.321 -0.0572 -0.0044  0.2140
38211W        W47011  19.830   2.925   8.599  0.2468 -0.0347 -0.0806
38212W        W47012  23.731   7.101   6.668 -0.0670 -0.0284 -0.1977
38213W        W47013  14.924   2.045  10.527  0.0846 -0.1344  0.0818
38214W        W47014  24.989   7.757  28.093  0.0179  0.1081 -0.0726
38215W        W47015   3.566   0.694   4.254 -0.1183  0.1087  0.0785
38216W        W47016  25.136   4.863  30.666 -0.1203 -0.3638 -0.0742
38217W        W47017   8.563   0.773   2.986  0.4028 -0.3250  0.0876
38218W        W47018  15.863   3.922  12.125  0.1195  0.2480  0.3120
38219W        W47019  15.461   0.310   2.976  0.1952 -0.0928  0.0633
38220W        W47020  24.855   1.044  10.206 -0.1935 -0.1165  0.2481
38221W        W47021   8.132   3.963  25.458  0.2267 -0.2681  0.0621
38222W        W47022  13.367   3.056  28.378 -0.0001  0.2643  0.1181
38223W        W47023   1.067   1.791   9.390 -0.0026  0.1328  0.3505
38224W        W47024   4.608   2.920  18.586  0.0735  0.3381  0.1620
38225W        W47025   8.461   4.065  26.260  0.2755 -0.0760 -0.2015
38226W        W47026  16.139   3.931  30.251 -0.3152  0.0733  0.1451
38227W        W47027  12.649   2.870   9.321 -0.1632 -0.1641 -0.0032
38228W        W47028  17.154   1.762   0.183 -0.1423 -0.1085  0.1952
38229W        W47029  20.114   5.724  10.669  0.2244 -0.0033  0.3145
38230W        W47030  13.035   3.732   6.064  0.1748 -0.0625 -0.3212
38231W        W47031  22.332   0.159   9.048  0.0256 -0.0719  0.3335
38232W        W47032  12.989   6.864   7.998  0.0475  0.1878  0.0403
38233W        W47033  16.467   4.939   1.925 -0.1632  0.1735  0.1943
38234W        W47034  13.595   4.725  27.891  0.0019  0.1244  0.1075
38235W        W47035  18.408   7.288  23.895  0.1511 -0.0169 -0.0228
38236W        W47036  19.298   2.109  24.416 -0.2221 -0.1399  0.1580
38237W        W47037  10.379   0.485  31.144  0.2659  0.1005 -0.0238
38238W        W47038   6.742   5.273   4.602 -0.1527  0.1827  0.1824
38239W        W47039  13.036   4.219  20.859  0.4626 -0.3644  0.3520
38240W        W47040   8.335   3.954   0.615  0.0750 -0.1061 -0.1243
38241W        W47041  21.350   6.957   7.399  0.2242  0.2423 -0.2300
38242W        W47042  11.097   6.006  17.776 -0.3240 -0.0362  0.3382
38243W        W47043  15.751   5.568   1.741 -0.1617 -0.0167 -0.1494
38244W        W47044  12.777   7.383   2.483 -0.1359 -0.0676  0.0444
38245W        W47045   9.745   4.914  26.235  0.0915  0.0723  0.1300
38246W        W47046  11.409   4.667   3.400 -0.1018 -0.1336  0.1373
38247W        W47047   3.777   4.684  26.416 -0.3506  0.1750  0.0141
38248W        W47048  12.860   7.062  27.639  0.1110  0.0188 -0.2478
38249W        W47049  17.888   0.912   3.930  0.1475  0.1206 -0.0437
38250W        W47050  17.631   0.707  29.893  0.0443  0.0765  0.1527
38251W        W47051   0.283   6.355  28.273  0.0772  0.2856  0.1158
38252W        W47052   7.908   0.717  16.767  0.1720 -0.0501  0.0116
38253W        W47053  22.674   1.961   7.623  0.1394 -0.0406  0.1337
38254W        W47054   0.985   0.487  19.044 -0.3014 -0.2428  0.0594
38255W        W47055   6.343   4.485   6.116 -0.0247  0.0488  0.1101
38256W        W47056  15.314   4.084  30.003 -0.3054 -0.1702  0.0796
38257W        W47057  18.131   7.206   9.626  0.1122 -0.3021  0.0514
38258W        W47058  20.496   5.659  12.533 -0.1936 -0.2147 -0.2811
38259W        W47059   8.775   1.141  15.680  0.1226  0.4953 -0.0794
38260W        W47060   5.032   2.304   3.628 -0.1212 -0.0316  0.0515
38261W        W47061  14.122   7.107   5.257  0.0510  0.2667 -0.1027
38262W        W47062   6.910   3.346  18.383  0.3392 -0.2976  0.2085
38263W        W47063  14.301   1.112  23.610 -0.1595  0.0083  0.1244
38264W        W47064  10.209   7.477  26.554 -0.1539 -0.1978 -0.1041
38265W        W47065  15.928   2.357  12.759  0.1266 -0.2257 -0.2842
38266W        W47066  25.127   3.746  27.480 -0.1133  0.1723 -0.1571
38267W        W47067  17.384   0.893  27.290  0.0745  0.0214 -0.0665
38268W        W47068  16.685   1.448  10.251  0.1463 -0.0965  0.1093
38269W        W47069   1.883   7.228   3.189 -0.1033  0.1978 -0.0401
38270W        W47070  17.532   5.850  31.966 -0.1767 -0.2149 -0.1173
38271W        W47071   0.622   2.244  30.126 -0.1695 -0.0369 -0.2238
38272W        W47072   3.346   3.521  24.201  0.1727  0.0936  0.0724
38273W        W47073  24.763   5.488   9.514 -0.0436  0.1454 -0.2155
38274W        W47074  22.728   6.299   4.099 -0.2483  0.0476 -0.0969
38275W        W47075   3.736   7.304  19.666  0.1008 -0.0150  0.0340
38276W        W47076  23.539   2.944   6.044  0.0660 -0.0079  0.0965
38277W        W47077  23.553   5.691   9.156  0.1313  0.0230  0.0064
38278W        W47078   2.132   1.160   6.166  0.3162 -0.2934  0.1891
38279W        W47079  12.213   1.409   9.837  0.2205  0.0125 -0.0693
38280W        W47080  17.954   4.601   2.206  0.1698 -0.1802 -0.1539
38281W        W47081  21.416   1.632  24.400 -0.0697 -0.0824 -0.0631
38282W        W47082  19.634   5.959   6.015 -0.0771 -0.1575  0.2533
38283W        W47083  23.530   2.632  21.941 -0.2333 -0.0445  0.0641
38284W        W47084   1.878   4.710  28.544  0.2987 -0.3232 -0.2869
38285W        W47085   3.950   4.932  30.392  0.2965 -0.2655 -0.0911
38286W        W47086  11.760   6.846  24.019  0.2228 -0.1165 -0.3518
38287W        W47087   0.022   5.124   2.487  0.0278 -0.0993 -0.0129
38288W        W47088  21.602   1.818   2.434 -0.0652 -0.2242  0.0206
38289W        W47089   1.278   7.603  26.746  0.0988 -0.0456 -0.4420
38290W        W47090   5.093   0.734  27.457 -0.1360  0.2289  0.1503
38291W        W47091  19.311   3.710   2.537  0.0148  0.1097  0.2233
38292W        W47092  14.832   0.853  12.516 -0.1938 -0.0468  0.1739
38293W        W47093  20.436   0.032  10.864 -0.0790 -0.1440  0.0173
38294W        W47094   6.309   3.547   8.491 -0.1194 -0.3731  0.1583
38295W        W47095  10.010   1.964   6.066  0.1755  0.2792  0.1901
38296W        W47096   0.780   3.941  28.295 -0.0094 -0.0486 -0.3319
38297W        W47097  12.234   0.655   6.377  0.1173 -0.1201  0.1688
38298W        W47098   0.991   5.939  25.619  0.3457 -0.2335  0.3870
38299W        W47099   4.900   6.495  31.944  0.3024  0.1194 -0.1261
38300W        W47100   1.579   4.030  18.883  0.0865 -0.0907  0.1263
38301W        W47101  22.633   3.576  26.389  0.0740  0.2143 -0.0442
38302W        W47102   7.262   5.207  23.745  0.1052  0.0168 -0.0708
38303W        W47103  21.439   4.566  10.975 -0.3665 -0.1264  0.1259
38304W        W47104   4.769   5.534  20.097  0.2650  0.1426  0.3294
38305W        W47105  16.670   1.117  31.761 -0.2527  0.0055 -0.2181
38306W        W47106   6.247   2.882  20.085 -0.1349 -0.0885  0.0960
38307W        W47107   5.038   3.969  31.028  0.0720  0.0653  0.2778
38308W        W47108   6.576   4.679  18.826  0.2147  0.0451 -0.4604
38309W        W47109  14.781   4.809   6.636  0.1586  0.2571  0.3938
38310W        W47110   2.460   5.432  31.289  0.1463  0.1005 -0.0066
38311W        W47111   6.758   4.290  28.032 -0.2142  0.1096  0.0622
38312W        W47112   3.524   4.918  16.812  0.1579  0.1351 -0.0656
38313W        W47113  13.033   3.031  21.507  0.1316 -0.0868 -0.1011
38314W        W47114   1.022   7.096   1.744  0.3840  0.0701  0.1923
38315W        W47115  13.169   1.588  10.855 -0.1509 -0.3175  0.0251
38316W        W47116  19.769   4.959  24.482  0.0501  0.0577  0.0294
38317W        W47117   8.503   4.896  21.486  0.0858  0.1134 -0.0992
38318W        W47118  16.014   4.772   5.621 -0.2922  0.1011 -0.1911
38319W        W47119   0.250   7.667  27.739  0.0090  0.1567  0.0070
38320W        W47120   9.316   6.855   3.977  0.1781  0.1259 -0.1721
38321W        W47121  20.867   7.187   5.598 -0.1310 -0.2066 -0.1964
38322W        W47122   3.490   3.952   0.982  0.2156  0.0432 -0.2531
38323W        W47123  21.897   2.537  13.902  0.2543  0.0085  0.0744
38324W        W47124   1.860   1.241   2.047  0.3162 -0.0460  0.0375
38325W        W47125  10.879   4.690  23.455 -0.1212  0.1803 -0.2004
38326W        W47126  16.880   7.659  31.891 -0.0487 -0.2236 -0.0403
38327W        W47127  20.139   3.484   5.108 -0.1577  0.4249 -0.1334
38328W        W47128  13.413   6.610   8.045  0.1378 -0.0132  0.0572
38329W        W47129  17.450   2.014  11.043 -0.2140 -0.1293 -0.2765
38330W        W47130  11.324   7.349  32.540  0.1730  0.3220 -0.0493
38331W        W47131  17.690   4.011  10.998  0.0215  0.3389 -0.0507
38332W        W47132  14.821   3.075   1.606  0.0823  0.2515  0.0381
38333W        W47133  19.841   4.801  17.134  0.2464  0.0913  0.0491
38334W        W47134   1.839   4.452   3.992 -0.3058  0.1561  0.0011
38335W        W47135  13.843   3.357   1.776  0.4565 -0.2005 -0.2676
38336W        W47136  24.420   5.680  22.403  0.1264  0.0120 -0.1481
38337W        W47137   5.805   3.382   6.769 -0.1567 -0.1452  0.1132
38338W        W47138   5.449   1.867  15.300 -0.1861  0.1516 -0.1782
38339W        W47139   5.853   5.658  20.613 -0.2771 -0.0429  0.1495
38340W        W47140   6.547   5.448  14.164  0.3847  0.0969 -0.2028
38341W        W47141   4.593   2.750  20.443  0.0583 -0.0494  0.0288
38342W        W47142   5.915   5.902   8.117  0.0229  0.0055  0.3785
38343W        W47143   4.514   3.417   7.382  0.1336 -0.0965  0.2291
38344W        W47144  16.753   1.366  22.314 -0.2909 -0.3469  0.0015
38345W        W47145   1.146   5.524  19.336  0.0609  0.2050 -0.0758
38346W        W47146   6.893   3.233  31.260  0.3214  0.1116  0.2830
38347W        W47147  14.226   6.623  11.091 -0.0997  0.0161  0.1482
38348W        W47148   1.584   1.059   2.599 -0.3119  0.0117 -0.0231
38349W        W47149  18.977   7.760  12.249 -0.3530 -0.1189 -0.0084
38350W        W47150   1.870   6.733  26.083 -0.1031 -0.2053 -0.2253
38351W        W47151  10.880   7.827  10.311 -0.2709 -0.0777 -0.1731
38352W        W47152  14.543   6.643  14.451  0.1584  0.1057  0.0781
38353W        W47153  16.972   3.172  10.797 -0.2395  0.2916 -0.1558
38354W        W47154  10.261   6.229   8.868  0.0232  0.1932 -0.1047
38355W        W47155  21.365   5.453  13.488  0.1962  0.1118 -0.2366
38356W        W47156  10.081   5.868   5.800 -0.1256 -0.1702 -0.0045
38357W        W47157  21.912   1.043   9.010  0.1120 -0.2693  0.0365
38358W        W47158  16.055   3.141  26.043 -0.1415 -0.0547 -0.0224
38359W        W47159   3.768   7.847   1.987 -0.1237 -0.1497  0.0966
38360W        W47160  15.838   5.917   3.138 -0.1353  0.1488 -0.2808
38361W        W47161  24.567   7.636   6.427  0.2949  0.4737  0.2014
38362W        W47162   7.152   1.836   7.936 -0.0090 -0.0463  0.4103
38363W        W47163   5.826   1.674   1.797  0.0724 -0.0453 -0.2917
38364W        W47164  17.330   4.992   2.225 -0.0471  0.2501 -0.1594
38365W        W47165  18.079   6.584  14.723  0.0597  0.0183 -0.0762
38366W        W47166  18.435   2.063  12.050  0.1608  0.0623 -0.0814
38367W        W47167   5.949   0.981  30.868  0.1136  0.3031  0.1509
38368W        W47168  19.813   6.671  25.107  0.2414  0.0268 -0.1831
38369W        W47169  23.935   1.512   7.990 -0.0946  0.2441 -0.0508
38370W        W47170   0.499   3.434   9.499 -0.0723 -0.2496  0.1515
38371W        W47171  19.093   6.555  15.364 -0.1163  0.1253  0.0630
38372W        W47172  11.087   2.902  23.243 -0.2825  0.0938  0.1194
38373W        W47173   2.783   0.329  29.984 -0.3185  0.1418  0.2205
38374W        W47174  11.201   4.587   2.939 -0.3595  0.0848  0.1523
38375W        W47175  15.162   7.357  12.393 -0.0537  0.0938 -0.0268
38376W        W47176   5.030   4.044  17.750 -0.1111 -0.0496 -0.3323
38377W        W47177   5.093   0.228  27.377 -0.1744 -0.0236  0.1177
38378W        W47178   5.543   0.794  14.626  0.1758  0.3496 -0.0386
38379W        W47179  18.907   6.549  24.419 -0.1128 -0.3791  0.2573
38380W        W47180  17.488   3.588  29.082  0.0292  0.2213  0.0055
38381W        W47181  15.100   2.767   1.864 -0.2519  0.1498  0.0199
38382W        W47182   7.710   1.217   4.399  0.0166 -0.0941 -0.2448
38383W        W47183  16.935   2.488  12.417  0.0261  0.3106 -0.0450
38384W        W47184  24.275   2.856   8.072 -0.0167 -0.0509  0.2138
38385W        W47185   6.803   6.235   3.560 -0.0782  0.0884 -0.1805
38386W        W47186   6.820   7.809   0.068  0.2597  0.0596 -0.0273
38387W        W47187  23.162   5.601  10.642  0.1883  0.0681 -0.5270
38388W        W47188  24.568   0.714  32.256  0.0286  0.0815  0.4138
38389W        W47189  15.470   3.033   2.425  0.0917 -0.0300 -0.1687
38390W        W47190  14.368   5.151   3.079 -0.0580  0.0204 -0.2100
38391W        W47191  24.966   6.362  27.311  0.1872 -0.0714  0.0112
38392W        W47192  22.088   3.777   7.948 -0.0604 -0.2110 -0.0186
38393W        W47193   7.594   3.250  22.168 -0.1074 -0.1161  0.0769
38394W        W47194   4.926   6.388  28.040  0.0647  0.1420 -0.0227
38395W        W47195   0.491   6.235  25.896 -0.1363 -0.2978 -0.1023
38396W        W47196  11.876   7.230   7.997 -0.0244 -0.0569 -0.0318
38397W        W47197   6.452   4.055  27.742  0.1656  0.2318 -0.2617
38398W        W47198  21.081   4.961  31.587  0.1332  0.2280  0.0858
38399W        W47199  17.208   3.051  26.673  0.0432 -0.0105 -0.1182
38400W        W47200   3.137   2.323   0.365  0.0861 -0.2826  0.2545
38401W        W47201  21.693   2.530  24.217  0.1837  0.1784 -0.1480
38402W        W47202  15.612   4.676   2.590 -0.3119 -0.0783  0.0498
38403W        W47203   7.089   7.116  18.953 -0.0207 -0.0724 -0.1222
38404W        W47204   2.997   7.205  23.368 -0.1892 -0.0433  0.1753
38405W        W47205   6.231   7.744  31.558  0.1924 -0.0983  0.2014
38406W        W47206  22.914   1.854   6.221 -0.3253 -0.0575  0.2630
38407W        W47207  17.939   0.102   2.826  0.0380  0.0363 -0.1413
38408W        W47208  16.521   5.041   0.694  0.0956  0.2248 -0.0919
38409W        W47209  11.376   2.029   8.944  0.0732  0.1738 -0.2643
38410W        W47210   2.887   5.118  27.146 -0.1322 -0.1109  0.1681
38411W        W47211   1.917   4.244  18.503 -0.0346 -0.2234 -0.0523
38412W        W47212   6.293   1.233  25.291  0.0967  0.1121  0.2570
38413W        W47213   1.765   3.532  18.217 -0.0991 -0.0609 -0.0204
38414W        W47214  10.778   6.579   9.662 -0.0883  0.1317 -0.1598
38415W        W47215  10.443   2.829   6.017  0.2077  0.0042  0.1262
38416W        W47216  19.524   7.635  18.117  0.2753  0.1005 -0.1090
38417W        W47217  23.762   5.825  27.422  0.1554 -0.0113 -0.5700
38418W        W47218  17.229   2.955  25.356 -0.1319  0.1905  0.0674
38419W        W47219   7.607   4.840  14.917 -0.0263 -0.3232  0.1314
38420W        W47220  19.215   0.711  32.168  0.1231 -0.2393  0.1414
38421W        W47221  19.373   2.820   1.335 -0.0254 -0.1063  0.4246
38422W        W47222   0.517   0.050  23.560 -0.0974  0.1521 -0.0610
38423W        W47223   9.972   5.967  15.695  0.1114  0.1467 -0.1089
38424W        W47224  16.994   0.575   7.978  0.0118 -0.3108 -0.0635
38425W        W47225  10.012   6.818   5.024 -0.0860 -0.0378 -0.0485
38426W        W47226   5.058   7.338  30.579  0.3688 -0.2174 -0.1678
38427W        W47227  10.174   3.152  31.570 -0.2422  0.2028  0.0624
38428W        W47228   2.301   2.786   3.750  0.0487 -0.2071 -0.1782
38429W        W47229   9.080   2.723  21.662 -0.0409  0.0619 -0.1291
38430W        W47230   9.634   3.138  20.268 -0.2477 -0.2077 -0.0171
38431W        W47231  22.162   2.658  31.665  0.2408  0.1692 -0.1422
38432W        W47232  18.351   3.173  11.792 -0.2282 -0.1090  0.0513
38433W        W47233   7.142   5.028   3.573  0.0528 -0.1090  0.1395
38434W        W47234   9.406   6.970  24.429  0.2169 -0.2731  0.1707
38435W        W47235  16.706   0.547  30.192  0.2046 -0.1708  0.0580
38436W        W47236  22.678   7.360  14.708 -0.1357  0.2935  0.0268
38437W        W47237   5.063   3.883  23.452 -0.0159  0.1173  0.0157
38438W        W47238  21.832   6.099  30.930 -0.1664  0.1922  0.0877
38439W        W47239   9.177   5.502  21.684  0.1404  0.1705 -0.3051
38440W        W47240  22.678   5.577  25.910  0.1478  0.1141 -0.1110
38441W        W47241  20.899   0.527  14.301 -0.1345  0.1272  0.0859
38442W        W47242   8.766   1.801   1.727 -0.2004  0.0396  0.0456
38443W        W47243   9.806   6.826  28.710 -0.1394 -0.1625 -0.1815
38444W        W47244  15.096   2.512   8.693 -0.0996  0.1912 -0.0281
38445W        W47245   1.124   6.593  28.804 -0.2577 -0.0457  0.0406
38446W        W47246   4.352   2.558   5.557 -0.0419  0.0435  0.1785
38447W        W47247   9.151   3.470   3.463  0.2186 -0.0891 -0.0744
38448W        W47248  18.150   2.039   7.683  0.0450 -0.1226 -0.0070
38449W        W47249   4.679   2.859  31.651  0.0140  0.0205 -0.3684
38450W        W47250  20.921   4.354  28.903  0.0559  0.3102 -0.2035
38451W        W47251  24.474   1.551  10.384  0.0276 -0.0891 -0.1734
38452W        W47252  14.361   3.090   1.103 -0.0657 -0.2027  0.1431
38453W        W47253   3.350   7.079  30.989  0.1004  0.1776 -0.0122
38454W        W47254   0.422   3.253  21.960 -0.2162 -0.1614 -0.2683
38455W        W47255  20.486   2.814  13.573  0.0185 -0.2771  0.0795
38456W        W47256   6.051   4.959  21.784 -0.1315  0.2163  0.1246
38457W        W47257   8.961   7.602   0.688  0.2788 -0.2456  0.1261
38458W        W47258   0.998   3.491  23.521 -0.1187 -0.2598 -0.0627
38459W        W47259  23.186   5.325  11.969  0.0708  0.2323 -0.0265
38460W        W47260   5.408   5.762  32.116  0.1628  0.4053  0.0232
38461W        W47261   2.801   7.556  32.056 -0.0403 -0.2829  0.0600
38462W        W47262  25.007   1.644  10.927 -0.0066  0.0628  0.0355
38463W        W47263  12.896   3.830   1.852  0.2300  0.0952  0.1550
38464W        W47264  22.575   5.508  25.359  0.3435  0.0172 -0.1968
38465W        W47265  11.169   2.737   0.911  0.1284 -0.2472 -0.2000
38466W        W47266   4.224   6.803  21.023 -0.1107 -0.0271  0.1683
38467W        W47267   3.465   2.285   0.883 -0.1972  0.1710  0.0300
38468W        W47268  23.645   3.867   6.633 -0.0436  0.0121 -0.2955
38469W        W47269  21.370   5.660   9.029 -0.0033  0.0689  0.3816
38470W        W47270   6.423   2.525  10.113  0.1665 -0.2078  0.0400
38471W        W47271   3.126   5.729   0.515  0.0132  0.1114  0.2770
38472W        W47272   8.081   1.303  20.408 -0.1857 -0.3384  0.3218
38473W        W47273  20.331   4.548   0.196  0.1032  0.2641  0.1251
38474W        W47274  23.679   6.358   0.747  0.1610  0.1746 -0.1494
38475W        W47275  23.522   0.842  29.332  0.1508  0.0044 -0.2281
38476W        W47276  13.181   7.255  12.330 -0.3550 -0.0685  0.0345
38477W        W47277   2.004   4.552  20.697  0.0823  0.1025  0.2499
38478W        W47278   8.308   5.299  15.091 -0.0936  0.0180 -0.1351
38479W        W47279  16.120   3.931  15.762 -0.2214 -0.0891 -0.2016
38480W        W47280   9.078   2.405  24.626 -0.4702  0.0401  0.1198
38481W        W47281  14.369   4.958  30.012 -0.1340  0.2180  0.1414
38482W        W47282  11.664   0.302  18.621  0.3518 -0.2284  0.3214
38483W        W47283  19.152   5.627   7.278  0.0726  0.1566  0.4683
38484W        W47284  11.384   1.759   9.412  0.1559  0.0793 -0.1083
38485W        W47285   4.188   2.875  31.405 -0.4298 -0.0062  0.0032
38486W        W47286  22.499   4.162  23.206 -0.1575  0.2516  0.1036
38487W        W47287   1.822   6.041   8.255  0.0748 -0.1375 -0.0416
38488W        W47288  22.569   6.483   1.793  0.1136  0.2368 -0.2275
38489W        W47289  16.356   1.540  13.562  0.1799 -0.0183  0.0193
38490W        W47290  23.915   5.590  22.431 -0.2062 -0.0210 -0.1732
38491W        W47291   9.133   7.834   1.580  0.4998  0.1057  0.3507
38492W        W47292  20.542   5.261  32.405 -0.1616 -0.2065 -0.0218
38493W        W47293  15.254   4.649  24.837 -0.1813  0.0460  0.0260
38494W        W47294   4.759   3.681   9.206 -0.0928 -0.0876  0.1541
38495W        W47295   8.379   5.222  25.584 -0.2312  0.0243  0.1723
38496W        W47296  20.567   2.866   4.146  0.3407 -0.1363  0.1715
38497W        W47297  16.289   5.223  17.079 -0.0149 -0.0863 -0.0383
38498W        W47298  10.856   1.770  25.213  0.0809 -0.3167  0.0487
38499W        W47299   8.696   7.402  32.177  0.1144 -0.1661  0.0010
38500W        W47300   1.859   4.924  24.536 -0.0578  0.0933 -0.2454
38501W        W47301  13.776   3.763  28.725 -0.0737  0.1895 -0.3380
38502W        W47302   2.995   3.047  30.851  0.0939  0.3223  0.0260
38503W        W47303  14.410   2.233   2.325 -0.1932 -0.2385 -0.2990
38504W        W47304  22.321   6.145  31.691  0.0009  0.2530  0.2432
38505W        W47305   5.204   3.522  19.977 -0.3896  0.1166  0.2600
38506W        W47306  24.824   7.858  31.846 -0.1493  0.0175 -0.0891
38507W        W47307  21.149   2.474  31.068  0.1427  0.1022 -0.1064
38508W        W47308   0.252   0.148  13.143 -0.0684  0.1930  0.0733
38509W        W47309   0.707   3.421  27.335 -0.1617 -0.0136  0.0453
38510W        W47310  12.686   3.690  31.959  0.0659 -0.0566  0.1959
38511W        W47311  17.827   1.280  14.016  0.0251 -0.0547  0.2023
38512W        W47312  24.597   3.450   0.442  0.0391 -0.0747 -0.1986
38513W        W47313   5.599   5.145  16.490  0.0329 -0.2265  0.0324
38514W        W47314  20.116   5.743  10.128 -0.0245 -0.0029 -0.3500
38515W        W47315  14.474   0.374  23.794  0.1377  0.3684 -0.1516
38516W        W47316  14.094   6.812   7.389 -0.2203  0.1338  0.2387
38517W        W47317  12.476   1.908   3.191  0.1436 -0.1306 -0.4436
38518W        W47318  16.487   5.541  15.155  0.2368 -0.0298 -0.2593
38519W        W47319  11.943   4.239   7.096  0.1109  0.0918  0.2049
38520W        W47320   3.849   4.719  31.692  0.1084  0.1705  0.1572
38521W        W47321  19.808   4.405   2.312  0.4000 -0.0916  0.1434
38522W        W47322   1.599   6.119   2.047  0.0785  0.2502  0.0421
38523W        W47323  15.350   5.773   4.098  0.0332 -0.0725 -0.0024
38524W        W47324  17.766   0.541  13.456 -0.0121  0.0236 -0.2338
38525W        W47325  14.031   0.409  32.069 -0.1628 -0.0232  0.2326
38526W        W47326  22.023   3.439  25.746 -0.1369 -0.2358 -0.2659
38527W        W47327  17.396   6.701  29.814  0.2344 -0.3662  0.0977
38528W        W47328   3.109   5.238   1.261 -0.4058  0.0536  0.0502
38529W        W47329  11.037   6.507  10.938 -0.1321 -0.1207 -0.1267
38530W        W47330   8.541   6.145  19.680  0.0580  0.0689  0.0786
38531W        W47331  21.012   1.625   5.292 -0.1317 -0.2078 -0.3454
38532W        W47332  15.986   2.874   0.404  0.2682 -0.1919 -0.0061
38533W        W47333  21.414   2.467   0.529 -0.0836 -0.2415 -0.0516
38534W        W47334  24.331   7.797  20.196  0.0021 -0.3210 -0.2377
38535W        W47335  15.152   4.767   2.443 -0.2354  0.1556 -0.1347
38536W        W47336  13.522   3.969  10.628  0.3162 -0.0430 -0.1700
38537W        W47337  15.562   4.071  31.154 -0.0367 -0.0771  0.0178
38538W        W47338  15.139   6.484   9.778  0.0286 -0.1157  0.2435
38539W        W47339   7.207   6.452   2.703 -0.1152 -0.0869 -0.2000
38540W        W47340   9.338   6.503  24.689  0.0197  0.1285  0.1170
38541W        W47341   2.983   4.251   8.376 -0.2334  0.2214 -0.0944
38542W        W47342  23.417   2.560  24.339 -0.1605  0.4378  0.1632
38543W        W47343  18.213   7.536   7.948  0.0758 -0.2155  0.4902
38544W        W47344   2.387   7.449  26.417  0.0499 -0.1963  0.2347
38545W        W47345  10.219   3.828  31.833  0.2418  0.2307 -0.2110
38546W        W47346   8.923   1.840  32.559  0.3003  0.3920  0.2620
38547W        W47347  21.915   5.268  10.627  0.0228  0.0634 -0.2419
38548W        W47348   6.063   7.729   6.756 -0.1882  0.2956 -0.0019
38549W        W47349   2.493   3.146  17.774 -0.0317 -0.2137  0.2432
38550W        W47350   8.610   6.889   4.868 -0.1189  0.1632 -0.2068
38551W        W47351   2.380   2.964  20.957  0.2185 -0.0964  0.1773
38552W        W47352   1.522   4.788  31.264  0.3922  0.1015  0.0628
38553W        W47353   5.260   3.442  27.997 -0.1344 -0.1509 -0.3238
38554W        W47354   6.712   5.754  19.289  0.2867  0.2467 -0.0114
38555W        W47355  14.781   6.652  14.014 -0.2460  0.1230  0.2830
38556W        W47356  19.618   3.825   8.706 -0.4106  0.0860 -0.1297
38557W        W47357  23.186   4.742  12.154 -0.0126 -0.0976 -0.1169
38558W        W47358  18.354   0.847   5.124  0.0294 -0.0951  0.0203
38559W        W47359  13.507   3.004  27.878 -0.1440  0.2049 -0.0159
38560W        W47360   1.050   4.932   6.558  0.0615  0.1538  0.1101
38561W        W47361  18.155   3.331  23.659  0.2706  0.1622  0.3192
38562W        W47362  13.924   5.462   1.670  0.3840  0.0178 -0.2061
38563W        W47363  18.806   5.272  10.278  0.1215 -0.0684 -0.1118
38564W        W47364   8.039   5.137  32.341  0.2201 -0.3954 -0.1094
38565W        W47365  10.746   0.286  21.499 -0.1158  0.0751 -0.0423
38566W        W47366  16.417   1.516   5.544 -0.0791 -0.0407 -0.3301
38567W        W47367  22.516   5.626  29.735  0.0164 -0.1229 -0.0281
38568W        W47368   5.402   3.211  24.639  0.1482  0.0202  0.3008
38569W        W47369  21.054   3.951   7.081 -0.0383 -0.0950 -0.0522
38570W        W47370   1.508   3.877   5.180 -0.0996  0.0368  0.1255
38571W        W47371   4.085   0.041   5.398  0.2767 -0.0549 -0.0815
38572W        W47372  24.204   2.447  13.206 -0.1147 -0.1973 -0.2269
38573W        W47373  17.546   0.420  18.638 -0.3694  0.3127  0.1492
38574W        W47374  16.644   1.106  13.515 -0.0323 -0.0005 -0.0463
38575W        W47375   6.371   7.771   9.664 -0.0877  0.2056  0.1057
38576W        W47376   3.351   2.228  19.355  0.0052 -0.0888 -0.0277
38577W        W47377  20.908   7.625  27.725  0.1731 -0.0418  0.1019
38578W        W47378   7.689   3.082   6.214 -0.3137 -0.1361 -0.1323
38579W        W47379  22.159   5.531   8.821 -0.3250 -0.3641 -0.1104
38580W        W47380  11.908   6.493  27.945 -0.2424  0.1846  0.1790
38581W        W47381  18.350   2.616  14.359  0.3005 -0.0588 -0.3893
38582W        W47382  10.094   6.818  11.081  0.0035  0.1300  0.2393
38583W        W47383  16.946   1.459  13.231 -0.0968 -0.0685  0.0600
38584W        W47384  20.864   7.605   0.134  0.1297  0.2196  0.1238
38585W        W47385   4.863   3.485  17.509 -0.0447  0.0582 -0.0242
38586W        W47386  21.289   2.200   2.620  0.2008  0.1805  0.0151
38587W        W47387   2.643   3.499  25.831  0.1209 -0.4787  0.1069
38588W        W47388  22.011   7.097  27.641  0.1134 -0.1470  0.2203
38589W        W47389  19.922   5.498  22.303  0.1251 -0.3412  0.1136
38590W        W47390  13.938   5.671   9.700  0.0366 -0.1215 -0.0958
38591W        W47391  23.953   0.998  31.216  0.3186  0.2081  0.1364
38592W        W47392  18.787   6.028  26.251  0.1120  0.1085  0.3606
38593W        W47393  16.570   6.617   6.763  0.0223 -0.1601  0.0885
38594W        W47394   7.580   5.172   1.901  0.1619 -0.0804 -0.1336
38595W        W47395  12.774   7.205  32.162 -0.0502  0.1772 -0.1303
38596W        W47396   2.646   5.984   5.992  0.1828  0.3585  0.0842
38597W        W47397   0.320   2.946   9.494  0.0516  0.2834 -0.2365
38598W        W47398  24.047   4.882  14.175 -0.1235 -0.1973  0.1772
38599W        W47399   7.814   5.731  31.573  0.3700 -0.2668 -0.0452
38600W        W47400   0.777   3.832   0.342 -0.2592 -0.0829 -0.1802
38601W        W47401   0.133   5.523   0.214 -0.0866  0.0444 -0.1681
38602W        W47402  22.550   3.864   7.756 -0.1969 -0.3120  0.2016
38603W        W47403   5.031   0.106  25.741  0.1453 -0.1289 -0.3658
38604W        W47404   9.157   6.445   3.494 -0.1551  0.0330  0.0210
38605W        W47405  11.245   7.443  25.105 -0.0194 -0.0357 -0.1327
38606W        W47406  22.039   0.009  31.208 -0.3659 -0.0816  0.1730
38607W        W47407   8.026   5.852  14.561  0.1436 -0.2242  0.0405
38608W        W47408   7.901   7.831  28.004  0.0139 -0.0320  0.1102
38609W        W47409   5.870   5.045   8.432 -0.0239 -0.0251 -0.0158
38610W        W47410   3.893   5.927  25.823  0.0481 -0.3323 -0.0872
38611W        W47411  12.997   3.829  30.801 -0.0856 -0.0387 -0.4000
38612W        W47412  22.129   1.600  15.987 -0.0044  0.0743  0.1483
38613W        W47413   8.109   6.839  13.980 -0.1447  0.2066 -0.0864
38614W        W47414   9.545   0.341  31.497 -0.4236  0.0678  0.3952
38615W        W47415  10.709   1.657   0.096 -0.2880 -0.4449 -0.1508
38616W        W47416   0.238   3.768   6.498 -0.0161 -0.1410  0.1997
38617W        W47417  21.434   6.687  14.487 -0.2134 -0.0463 -0.1800
38618W        W47418  13.097   1.541  29.927  0.0609 -0.1353  0.2681
38619W        W47419   5.041   2.881   6.509 -0.2057  0.0561  0.3445
38620W        W47420  17.174   1.601  24.875  0.1105 -0.0098 -0.1793
38621W        W47421  15.000   7.655   5.275  0.2467 -0.1595 -0.0475
38622W        W47422   0.863   4.876   4.248 -0.1349 -0.0170  0.0893
38623W        W47423   7.504   5.887   4.831  0.0169  0.3056 -0.1058
38624W        W47424  20.824   7.512   7.768 -0.0500 -0.1389 -0.2217
38625W        W47425  15.535   4.709   3.766 -0.0242  0.1932 -0.0896
38626W        W47426   1.582   2.248  28.023  0.1072 -0.0548 -0.1037
38627W        W47427  21.456   7.191   5.485 -0.0480  0.2075 -0.0328
38628W        W47428  24.309   5.536  13.573  0.0824  0.1108 -0.3314
38629W        W47429   3.493   3.764   4.753  0.0138  0.0090 -0.1171
38630W        W47430  13.099   5.979   0.236 -0.3138  0.3026 -0.0742
38631W        W47431  23.755   7.714  13.982  0.0601  0.0488  0.1543
38632W        W47432   7.529   6.419   6.550 -0.1478 -0.4323 -0.0328
38633W        W47433   1.070   4.893   1.497 -0.0212  0.2387  0.0781
38634W        W47434   3.076   3.410   9.197 -0.1482 -0.0601 -0.2268
38635W        W47435  19.047   5.375  15.141  0.0771  0.1840  0.1168
38636W        W47436  11.181   0.453   6.418 -0.1220 -0.0545  0.0893
38637W        W47437   3.374   3.970  31.195 -0.0272  0.1364  0.0906
38638W        W47438  11.958   5.805  19.228 -0.0765 -0.0149  0.2068
38639W        W47439  21.213   0.958   0.738  0.0645 -0.1564  0.0319
38640W        W47440   1.896   2.092  10.955 -0.0406  0.1637 -0.2567
38641W        W47441   3.777   6.697  21.631  0.0259  0.0433 -0.1024
38642W        W47442  19.637   1.590  31.622  0.2716 -0.1988 -0.1169
38643W        W47443   9.825   0.079  19.556  0.0199 -0.2880  0.2296
38644W        W47444   0.405   2.390   8.797 -0.3812  0.0012  0.0627
38645W        W47445   2.889   4.532  20.177 -0.1886 -0.3361  0.1079
38646W        W47446  10.193   0.901   5.310 -0.2089 -0.0501 -0.3658
38647W        W47447   9.012   0.921   1.487 -0.0284 -0.0427 -0.1554
38648W        W47448  18.957   4.686   7.325  0.1581  0.1110 -0.0320
38649W        W47449  21.285   6.049  27.313 -0.3202 -0.3272  0.0789
38650W        W47450   4.567   4.772  26.314 -0.2132  0.0596  0.3859
38651W        W47451   9.721   2.777  18.871 -0.1894  0.1267 -0.1870
38652W        W47452  17.214   5.646  13.123  0.0659  0.2370  0.1553
38653W        W47453  20.852   3.087  29.420  0.2303 -0.2177  0.4609
38654W        W47454  22.427   7.375  31.792  0.1429  0.1537  0.0685
38655W        W47455   4.491   7.468  23.088  0.2002  0.1884  0.0938
38656W        W47456  17.873   1.630   0.805  0.3219 -0.0251 -0.1360
38657W        W47457   6.220   2.585  16.216 -0.0559  0.0040  0.0813
38658W        W47458   0.854   7.147   5.904  0.1100  0.0049 -0.2722
38659W        W47459  16.930   2.943   2.553 -0.0629  0.2761 -0.0182
38660W        W47460   7.186   4.233  30.110 -0.1520  0.0179  0.1068
38661W        W47461   8.138   5.337  21.456 -0.1122  0.0822  0.1271
38662W        W47462   1.553   2.807   3.358  0.0923  0.0476 -0.0069
38663W        W47463   6.769   2.356  27.206  0.2769 -0.0874  0.1975
38664W        W47464   8.175   6.778   0.430 -0.0926 -0.1586 -0.0294
38665W        W47465  15.765   5.226  30.843  0.2996 -0.2368 -0.3239
38666W        W47466  14.533   0.448   5.130  0.1338 -0.2177  0.0707
38667W        W47467  14.295   2.251   5.909  0.2447 -0.1504  0.1514
38668W        W47468   8.623   4.400  16.829 -0.0186 -0.0694  0.1071
38669W        W47469  19.573   6.596   8.641  0.0562 -0.0042  0.0698
38670W        W47470   8.455   5.709  14.858 -0.0776  0.1410 -0.0210
38671W        W47471  14.737   2.758  21.410 -0.1860 -0.1461 -0.0978
38672W        W47472  25.009   0.891  20.989 -0.2356  0.0801 -0.2166
38673W        W47473  13.782   6.357  26.347  0.2429 -0.4367  0.4044
38674W        W47474  23.633   0.997  23.300  0.0893 -0.0049  0.0791
38675W        W47475  21.285   0.434   0.489 -0.0077 -0.2682 -0.0053
38676W        W47476   2.391   0.679  21.733  0.2682 -0.1958 -0.0647
38677W        W47477  22.728   7.551  25.065 -0.0469  0.1192 -0.1791
38678W        W47478  16.699   5.165  24.200 -0.0077 -0.0889  0.2199
38679W        W47479  22.603   0.371  21.326  0.2060 -0.1013 -0.1205
38680W        W47480   9.996   4.426   4.194  0.1628  0.0040 -0.3196
38681W        W47481  16.613   6.616   0.070 -0.0405 -0.1557 -0.2234
38682W        W47482  24.413   6.760   1.928 -0.0396  0.0793 -0.3436
38683W        W47483  18.499   0.495  29.660  0.0863  0.1056  0.2340
38684W        W47484   5.736   6.335  18.667 -0.0402  0.0985  0.1095
38685W        W47485   5.895   6.522  30.610  0.3175  0.0452 -0.0236
38686W        W47486  14.772   6.944  27.232  0.0919  0.0625  0.1741
38687W        W47487  17.778   4.785   9.707  0.0112 -0.1529  0.0582
38688W        W47488  22.623   6.252   2.299  0.1739 -0.2706  0.1905
38689W        W47489  15.342   4.520  27.890 -0.1530  0.3684 -0.1215
38690W        W47490   4.143   5.412   2.100 -0.0565 -0.1073  0.1087
38691W        W47491   6.228   5.341   8.463 -0.0752 -0.0320 -0.0058
38692W        W47492   1.280   6.895  31.515  0.0509  0.0968 -0.0821
38693W        W47493  14.382   6.685   5.580  0.1398 -0.1515  0.0399
38694W        W47494   1.801   2.536   0.591 -0.0649 -0.1065 -0.0373
38695W        W47495   7.119   1.645  20.284 -0.1645 -0.2111 -0.0050
38696W        W47496  16.909   5.097   6.439  0.0184 -0.0146  0.0067
38697W        W47497  23.332   7.223  25.838  0.3028 -0.2574 -0.0761
38698W        W47498   3.532   3.297   6.148  0.1363 -0.1560 -0.0200
38699W        W47499  22.984   7.820   7.455  0.0607  0.0747  0.1344
38700W        W47500   8.663   4.059  27.810 -0.1851  0.2251 -0.2074
38701W        W47501  10.728   2.647   8.798 -0.4421  0.2658 -0.2157
38702W        W47502  14.934   5.626  24.357 -0.0417  0.0775  0.0961
38703W        W47503   9.616   3.158  28.515 -0.1134  0.1017 -0.2035
38704W        W47504   6.699   2.273  16.944  0.0670  0.0367  0.0100
38705W        W47505  22.677   1.836  26.411 -0.0413  0.2058  0.1372
38706W        W47506  20.747   2.536  13.250 -0.0314  0.1847  0.1286
38707W        W47507   1.149   0.631  30.696 -0.5268  0.2483 -0.0649
38708W        W47508  20.305   7.655  30.971  0.0456 -0.2165 -0.0693
38709W        W47509  18.583   7.314  30.407  0.3426 -0.3800  0.1623
38710W        W47510  24.484   0.656  21.731  0.2928 -0.3142  0.1052
38711W        W47511   6.466   6.861  16.043 -0.1540 -0.0439 -0.2581
38712W        W47512  15.411   7.690  14.244 -0.1656  0.3747 -0.0019
38713W        W47513   1.359   5.159  10.321 -0.1994  0.0504  0.0686
38714W        W47514  10.472   7.313  20.416 -0.0025  0.0133  0.1558
38715W        W47515  15.697   6.080  24.426 -0.3606  0.2490 -0.0255
38716W        W47516  17.683   2.925  13.151  0.1922  0.2890 -0.0954
38717W        W47517   4.770   7.025  19.846  0.0185 -0.2476  0.2618
38718W        W47518   3.398   4.964   8.941  0.2079 -0.0904 -0.0209
38719W        W47519   4.703   3.768  19.865  0.0359  0.0061 -0.0250
38720W        W47520  15.770   1.052  15.722 -0.0218 -0.0695  0.1894
38721W        W47521  21.877   4.644  26.642 -0.1250  0.2382 -0.0998
38722W        W47522   8.147   1.385  21.497 -0.2013  0.1617 -0.0718
38723W        W47523  17.850   1.958   8.082 -0.1268  0.2191 -0.2019
38724W        W47524  22.845   1.442  30.278  0.1776 -0.0701 -0.1663
38725W        W47525   2.926   1.947   4.364  0.0426 -0.0237 -0.0698
38726W        W47526   4.937   6.252  18.714  0.1962  0.1099 -0.0053
38727W        W47527   1.311   3.880  23.450  0.1899 -0.2497  0.0349
38728W        W47528   6.199   7.289   6.449 -0.1282 -0.0090 -0.0613
38729W        W47529  13.938   0.064  13.915  0.1243  0.0444  0.0155
38730W        W47530   2.398   5.426   7.901 -0.1167 -0.1318 -0.1934
38731W        W47531  22.754   5.881  23.853 -0.0437  0.0065  0.1844
38732W        W47532  11.142   0.848  24.799  0.0001 -0.1255 -0.0410
38733W        W47533  20.381   6.106   1.356  0.2173 -0.1024 -0.1327
38734W        W47534   7.691   2.223   8.877  0.2950  0.0491  0.1363
38735W        W47535  12.638   4.611  27.779 -0.1824  0.1430 -0.0999
38736W        W47536   2.758   6.201   7.754  0.1080 -0.0082  0.3849
38737W        W47537   2.105   6.671   4.322  0.1302  0.3545  0.1679
38738W        W47538   6.197   5.321  31.992  0.1194 -0.0529 -0.0201
38739W        W47539  20.426   2.196  12.056 -0.0994 -0.1106  0.1090
38740W        W47540  18.643   3.488  13.277  0.2311  0.1839  0.0151
38741W        W47541  11.824   2.913  26.527 -0.3228  0.1724 -0.0482
38742W        W47542  20.415   0.402   4.278  0.1605  0.2866 -0.2081
38743W        W47543  22.356   2.699   4.303  0.0092  0.0517 -0.0068
38744W        W47544  25.025   3.422  21.953 -0.0170  0.0817 -0.2865
38745W        W47545   9.618   7.852  16.440  0.2245 -0.2348 -0.1348
38746W        W47546  20.987   1.125  31.879 -0.0746  0.2038  0.3120
38747W        W47547  11.829   1.416   0.151 -0.0674 -0.1150  0.0099
38748W        W47548  24.207   2.533   7.685  0.0691 -0.2311 -0.3634
38749W        W47549   7.207   7.648  14.390  0.1254  0.4636 -0.1388
38750W        W47550  23.003   5.920  11.232  0.0894  0.3039 -0.0054
38751W        W47551  22.470   2.156   3.420  0.1175  0.3144  0.1124
38752W        W47552  15.226   5.075   5.341  0.1899 -0.1933  0.0489
38753W        W47553   5.817   6.497  28.882  0.0517 -0.1339  0.2812
38754W        W47554   8.987   0.752  29.949 -0.0131  0.0603 -0.1368
38755W        W47555  20.214   0.360  22.874  0.1595 -0.0672  0.1972
38756W        W47556  15.554   7.065  31.750  0.0724  0.4916 -0.1752
38757W        W47557  15.967   2.617  28.107 -0.2310 -0.1639 -0.0658
38758W        W47558  18.830   0.844  24.844 -0.1663 -0.1909  0.3128
38759W        W47559   1.873   4.640   6.181 -0.1179  0.0205 -0.0758
38760W        W47560  24.943   0.665  11.347  0.0952 -0.0491 -0.2162
38761W        W47561   6.140   2.568   1.331 -0.1437  0.0611 -0.0028
38762W        W47562  16.069   6.454  23.386  0.0988  0.5182  0.0021
38763W        W47563  17.157   4.582   7.309 -0.0013  0.1626  0.0197
38764W        W47564   3.065   6.908  10.415 -0.0487  0.0350  0.1167
38765W        W47565   5.517   1.010   4.247  0.3464 -0.3577  0.0857
38766W        W47566  17.564   7.178   0.287  0.0797 -0.1950  0.2304
38767W        W47567   7.282   4.189   2.944 -0.1924  0.0850  0.1305
38768W        W47568  13.582   6.780  25.107 -0.1867 -0.0629 -0.3151
38769W        W47569   5.648   1.671  28.056 -0.2370  0.3225 -0.1850
38770W        W47570   7.845   0.975  23.980 -0.0492 -0.0293 -0.1741
38771W        W47571  14.875   5.431  29.347 -0.0303  0.0384  0.2167
38772W        W47572  10.155   7.151  28.563  0.0630 -0.4033  0.0531
38773W        W47573   5.295   1.832  28.391  0.0914 -0.0932 -0.1780
38774W        W47574  23.657   3.008   4.712  0.0210  0.2017  0.2838
38775W        W47575  19.968   7.661  28.861  0.0734 -0.0302 -0.0939
38776W        W47576  24.931   6.598  25.743 -0.0042  0.0802 -0.0757
38777W        W47577  10.738   1.762   4.800  0.5180  0.2687 -0.1197
38778W        W47578   9.117   2.018  23.569 -0.1662 -0.2731 -0.1472
38779W        W47579  16.411   2.605  27.203  0.1903  0.0262 -0.0130
38780W        W47580   5.372   1.360  32.552 -0.0029  0.0208  0.1032
38781W        W47581  17.376   7.442   4.469  0.4039  0.1049  0.1187
38782W        W47582  19.147   5.760  24.318 -0.0229 -0.0208  0.1252
38783W        W47583  13.049   2.085  32.198 -0.0902  0.1193  0.1916
38784W        W47584   3.109   5.880   7.485 -0.0753  0.4793 -0.1536
38785W        W47585  21.954   4.584  29.929  0.3831 -0.0571 -0.1962
38786W        W47586  14.122   7.247   7.196  0.0485 -0.0391 -0.0526
38787W        W47587   8.267   6.451  27.658 -0.2208 -0.1362 -0.0918
38788W        W47588   9.305   6.758   2.630  0.0970 -0.0305  0.1975
38789W        W47589   1.323   3.109  20.842 -0.0183 -0.2042  0.2247
38790W        W47590   1.459   0.821  23.125  0.1126 -0.1043  0.0566
38791W        W47591  12.676   6.847   5.560  0.3001  0.1281 -0.0820
38792W        W47592   1.476   7.144   1.999  0.2252  0.3032  0.1957
38793W        W47593  21.586   0.352  16.963  0.1193 -0.2911 -0.2165
38794W        W47594  10.820   6.135   6.860  0.1507  0.0865 -0.0578
38795W        W47595  14.284   0.754   4.743 -0.0977 -0.1247  0.1739
38796W        W47596  13.998   5.334  27.729  0.0677 -0.1619  0.4156
38797W        W47597  15.211   7.249  14.020  0.0698  0.1420 -0.2820
38798W        W47598  12.147   3.875  23.666 -0.1088 -0.0592  0.0442
38799W        W47599   2.512   4.968  17.298  0.1559 -0.1360 -0.2673
38800W        W47600   3.974   3.929   6.788 -0.2322 -0.3306  0.2212
38801W        W47601  23.408   1.698   6.302  0.1005 -0.1382 -0.1135
38802W        W47602   9.334   7.293   7.091  0.1411 -0.1457  0.0902
38803W        W47603   1.925   2.336  25.688  0.1441  0.0177  0.2396
38804W        W47604   6.764   0.639   7.195  0.0247 -0.2568  0.1023
38805W        W47605   1.262   7.032   9.892  0.2541  0.1089  0.1322
38806W        W47606  19.889   6.093  23.208  0.0730  0.0695  0.1303
38807W        W47607   4.199   0.848   9.305  0.2855 -0.2723 -0.0784
38808W        W47608  10.858   0.260   3.534 -0.1087 -0.0813  0.2742
38809W        W47609  20.669   0.505  11.041 -0.0415 -0.0678 -0.0359
38810W        W47610   3.439   7.252   5.336  0.0697  0.1921 -0.0988
38811W        W47611  11.453   0.269   1.478  0.0502 -0.1395  0.2118
38812W        W47612  17.009   2.521  24.519  0.0562 -0.0881 -0.2057
38813W        W47613  24.442   6.118  20.716 -0.1080  0.3558  0.1325
38814W        W47614  15.313   3.858   9.845 -0.4111  0.0233 -0.2317
38815W        W47615   0.370   7.110   7.905  0.2188 -0.2069 -0.2437
38816W        W47616  11.125   3.080  32.149 -0.1642 -0.1917  0.0133
38817W        W47617   6.151   1.789  15.494 -0.0795 -0.2097  0.2628
38818W        W47618   8.679   1.292  30.213  0.1307 -0.1555 -0.3093
38819W        W47619  15.616   5.002  12.938  0.0835 -0.0987 -0.0561
38820W        W47620   5.831   2.592  17.428  0.0932 -0.2863 -0.1868
38821W        W47621  22.557   5.937  27.005  0.3167  0.3391 -0.3830
38822W        W47622  20.553   4.007  28.814  0.2764 -0.0410  0.3586
38823W        W47623   3.148   0.183   2.100 -0.1159  0.0170 -0.0512
38824W        W47624  20.270   3.928   5.279  0.2970 -0.0658  0.3859
38825W        W47625   7.055   0.929   8.870 -0.1040  0.3139  0.1419
38826W        W47626  11.053   3.658  27.283 -0.2797 -0.0836  0.1456
38827W        W47627   9.895   2.349  24.635 -0.1202  0.0179 -0.0724
38828W        W47628  10.443   3.626   6.418  0.1548 -0.1958  0.0737
38829W        W47629  19.511   6.510  28.764  0.0542 -0.1022 -0.3066
38830W        W47630  12.244   4.104  31.341 -0.1449  0.0336 -0.0837
38831W        W47631   6.956   0.364  26.548  0.0078 -0.1671  0.0570
38832W        W47632   1.024   0.478   6.939 -0.1306  0.1281  0.2580
38833W        W47633  19.237   2.444   8.688  0.0823  0.0113  0.2154
38834W        W47634   6.263   5.739  19.135  0.0353  0.4689 -0.1860
38835W        W47635  21.696   2.470   2.916  0.0004  0.3627  0.1130
38836W        W47636   9.734   7.568   2.376  0.1412 -0.1392  0.0110
38837W        W47637  14.619   6.107   6.962 -0.0202 -0.0379  0.2524
38838W        W47638  13.775   2.446   8.784  0.0308  0.0716  0.0193
38839W        W47639   7.195   1.670   3.541 -0.1096 -0.1330  0.0371
38840W        W47640   0.976   1.624  30.197 -0.2217  0.0318  0.1078
38841W        W47641   0.502   4.541  11.272  0.0064 -0.0930  0.1142
38842W        W47642   8.431   1.878  19.658 -0.2092  0.0174 -0.0628
38843W        W47643  20.193   6.022  26.078  0.0902  0.0293 -0.1216
38844W        W47644  11.626   1.916   2.824  0.3323 -0.0419 -0.2043
38845W        W47645  12.249   2.435  31.880  0.0042 -0.0667  0.0637
38846W        W47646  18.277   0.985   3.000  0.0513  0.1492 -0.0344
38847W        W47647  12.205   3.522   5.344 -0.2137 -0.0845 -0.2651
38848W        W47648  12.495   1.976   4.561  0.0954  0.3028  0.1353
38849W        W47649   7.370   5.615  27.430 -0.2023  0.2204 -0.0785
38850W        W47650   4.454   3.461  29.182  0.3278 -0.0048 -0.0755
38851W        W47651   2.564   6.002   9.654  0.0928 -0.0282 -0.0862
38852W        W47652  11.871   2.643  23.704  0.2509 -0.0911  0.1030
38853W        W47653   3.387   2.286  16.009  0.1628 -0.0341 -0.2388
38854W        W47654   2.246   5.847  28.171  0.2272  0.1080 -0.0585
38855W        W47655  12.212   6.475   6.799  0.0779  0.1713  0.0920
38856W        W47656  18.642   7.381   7.764 -0.3198 -0.1755 -0.0531
38857W        W47657  12.254   6.189  12.078  0.0545 -0.1670  0.3655
38858W        W47658  16.021   5.124  11.255 -0.2095  0.0768  0.0443
38859W        W47659   0.458   5.790   9.839 -0.1320  0.0002 -0.2813
38860W        W47660   1.259   1.436  10.707  0.0293  0.1258  0.0009
38861W        W47661  18.814   1.452  25.485 -0.1994 -0.0679  0.1479
38862W        W47662   1.137   2.433  27.578 -0.2156 -0.0129 -0.3047
38863W        W47663  13.704   6.781  22.460  0.1872 -0.0583 -0.0692
38864W        W47664   4.425   7.810   0.797  0.0836 -0.1724  0.0761
38865W        W47665   1.128   1.677  31.507 -0.3066  0.0171 -0.1728
38866W        W47666   6.064   3.471  32.306 -0.1790 -0.0860 -0.1870
38867W        W47667   3.141   4.627   9.172 -0.0354  0.1028  0.1274
38868W        W47668   9.906   6.649  19.184  0.0736 -0.2308 -0.0184
38869W        W47669   1.229   4.068  28.077  0.0291 -0.0171 -0.4169
38870W        W47670  25.089   6.313  11.289  0.0504 -0.0970 -0.1105
38871W        W47671  16.639   6.335   3.325  0.0043 -0.2196 -0.0722
38872W        W47672  22.737   7.359  25.552 -0.1074  0.1466  0.0844
38873W        W47673  24.320   4.262  24.237 -0.1811  0.1053 -0.0960
38874W        W47674  18.487   5.406  31.824  0.0042  0.3343  0.5315
38875W        W47675  21.828   5.827   8.565 -0.0829  0.2609 -0.2064
38876W        W47676  15.055   6.568  25.190  0.2043 -0.0738 -0.1471
38877W        W47677  11.896   6.137  29.790  0.1078 -0.1802 -0.0902
38878W        W47678   6.896   6.073  27.530  0.2582  0.3288 -0.1123
38879W        W47679  11.830   4.133   0.768  0.0582 -0.0641  0.2079
38880W        W47680   0.673   0.631  26.728  0.1183 -0.0816  0.1724
38881W        W47681   1.815   5.661  10.259 -0.2055 -0.4680 -0.0031
38882W        W47682  20.101   1.639  23.162  0.3619  0.1479 -0.0133
38883W        W47683  10.843   3.244   6.618 -0.0479  0.1936  0.3064
38884W        W47684  18.130   1.928  23.486 -0.1108  0.0452 -0.1618
38885W        W47685   6.369   4.252  17.208  0.0351 -0.1140  0.0946
38886W        W47686   4.566   3.257   0.049 -0.0306 -0.1738 -0.3719
38887W        W47687  14.673   0.461  31.184  0.1554 -0.1309 -0.1154
38888W        W47688   2.842   4.759  16.308 -0.0657 -0.1149  0.1019
38889W        W47689  10.696   2.910  25.305 -0.1646 -0.2796  0.0659
38890W        W47690  24.989   5.193   9.847 -0.1205  0.1194 -0.4246
38891W        W47691   5.939   7.697  15.452  0.3593 -0.1924 -0.0321
38892W        W47692  18.223   2.753   2.616  0.1004 -0.1656 -0.0747
38893W        W47693  12.763   2.402  30.056  0.1681  0.1401  0.2179
38894W        W47694  10.289   1.248  23.940  0.0682 -0.1445 -0.0874
38895W        W47695   2.226   3.807   9.723  0.3527  0.0892 -0.1493
38896W        W47696   6.723   2.048   1.910  0.1177 -0.0833 -0.1881
38897W        W47697   8.185   4.912  27.061  0.0007  0.1227 -0.1053
38898W        W47698  17.796   3.669  30.657 -0.0565 -0.1487  0.4678
38899W        W47699   1.072   2.917  27.614  0.1188 -0.2328  0.1511
38900W        W47700   8.138   2.602   8.536  0.2428  0.1110  0.2122
38901W        W47701   1.692   4.797  29.485  0.0345 -0.1727  0.0026
38902W        W47702  18.418   6.631  26.841  0.0493 -0.2027  0.3891
38903W        W47703  12.853   2.349  28.490  0.2610 -0.1663  0.3128
38904W        W47704   8.061   6.147  19.883  0.0220 -0.1640 -0.4079
38905W        W47705   1.943   0.957  20.820 -0.1317 -0.0204 -0.0596
38906W        W47706   5.963   4.773  20.579  0.0928 -0.1977  0.0569
38907W        W47707  24.132   4.695   2.465  0.2304 -0.1396 -0.1174
38908W        W47708  22.585   3.622  23.971 -0.2789  0.0628 -0.2301
38909W        W47709  11.300   0.831  32.005 -0.1180  0.0784  0.1806
38910W        W47710   6.586   0.047   3.913 -0.4343  0.4135 -0.1763
38911W        W47711  23.872   2.895  13.174 -0.3607 -0.1256 -0.1177
38912W        W47712   2.903   3.878   5.586 -0.0178 -0.2126 -0.1136
38913W        W47713  17.885   4.824  12.888  0.0802 -0.0641 -0.2665
38914W        W47714   9.256   5.175   6.175  0.0770 -0.3752 -0.3043
38915W        W47715   4.602   6.345  31.064  0.0194 -0.2245  0.1884
38916W        W47716  21.085   2.932  30.860  0.2602  0.0171 -0.1495
38917W        W47717  20.103   2.227  26.048  0.4899  0.1549  0.2625
38918W        W47718  18.645   5.146   0.502  0.0261  0.0286  0.3198
38919W        W47719   9.252   2.871   6.380  0.0894 -0.1226 -0.0558
38920W        W47720  17.999   4.448  26.009  0.2065 -0.1442  0.1601
38921W        W47721  14.188   1.120  21.969  0.0249 -0.1499 -0.2436
38922W        W47722   8.222   2.753  17.337  0.1673  0.3431 -0.0260
38923W        W47723  10.661   3.054  32.027  0.0097 -0.0520  0.1537
38924W        W47724  18.588   1.566  14.648  0.3337 -0.2772  0.0440
38925W        W47725   1.592   7.853  24.053 -0.0948 -0.1065  0.0958
38926W        W47726  20.593   7.406  11.931  0.0527  0.2530 -0.0872
38927W        W47727  12.099   6.670   8.979 -0.3504  0.2211  0.0175
38928W        W47728  20.511   5.607  16.263  0.2162  0.2382 -0.0528
38929W        W47729  21.657   7.780  27.110 -0.1234 -0.2946  0.0587
38930W        W47730  18.158   2.314   1.051 -0.1281  0.0065 -0.0021
38931W        W47731  10.694   7.707   0.313  0.2233  0.0486  0.2085
38932W        W47732   1.863   4.107  11.185 -0.3413  0.1433  0.0912
38933W        W47733   1.888   5.117  21.678  0.0171 -0.3140  0.0531
38934W        W47734  23.712   3.113   7.092  0.1955  0.2056 -0.3464
38935W        W47735  14.686   7.197  11.066  0.0196  0.1253 -0.2943
38936W        W47736  13.084   0.476   0.288  0.2510  0.0720  0.0287
38937W        W47737  17.501   6.322   8.852 -0.2294  0.0019 -0.0133
38938W        W47738   3.860   3.719  16.275  0.0358  0.1419  0.2410
38939W        W47739  15.673   1.908  14.641 -0.0392  0.1622 -0.2010
38940W        W47740   1.010   2.685  11.128  0.2414  0.1886  0.0330
38941W        W47741  14.869   5.014  26.749  0.2219  0.0491  0.2747
38942W        W47742   9.281   4.619   2.156  0.0622 -0.0517 -0.1167
38943W        W47743   8.135   0.878   8.791  0.1408 -0.2442  0.3994
38944W        W47744   3.532   5.084  20.789 -0.1055 -0.1708 -0.2148
38945W        W47745  21.246   4.192  10.699  0.1712  0.3910  0.0613
38946W        W47746  23.781   2.670   7.864  0.1837  0.1260  0.1217
38947W        W47747   2.608   3.678  20.417 -0.0641  0.1225  0.0707
38948W        W47748  10.035   1.196   6.697 -0.0245 -0.3981  0.1252
38949W        W47749  17.045   6.310  26.012 -0.1536  0.0585 -0.1064
38950W        W47750  21.426   6.697  26.403 -0.2468  0.0286 -0.0016
38951W        W47751  21.676   3.849  23.699 -0.0214 -0.1359  0.1220
38952W        W47752   9.146   0.872  21.866 -0.2055 -0.2930 -0.2155
38953W        W47753  15.890   3.579  28.702  0.0981 -0.2611 -0.0836
38954W        W47754  22.238   7.434  30.449  0.2289  0.0684  0.2060
38955W        W47755   9.826   2.649   9.335 -0.1009 -0.5112 -0.1242
38956W        W47756  10.791   0.696  28.730 -0.0483  0.1664 -0.1506
38957W        W47757   6.713   3.830   2.069 -0.2241  0.1611  0.1563
38958W        W47758   4.953   5.817  21.038 -0.0273  0.0620  0.0349
38959W        W47759  11.806   0.122  30.079  0.0481 -0.0721  0.3424
38960W        W47760  17.434   3.626  23.642  0.0685  0.1819 -0.0134
38961W        W47761  19.113   3.620  26.590 -0.1303 -0.1343 -0.1755
38962W        W47762  18.095   5.517  26.093 -0.1035 -0.0125 -0.0465
38963W        W47763   3.886   7.738   7.437 -0.0427 -0.3555  0.0868
38964W        W47764   3.078   0.722   6.473 -0.3688  0.1323 -0.1355
38965W        W47765   1.616   3.173  29.833 -0.0806 -0.2937  0.2884
38966W        W47766  19.664   2.505   9.494 -0.1423 -0.2241  0.0391
38967W        W47767  14.118   0.201   3.226  0.0818 -0.2336 -0.0269
38968W        W47768  23.341   5.154  24.824  0.1221 -0.0327  0.0681
38969W        W47769   5.516   5.322   2.867 -0.1084 -0.1325  0.0480
38970W        W47770  20.184   7.854   9.112 -0.0919  0.1167  0.3267
38971W        W47771  16.454   7.647   2.241 -0.1640  0.1485  0.1094
38972W        W47772  18.836   2.455  18.141 -0.2162 -0.0431 -0.1703
38973W        W47773  18.755   3.662  30.447  0.0643  0.2703  0.2464
38974W        W47774  19.647   5.281  12.397 -0.3327  0.0113 -0.0253
38975W        W47775  23.411   2.805  30.576  0.0482 -0.0887  0.2326
38976W        W47776  19.857   5.710  25.885 -0.1883 -0.0228  0.3350
38977W        W47777  23.888   6.610  31.156 -0.3636  0.2050  0.3622
38978W        W47778   8.864   4.447   9.708 -0.1801  0.1907  0.3199
38979W        W47779  16.191   7.171  32.415  0.1591  0.1263  0.1613
38980W        W47780   4.616   6.559  15.583 -0.1095  0.0819 -0.0399
38981W        W47781   0.531   2.652   3.381  0.2528  0.0643 -0.2461
38982W        W47782   7.241   0.888   3.273 -0.3883  0.1949  0.5205
38983W        W47783   3.519   4.281  21.465 -0.0380  0.3033 -0.0645
38984W        W47784  18.241   7.145   2.176 -0.2521  0.1077 -0.0567
38985W        W47785  19.090   3.651  10.344 -0.1756  0.3207 -0.2003
38986W        W47786  11.968   4.138   1.719  0.1715 -0.4458  0.2615
38987W        W47787  19.413   1.105   7.770  0.2045 -0.0245  0.1121
38988W        W47788   8.117   2.337   9.062 -0.1792  0.2250  0.1480
38989W        W47789  25.031   5.409  23.004 -0.1007 -0.3307  0.2416
38990W        W47790  14.704   1.730   8.220  0.2380  0.1588 -0.1820
38991W        W47791   3.781   7.432   9.780  0.0803 -0.1125 -0.0327
38992W        W47792  13.503   0.127  11.170  0.1455  0.1428  0.0542
38993W        W47793  14.463   4.332   4.013  0.0090  0.3455  0.2436
38994W        W47794   8.827   2.007   0.471 -0.2464  0.2007 -0.3565
38995W        W47795   2.546   2.049  32.364  0.2344  0.1270 -0.1974
38996W        W47796   5.211   5.357  29.018  0.0626 -0.0043  0.1642
38997W        W47797  24.235   4.322   9.100  0.2349 -0.2381 -0.1483
38998W        W47798   3.639   3.658   1.938 -0.0336 -0.0741 -0.2961
38999W        W47799  12.221   3.716   2.643  0.1708  0.2445  0.1110
39000W        W47800  24.886   5.355   1.136 -0.0032 -0.0621  0.1411
39001W        W47801   8.821   6.380  25.367 -0.2458 -0.0564 -0.2645
39002W        W47802  23.911   4.444   4.038 -0.0082  0.1805  0.0404
39003W        W47803  16.248   2.350  23.762  0.1135 -0.0953  0.0456
39004W        W47804   2.467   3.735   9.258  0.2207  0.1439 -0.1881
39005W        W47805  13.778   0.116  22.322  0.0130 -0.1317 -0.3280
39006W        W47806  22.717   2.020  10.994 -0.0598 -0.2124 -0.2122
39007W        W47807   8.308   3.443   5.005 -0.2760 -0.0657 -0.2177
39008W        W47808  12.886   7.164   1.344 -0.4130  0.2806 -0.1197
39009W        W47809  15.877   2.680  25.816  0.0687 -0.1022  0.0069
39010W        W47810   7.286   2.988   0.366  0.0767  0.0839 -0.1362
39011W        W47811   8.009   4.527  15.096 -0.1915 -0.0157  0.3748
39012W        W47812   7.920   3.115   1.356  0.1273 -0.1267  0.2138
39013W        W47813  21.380   4.038   1.781  0.0531  0.1013 -0.0919
39014W        W47814  24.501   7.182   4.627 -0.0358 -0.0099 -0.1685
39015W        W47815  23.711   3.796  23.026  0.1033  0.0004  0.0667
39016W        W47816  21.107   1.910   8.157 -0.4966 -0.1666  0.2026
39017W        W47817   7.849   1.701  31.442  0.1813  0.1327 -0.2133
39018W        W47818   9.434   1.020  31.479  0.3150 -0.0602 -0.0162
39019W        W47819  21.998   5.395  14.268  0.4726  0.0909 -0.1212
39020W        W47820   6.445   7.770  16.249 -0.4614  0.0220 -0.1441
39021W        W47821  10.444   2.209  27.821  0.0876  0.1759 -0.0009
39022W        W47822  17.416   7.289   4.981  0.1317  0.2373  0.3375
39023W        W47823  18.653   0.534  26.567  0.1045 -0.1368 -0.1410
39024W        W47824  17.968   0.642   7.945 -0.5251 -0.0997 -0.0675
39025W        W47825  12.348   0.101  26.635 -0.0035  0.1655 -0.0521
39026W        W47826   0.898   2.676  28.514  0.0201 -0.0424 -0.2992
39027W        W47827   7.229   0.969  31.512  0.1240 -0.0231  0.2050
39028W        W47828   4.127   5.561  20.745 -0.0090 -0.2029  0.0348
39029W        W47829  20.650   3.051   1.532  0.0217  0.1377 -0.2971
39030W        W47830  10.157   7.231   6.207  0.2264  0.0581 -0.3214
39031W        W47831  13.316   5.149  14.242 -0.2769 -0.3673 -0.2159
39032W        W47832  18.625   1.643  29.057  0.2865 -0.1529  0.2437
39033W        W47833  14.798   0.477   5.831 -0.0313 -0.0556  0.2357
39034W        W47834   4.555   4.916  10.362  0.0706  0.1508  0.0286
39035W        W47835   5.186   4.952   3.036 -0.0325 -0.1406  0.0553
39036W        W47836   2.899   3.577  26.924 -0.3222  0.2666  0.0831
39037W        W47837  17.192   2.468  28.290  0.2228 -0.0365  0.1482
39038W        W47838  13.099   7.716  28.934 -0.2858  0.0288 -0.1378
39039W        W47839   0.876   3.917   2.683  0.0591  0.0538  0.3053
39040W        W47840  13.944   0.796  13.471  0.0611 -0.0422 -0.3332
39041W        W47841   7.862   4.348  24.759 -0.2164  0.0399  0.2278
39042W        W47842   5.208   6.990   0.180 -0.0396  0.1162  0.1235
39043W        W47843   7.930   7.450  17.919  0.1093 -0.1211  0.0465
39044W        W47844  11.165   5.192   6.495 -0.2465  0.0432  0.0736
39045W        W47845   6.293   0.918   9.462 -0.2938 -0.0159  0.1305
39046W        W47846  20.578   5.291   1.907 -0.0348 -0.1458  0.4173
39047W        W47847   7.165   0.604  21.654  0.1323  0.3558  0.0433
39048W        W47848   4.654   1.504  16.992 -0.0871 -0.1370  0.2246
39049W        W47849  14.345   0.646   6.097  0.1857 -0.1793 -0.2615
39050W        W47850   4.992   4.039  26.955 -0.1435  0.0441 -0.0722
39051W        W47851  24.148   4.778  31.624  0.1904  0.0514 -0.0799
39052W        W47852  16.767   3.342  25.703  0.2557  0.0276  0.1131
39053W        W47853  18.094   6.544  28.207  0.0885  0.1477  0.1686
39054W        W47854   2.880   4.507   9.980  0.3772  0.1230 -0.1234
39055W        W47855  16.318   2.909  30.232  0.0564 -0.0066  0.1440
39056W        W47856  15.017   3.437  22.544 -0.0297  0.0576 -0.1279
39057W        W47857  22.802   3.563   6.458 -0.2325  0.0927  0.2527
39058W        W47858  14.884   4.198   8.659  0.1464  0.1535  0.1003
39059W        W47859   7.322   6.884   8.419 -0.4391  0.0269  0.2025
39060W        W47860   9.941   7.715   6.324  0.0866  0.0785  0.1749
39061W        W47861  23.254   1.518   3.842  0.1948  0.2069 -0.0532
39062W        W47862   2.625   6.441  20.582  0.2004  0.1169  0.2036
39063W        W47863  12.513   7.621  26.095  0.1145 -0.1242  0.1056
39064W        W47864  16.406   0.855   3.045  0.1325  0.1208  0.0048
39065W        W47865   0.958   1.226  12.311  0.3839 -0.2778 -0.0201
39066W        W47866  16.640   4.741  16.178 -0.0211  0.2112  0.0968
39067W        W47867   2.438   2.818  22.926 -0.0945 -0.0642 -0.1347
39068W        W47868  11.740   2.586  21.561 -0.0685 -0.1835  0.0097
39069W        W47869  10.396   1.078  21.695 -0.1579  0.3035  0.0199
39070W        W47870  17.523   4.447   3.477 -0.0994 -0.1793  0.3795
39071W        W47871   6.263   5.578  20.922 -0.0906  0.1804 -0.1422
39072W        W47872  22.643   2.654  11.313 -0.2148  0.2691 -0.0405
39073W        W47873   8.921   5.762  28.590  0.1041  0.0519 -0.1437
39074W        W47874   6.918   6.896  31.524 -0.1289  0.1719  0.0212
39075W        W47875  23.972   0.204  27.300 -0.0288  0.1319  0.0604
39076W        W47876  14.048   6.358   7.859 -0.1685 -0.1278 -0.0791
39077W        W47877  18.899   1.231   6.408  0.1060 -0.1784 -0.0481
39078W        W47878  23.638   3.350  22.678  0.0522  0.3794 -0.0350
39079W        W47879  20.345   0.828  11.226  0.1994  0.0575 -0.3143
39080W        W47880  15.162   0.152  29.172 -0.2211 -0.1047 -0.0524
39081W        W47881   9.217   4.262   2.565 -0.3167 -0.1330  0.0468
39082W        W47882   6.889   6.151  20.604 -0.1573  0.0509 -0.2144
39083W        W47883  16.525   7.655   5.177  0.2689 -0.2318  0.3433
39084W        W47884   5.938   5.937  21.058 -0.0752  0.3551  0.2917
39085W        W47885   6.223   2.178   1.041 -0.2520  0.0315 -0.0093
39086W        W47886  12.692   1.619  24.287 -0.0799 -0.0426  0.0482
39087W        W47887  14.082   1.797  12.117 -0.1149  0.3668 -0.1296
39088W        W47888  22.046   4.138  22.039 -0.1661  0.2550 -0.2757
39089W        W47889  20.433   4.946   5.184  0.0148  0.3692 -0.0163
39090W        W47890   7.229   1.564  27.559  0.3130 -0.0595 -0.0295
39091W        W47891  16.165   4.364  30.021 -0.2903 -0.1085  0.1369
39092W        W47892  14.024   0.572   7.219  0.0699  0.1480 -0.1249
39093W        W47893  24.809   2.005   1.736 -0.0195 -0.0788  0.0944
39094W        W47894   1.134   7.527   3.384 -0.3836 -0.0010  0.0906
39095W        W47895  15.137   5.268  10.415 -0.3425 -0.1170 -0.0916
39096W        W47896  20.653   5.945  14.914  0.0235 -0.0146 -0.2157
39097W        W47897   8.767   5.792  26.808 -0.2030  0.0597  0.0252
39098W        W47898  22.760   6.372  10.905 -0.1498  0.0302  0.1475
39099W        W47899  24.193   4.030   8.463  0.0974 -0.1580 -0.0737
39100W        W47900  13.520   6.117   7.472  0.0688  0.0275  0.1023
39101W        W47901   7.368   5.074  31.054  0.0158 -0.1621 -0.2025
39102W        W47902  13.026   6.951  11.878  0.1395 -0.0113 -0.0324
39103W        W47903   0.265   3.295   9.086 -0.2079  0.4161  0.1041
39104W        W47904   4.649   4.386  29.407 -0.0408 -0.0504 -0.0822
39105W        W47905  23.280   4.853  13.648 -0.1708  0.0453 -0.1047
39106W        W47906  15.607   5.035  16.554  0.0412  0.0277  0.0801
39107W        W47907  21.094   2.351  16.492 -0.1101 -0.0105  0.0887
39108W        W47908  12.645   3.869  29.867  0.2656  0.0035  0.2994
39109W        W47909   8.080   0.585   2.065 -0.1343 -0.1599 -0.1880
39110W        W47910   0.337   6.525  11.179 -0.0385  0.0131  0.2488
39111W        W47911  23.940   1.594  25.949  0.0201 -0.1886  0.0209
39112W        W47912   2.983   2.571   8.237 -0.1450  0.0123 -0.0883
39113W        W47913   0.437   2.297  12.400  0.1717  0.3049 -0.0629
39114W        W47914  15.614   6.891  29.340 -0.0336 -0.1621  0.0798
39115W        W47915  22.709   4.134  32.107 -0.0391 -0.2471 -0.0995
39116W        W47916   5.832   7.611   7.810  0.0409 -0.0801 -0.1107
39117W        W47917   5.121   1.305   5.561  0.0627  0.3459 -0.1001
39118W        W47918   3.401   5.389  26.402 -0.4215 -0.2376 -0.1279
39119W        W47919  24.120   6.317  26.902  0.1259 -0.4590  0.0339
39120W        W47920   6.034   6.662  27.426 -0.0007  0.2360 -0.1040
39121W        W47921  20.546   3.834  26.835  0.0280  0.1278 -0.2395
39122W        W47922  15.008   6.570  25.829  0.0653  0.0276 -0.2208
39123W        W47923   9.173   6.411   5.643 -0.0197 -0.1331  0.0813
39124W        W47924   0.982   7.254  29.891  0.0683 -0.1162 -0.1756
39125W        W47925   5.113   0.574  24.601 -0.0926  0.0617  0.2474
39126W        W47926  16.073   6.021  11.628 -0.1864  0.0747  0.0724
39127W        W47927  22.499   1.033  31.569 -0.0782 -0.2062 -0.1046
39128W        W47928   8.838   2.597  30.353 -0.3143  0.2394  0.1709
39129W        W47929  18.639   3.880  15.137 -0.2730 -0.2436  0.2176
39130W        W47930  11.894   6.402  17.615 -0.0470  0.0842  0.0583
39131W        W47931   0.968   3.504   9.468  0.1927 -0.0759  0.1395
39132W        W47932   4.065   1.817  23.517  0.1642  0.0968  0.1474
39133W        W47933   6.103   2.328  22.454 -0.0467  0.2503  0.1829
39134W        W47934  15.680   6.895   3.005  0.2525 -0.1161  0.1587
39135W        W47935   1.247   5.983  20.196  0.2353  0.0499  0.1429
39136W        W47936  17.614   7.238  17.269 -0.3745  0.0732  0.1162
39137W        W47937   7.635   3.784   4.032  0.0281 -0.1026  0.0618
39138W        W47938  17.090   5.630  30.931 -0.0430 -0.0759 -0.1952
39139W        W47939  21.040   2.944   6.296  0.4188 -0.4133  0.1458
39140W        W47940   5.942   7.532   9.593 -0.1807  0.2785 -0.0521
39141W        W47941  16.778   6.276  25.086 -0.0305 -0.0827  0.3717
39142W        W47942  24.554   6.937  19.816  0.2323  0.0582  0.0067
39143W        W47943  22.144   5.637   6.547 -0.1396 -0.0308  0.0080
39144W        W47944   2.825   5.684  18.728 -0.1294  0.0186 -0.2188
39145W        W47945   1.807   4.944  11.697 -0.0460  0.2425 -0.0573
39146W        W47946   4.499   1.567  19.781 -0.2047 -0.0082 -0.2430
39147W        W47947  14.901   6.244   2.256 -0.0400 -0.0879 -0.2350
39148W        W47948   0.455   1.848   8.941 -0.1475  0.1323 -0.0068
39149W        W47949  18.598   1.897  16.316  0.0690 -0.1988 -0.0183
39150W        W47950   9.752   5.635   4.529 -0.1888  0.0687 -0.2086
39151W        W47951  22.279   7.058   3.840  0.1987  0.0307 -0.1730
39152W        W47952   8.937   6.964   8.481 -0.1657 -0.2254 -0.0984
39153W        W47953  13.136   2.400  23.525 -0.2249  0.1232 -0.0598
39154W        W47954   3.169   5.923  22.839  0.0440 -0.0311  0.1819
39155W        W47955  24.009   3.844  22.660 -0.1711 -0.1087  0.0085
39156W        W47956  15.617   0.545  28.360 -0.0213  0.2306 -0.1016
39157W        W47957   2.005   3.602  26.650  0.2357 -0.0412  0.0849
39158W        W47958   0.951   5.598  23.347  0.0508 -0.3213 -0.0040
39159W        W47959   9.558   5.271  19.409  0.1961 -0.1102 -0.0397
39160W        W47960  22.515   2.591  26.254 -0.1894  0.1441  0.3098
39161W        W47961  21.616   1.577   5.341 -0.2086  0.2514 -0.2734
39162W        W47962  15.342   5.132   6.244  0.0828 -0.0458 -0.1212
39163W        W47963   3.778   2.180   3.330  0.0604 -0.2050  0.3818
39164W        W47964  14.840   0.658  30.030  0.0923  0.0775 -0.1991
39165W        W47965  17.214   6.072  27.224  0.1985 -0.1783 -0.1505
39166W        W47966   8.709   2.435  27.700 -0.2066 -0.3186  0.0651
39167W        W47967  22.816   3.288   5.890  0.2702  0.2208  0.0106
39168W        W47968  21.236   4.931  16.322  0.0844 -0.0960  0.1807
39169W        W47969   9.535   1.470  25.440  0.4113  0.2626 -0.2148
39170W        W47970  19.725   2.172   3.182 -0.0609 -0.1959 -0.2984
39171W        W47971  14.138   4.509  24.660 -0.3195  0.1104  0.0667
39172W        W47972  17.220   7.666  29.353  0.0243 -0.2594  0.1030
39173W        W47973  15.433   4.736  14.156  0.0928  0.1926  0.0904
39174W        W47974   2.810   3.314  27.338 -0.1068 -0.3100  0.0369
39175W        W47975   3.871   2.024  20.737 -0.1873  0.0250  0.1189
39176W        W47976   7.799   1.204  32.348 -0.0885 -0.2911 -0.0949
39177W        W47977  17.942   3.867   4.486 -0.0138  0.1457 -0.2193
39178W        W47978  15.144   0.478  24.526 -0.1456  0.2925 -0.1312
39179W        W47979  14.067   6.011  25.692 -0.3474 -0.0665 -0.0276
39180W        W47980  16.379   4.433  32.322  0.1649  0.1481 -0.0105
39181W        W47981  23.657   2.332  23.969 -0.0535 -0.2638  0.5118
39182W        W47982   4.623   1.713  15.800 -0.0468 -0.0574 -0.4163
39183W        W47983  23.965   1.282  20.758 -0.0939 -0.0637 -0.1711
39184W        W47984   4.076   1.558   8.034 -0.3246  0.0759  0.0678
39185W        W47985   3.212   4.198   7.108  0.1386 -0.5925  0.0696
39186W        W47986  13.660   1.470   1.838  0.2890  0.3065 -0.1796
39187W        W47987  13.280   6.433  28.809 -0.0301  0.1995  0.0134
39188W        W47988  17.453   7.643  15.903  0.1847 -0.0846  0.0650
39189W        W47989  22.129   6.837   8.081 -0.0469  0.0111  0.0583
39190W        W47990  16.757   5.078   5.051  0.0850 -0.1750 -0.1800
39191W        W47991  16.805   7.817  13.401 -0.1337 -0.0577  0.0721
39192W        W47992   8.039   6.203   7.888 -0.0742  0.5137 -0.2471
39193W        W47993  17.076   5.164   9.251 -0.1150  0.3236  0.1338
39194W        W47994  23.738   7.365  11.302  0.2985 -0.0768  0.2673
39195W        W47995  24.476   6.488  27.282 -0.5946  0.0383 -0.1055
39196W        W47996   9.838   0.407  18.275  0.0005 -0.0954  0.0968
39197W        W47997   0.764   1.843  28.131  0.0601 -0.1310  0.0837
39198W        W47998   0.164   5.903   6.943 -0.1738 -0.1108  0.0030
39199W        W47999   5.125   2.840   4.139 -0.0092 -0.1410  0.1122
39200W        W48000   4.968   0.680  15.433 -0.1314  0.0625 -0.0716
39201W        W48001   4.752   0.087  21.848 -0.1121  0.3132 -0.1632
39202W        W48002  13.301   5.180  25.117 -0.0133 -0.0351 -0.1336
39203W        W48003   4.888   4.776   5.627 -0.1084  0.2637 -0.0255
39204W        W48004  24.802   1.330   8.804 -0.2039 -0.2287  0.1070
39205W        W48005   8.699   7.337  25.022  0.1983 -0.2260  0.0384
39206W        W48006  10.652   3.754  25.903  0.1253  0.1111  0.0201
39207W        W48007  12.799   2.465   9.081 -0.1960 -0.0230  0.2006
39208W        W48008  23.059   7.303  24.791 -0.2472 -0.1320 -0.0762
39209W        W48009   9.019   1.665   0.817  0.1348 -0.2461 -0.3476
39210W        W48010   1.260   5.674  31.466  0.0740 -0.0319 -0.0377
39211W        W48011  14.552   1.873  12.186 -0.1728 -0.0998  0.1347
39212W        W48012  10.255   1.752  28.339 -0.1939 -0.0761  0.0292
39213W        W48013   8.821   6.435  21.955  0.1617  0.0442  0.0319
39214W        W48014   0.861   2.220  24.986  0.1129 -0.0095  0.3539
39215W        W48015   2.204   2.373  20.390  0.2271  0.0461  0.0190
39216W        W48016  19.988   4.556  11.537  0.1809  0.2493 -0.3544
39217W        W48017   6.726   1.093  15.299 -0.4146 -0.1444 -0.0781
39218W        W48018  25.131   1.581  27.858 -0.0720 -0.0001 -0.1515
39219W        W48019  20.283   2.819   1.346 -0.3512 -0.1040  0.0604
39220W        W48020  15.360   3.850  11.334  0.1020 -0.2152 -0.0007
39221W        W48021   9.272   4.439  22.037  0.0120 -0.1922  0.1350
39222W        W48022  21.073   3.390   3.070 -0.2222  0.2583 -0.0155
39223W        W48023  12.424   2.307  27.575 -0.1011 -0.1344  0.1240
39224W        W48024  18.623   3.761   6.577 -0.0480  0.2812 -0.0113
39225W        W48025  18.355   3.329  16.903  0.1928  0.0850  0.2845
39226W        W48026  12.201   3.870   9.503 -0.0489 -0.0606 -0.2081
39227W        W48027  13.504   4.450  27.412  0.3262 -0.0283  0.2779
39228W        W48028  16.884   2.017  13.115  0.2961  0.0425  0.0760
39229W        W48029  18.127   4.990  15.382  0.0896  0.1324  0.0220
39230W        W48030  12.424   6.497   5.288  0.2466  0.3151 -0.1998
39231W        W48031  21.082   1.770   1.173 -0.5026 -0.2423 -0.1653
39232W        W48032   7.982   1.112  15.552 -0.4055  0.2194 -0.0158
39233W        W48033   5.899   0.139  22.342  0.3101  0.3995  0.6218
39234W        W48034  10.088   4.124   5.146 -0.2916 -0.3462 -0.2795
39235W        W48035   9.696   0.147  19.068  0.1520 -0.0452 -0.0981
39236W        W48036  10.561   6.211   2.915 -0.2418 -0.1997  0.0426
39237W        W48037  18.384   0.126   6.887  0.0342 -0.4980 -0.2615
39238W        W48038  14.956   5.413  14.137  0.1616  0.1373  0.0272
39239W        W48039   8.388   6.402  22.364 -0.0509 -0.0534 -0.0005
39240W        W48040  11.228   0.400  21.471  0.0432 -0.2438 -0.0829
39241W        W48041  16.556   7.378  14.755  0.0492 -0.1900  0.0048
39242W        W48042   1.047   4.471  25.337 -0.1822 -0.1870  0.0037
39243W        W48043   7.974   6.921  22.977  0.0370 -0.0787 -0.0393
39244W        W48044   4.000   0.734  10.484 -0.0407 -0.0828  0.2902
39245W        W48045  18.282   6.454   4.132 -0.1056  0.1192 -0.1724
39246W        W48046  23.659   4.541  24.084  0.0128  0.0134 -0.1341
39247W        W48047   0.079   4.943  11.705 -0.1027 -0.3705 -0.3132
39248W        W48048   4.193   6.844  28.601  0.0636 -0.0134  0.1004
39249W        W48049  12.411   7.591  26.975 -0.3052  0.1941  0.1079
39250W        W48050  21.422   7.676   8.710 -0.0081 -0.2848 -0.0891
39251W        W48051  23.175   3.804   3.775 -0.0304 -0.1620 -0.0436
39252W        W48052  20.574   5.691   0.619  0.1668  0.0682 -0.2969
39253W        W48053   5.190   5.072  29.564 -0.1521  0.1111  0.1536
39254W        W48054   1.342   0.291  20.046 -0.1963  0.0953 -0.1765
39255W        W48055  20.659   3.862  31.998  0.2794  0.2096 -0.1001
39256W        W48056  24.186   6.931   4.312  0.3388  0.0651  0.0568
39257W        W48057  22.188   4.598  22.151  0.1094 -0.2571 -0.1919
39258W        W48058  24.061   0.246  24.851 -0.1630 -0.2598  0.0015
39259W        W48059  18.356   6.607  31.776  0.1545  0.0170 -0.0637
39260W        W48060   9.807   4.653   6.593 -0.3014  0.0910  0.2711
39261W        W48061  15.152   0.961   1.039  0.1598  0.1994  0.0133
39262W        W48062  17.550   3.290   7.596  0.0221 -0.4138 -0.1921
39263W        W48063   4.165   4.863   0.003  0.0194 -0.2140 -0.0796
39264W        W48064   7.826   2.904   5.352 -0.1911 -0.0380 -0.0997
39265W        W48065   5.210   1.386  27.179 -0.1325  0.0385 -0.1268
39266W        W48066  12.267   5.416  19.165  0.1284  0.0186 -0.0307
39267W        W48067  24.858   6.778   4.582  0.0422  0.0556  0.1560
39268W        W48068   6.094   1.956  26.227 -0.0267 -0.0365  0.1344
39269W        W48069  21.570   1.316  29.661  0.1120 -0.2016 -0.0869
39270W        W48070  18.140   1.417   3.188 -0.0140  0.1906  0.1786
39271W        W48071   3.194   1.900   9.007  0.0372  0.0541  0.0126
39272W        W48072   8.237   3.888  18.837 -0.0445 -0.2791 -0.0318
39273W        W48073  15.032   2.595   6.746 -0.0282 -0.0787  0.2250
39274W        W48074  14.247   6.034  25.199 -0.2274  0.2078  0.2086
39275W        W48075  13.660   3.558   7.724 -0.2284  0.0109  0.1695
39276W        W48076  23.634   5.698  15.112  0.0345 -0.0619 -0.0002
39277W        W48077  11.502   4.154   7.746  0.2743  0.0738 -0.2144
39278W        W48078  21.045   7.390  23.360  0.0166  0.1079 -0.0085
39279W        W48079  10.113   1.358  22.899 -0.1610  0.0678 -0.1957
39280W        W48080   2.290   1.203   7.995  0.3826 -0.1202  0.0663
39281W        W48081  23.178   1.283  29.368  0.0812  0.3660 -0.0543
39282W        W48082  16.821   1.829   2.858  0.1194  0.4266  0.5292
39283W        W48083   0.449   3.368   4.610  0.2054  0.1517  0.1553
39284W        W48084  10.284   7.209  22.852 -0.0263  0.1681 -0.1654
39285W        W48085  13.449   0.277   0.044  0.0147  0.1129 -0.2189
39286W        W48086  22.006   6.547  22.319  0.1962 -0.0455 -0.0953
39287W        W48087  24.370   3.389  24.621 -0.2521  0.1109 -0.0542
39288W        W48088  25.030   4.227   7.469  0.2402 -0.1816  0.1985
39289W        W48089   2.316   0.573  21.220  0.1719  0.0318  0.1206
39290W        W48090   4.354   6.692   5.199  0.2736 -0.1915 -0.1117
39291W        W48091  15.248   2.906   0.892 -0.2464 -0.1046  0.1919
39292W        W48092  13.108   5.555   5.979  0.1402  0.0030 -0.2242
39293W        W48093  22.940   6.872  27.185 -0.1025 -0.2080  0.0505
39294W        W48094   2.079   6.161  23.366 -0.1018  0.1947  0.2542
39295W        W48095  16.721   2.510  12.910  0.0074  0.0565 -0.0606
39296W        W48096   8.122   2.480  21.692  0.0231 -0.0820  0.3377
39297W        W48097  14.391   0.519  30.676  0.3164 -0.1430 -0.0981
39298W        W48098  18.969   1.889  30.337  0.0712 -0.2058 -0.0433
39299W        W48099  24.556   5.442   5.303  0.0353 -0.0183 -0.1093
39300W        W48100  20.687   1.870  13.985  0.0530 -0.0332 -0.0446
39301W        W48101   0.225   2.333  27.733 -0.0876 -0.0367 -0.2427
39302W        W48102   4.939   0.497  21.425  0.1296  0.2033 -0.0060
39303W        W48103   7.373   6.235  17.417  0.0436  0.0522 -0.0631
39304W        W48104   7.626   6.291  26.887  0.2188  0.0224 -0.0720
39305W        W48105   8.594   3.105   5.876  0.2748  0.2797 -0.0685
39306W        W48106   6.077   4.613  15.027 -0.0683  0.0410  0.0922
39307W        W48107   8.750   6.972  18.289 -0.1342 -0.0127 -0.2923
39308W        W48108   2.111   6.897   0.992 -0.0453 -0.1428  0.1033
39309W        W48109  13.248   4.959  13.674  0.2344  0.1133 -0.0146
39310W        W48110   7.515   7.405  20.936 -0.0042  0.2244 -0.0899
39311W        W48111  14.959   4.473   2.104 -0.0498 -0.3313 -0.1263
39312W        W48112  24.510   3.348  10.470 -0.0577  0.0134 -0.2849
39313W        W48113   2.606   1.096   3.827  0.0700  0.1804  0.0594
39314W        W48114  18.978   2.197   9.433  0.1107 -0.0689  0.0185
39315W        W48115  20.210   7.420  23.976 -0.2284 -0.0905  0.0615
39316W        W48116   2.150   6.964  18.639 -0.0646  0.0770 -0.1357
39317W        W48117   8.380   5.935  20.878 -0.1917  0.1704 -0.4541
39318W        W48118  24.045   5.075   5.101 -0.0619  0.2920 -0.0973
39319W        W48119   6.645   6.163   0.216  0.0649  0.0761 -0.0976
39320W        W48120  23.559   7.305  25.109  0.0604  0.0170 -0.0307
39321W        W48121  22.378   6.039   3.696  0.3012 -0.4296  0.1566
39322W        W48122  11.132   5.818   6.064  0.1042 -0.1215  0.1454
39323W        W48123  13.979   0.074  31.646  0.0779 -0.1050  0.0435
39324W        W48124  11.046   5.120  26.956 -0.0134  0.2339 -0.1283
39325W        W48125  13.903   3.752  32.348 -0.0656 -0.0281 -0.1978
39326W        W48126  23.304   6.697  31.840 -0.0813  0.2692 -0.0735
39327W        W48127   4.285   5.092  20.249 -0.3455 -0.1541 -0.0811
39328W        W48128  24.210   6.221   3.049  0.1286 -0.1125 -0.0645
39329W        W48129  18.363   5.723  16.675 -0.2581 -0.2997  0.1144
39330W        W48130  22.925   4.374   2.937 -0.0722 -0.0331 -0.2365
39331W        W48131  15.909   1.193   1.181 -0.0207  0.0694  0.0829
39332W        W48132  22.643   6.112   5.550  0.3010  0.0958  0.1643
39333W        W48133   5.406   5.966   5.297 -0.1437 -0.0181 -0.2930
39334W        W48134   3.766   6.392  24.568 -0.0419 -0.1324  0.0478
39335W        W48135   7.349   5.999  27.789 -0.0947 -0.2920  0.0700
39336W        W48136  14.254   4.558   8.810 -0.0468  0.3282 -0.0561
39337W        W48137  11.692   6.002   7.246  0.1986 -0.2280  0.0004
39338W        W48138   6.449   0.737  16.268  0.1414 -0.1798  0.0372
39339W        W48139   6.364   0.919  23.605 -0.2341  0.0474  0.0825
39340W        W48140   2.320   2.969   8.950  0.1118  0.0740  0.2019
39341W        W48141   4.924   7.176  17.545 -0.3154 -0.0695  0.2707
39342W        W48142  18.850   3.227  28.884 -0.0422 -0.1724  0.1990
39343W        W48143  22.075   7.218  29.576  0.0056  0.4325  0.0912
39344W        W48144  11.545   1.166  25.773 -0.0386  0.1544 -0.1285
39345W        W48145  14.865   2.255  11.990 -0.1133  0.1445 -0.1430
39346W        W48146  22.487   6.400  29.526  0.0751 -0.1075  0.1683
39347W        W48147  19.975   1.299   7.522  0.2026 -0.1260  0.0553
39348W        W48148   0.540   4.300  29.643  0.2284 -0.2297 -0.2118
39349W        W48149  16.968   1.188  17.048 -0.2119  0.0050  0.2513
39350W        W48150  15.710   4.089  13.816 -0.1286  0.2664  0.0532
39351W        W48151  19.200   5.780  16.902  0.0884  0.0126 -0.2727
39352W        W48152  22.147   4.999  12.292  0.1008  0.0067 -0.0751
39353W        W48153  17.057   4.974   5.538 -0.0292 -0.2138 -0.2038
39354W        W48154  11.377   0.802  30.647 -0.0826 -0.1928 -0.1029
39355W        W48155  17.999   6.411  24.775  0.0672 -0.2359  0.0299
39356W        W48156  19.023   4.091  27.791 -0.0642 -0.1379 -0.2088
39357W        W48157  22.503   2.939  15.565 -0.1222 -0.3181 -0.0993
39358W        W48158  24.417   7.365  27.641  0.2038  0.2852 -0.0776
39359W        W48159   2.869   6.496  17.420  0.1478 -0.3636 -0.1354
39360W        W48160  13.227   1.168   7.167 -0.0737  0.0139  0.1955
39361W        W48161  23.292   1.898  11.156  0.2815 -0.1195  0.0166
39362W        W48162   9.094   6.974  29.014  0.0790  0.3366  0.0652
39363W        W48163   4.859   4.541  16.374 -0.0499 -0.0970 -0.1671
39364W        W48164  25.037   0.995  31.171  0.2094 -0.1706  0.1565
39365W        W48165  10.771   1.114  32.126  0.1590 -0.2188  0.2130
39366W        W48166  22.352   1.522  23.270  0.0754 -0.1236  0.0725
39367W        W48167   9.094   3.740  17.869 -0.0434 -0.1046  0.0495
39368W        W48168  21.470   4.723  31.913 -0.2535  0.2575  0.4762
39369W        W48169  19.621   4.560   1.850  0.1379  0.0090 -0.0480
39370W        W48170   9.895   2.275  29.878 -0.2901  0.1069 -0.0361
39371W        W48171   2.150   6.278   9.598  0.2238 -0.1094 -0.1404
39372W        W48172  23.467   6.895   8.229  0.0468 -0.0857 -0.0595
39373W        W48173  10.525   3.564  10.290 -0.0973 -0.1198 -0.1551
39374W        W48174  20.188   0.917   8.845 -0.0014 -0.1321  0.3595
39375W        W48175  14.681   5.064  13.940 -0.3224 -0.1356  0.2429
39376W        W48176  17.690   5.093  15.614 -0.3770 -0.0390 -0.1221
39377W        W48177   1.885   3.597   7.593  0.1449 -0.0291 -0.1524
39378W        W48178  15.478   6.568   8.280 -0.2169 -0.3692  0.2334
39379W        W48179  13.302   2.169  22.063  0.0402 -0.1936  0.1531
39380W        W48180  13.413   7.465  11.861  0.0553 -0.1505 -0.0375
39381W        W48181   9.536   6.617  23.144  0.3581  0.3159 -0.0323
39382W        W48182  18.090   5.582  18.871 -0.4728 -0.0245 -0.1463
39383W        W48183   5.115   2.873  24.359 -0.1954 -0.3280 -0.1671
39384W        W48184  21.486   0.194  31.591 -0.0261 -0.0712  0.2780
39385W        W48185  17.477   0.751  16.317 -0.1736 -0.0180 -0.0864
39386W        W48186   2.949   0.811  21.882 -0.2835  0.0250  0.1182
39387W        W48187   1.223   2.310  21.363  0.1200 -0.0122 -0.1692
39388W        W48188  22.304   0.765   4.936 -0.0991  0.5682  0.0750
39389W        W48189  22.450   7.796   3.604  0.1777 -0.0039 -0.1622
39390W        W48190   6.653   2.316  20.598 -0.0309 -0.2464  0.2196
39391W        W48191   7.689   5.378   9.982 -0.0215  0.0294  0.1221
39392W        W48192  22.106   3.702  28.898  0.0601  0.2854 -0.0992
39393W        W48193   0.945   1.183  30.352 -0.0991 -0.0018 -0.1398
39394W        W48194  13.009   2.859  23.318  0.0445 -0.2313 -0.0170
39395W        W48195  20.416   3.174  29.639  0.2260 -0.0175 -0.0839
39396W        W48196  10.135   2.756  24.649  0.0789 -0.1937 -0.3441
39397W        W48197  14.969   7.482   7.789 -0.2863  0.0316 -0.2579
39398W        W48198   6.762   3.343   9.551 -0.0378 -0.1967  0.1179
39399W        W48199  23.581   1.402  13.102 -0.1820 -0.0932  0.0942
39400W        W48200  22.784   7.219   2.180  0.1721  0.1627  0.4618
39401W        W48201  19.607   5.366  13.000 -0.1493 -0.1026 -0.0101
39402W        W48202  12.741   3.722  28.192 -0.0056  0.0304 -0.0615
39403W        W48203   2.482   0.955   4.289 -0.1053  0.0084 -0.1065
39404W        W48204   8.376   6.740  30.288  0.1448  0.1163 -0.2553
39405W        W48205   1.250   6.790  12.083 -0.2190 -0.0580 -0.1676
39406W        W48206  13.399   7.350  28.766  0.1152  0.0211 -0.4040
39407W        W48207  22.256   0.457   6.602  0.0360 -0.2114  0.0579
39408W        W48208  17.710   0.407   7.023 -0.1237 -0.1757  0.3486
39409W        W48209  11.213   7.049  20.973  0.3569  0.1959 -0.1728
39410W        W48210   8.589   4.099  31.385  0.0006  0.0358  0.2204
39411W        W48211   1.040   0.240   2.562  0.3932  0.0353  0.2743
39412W        W48212   2.596   6.598  18.955 -0.1572  0.3390 -0.1589
39413W        W48213   6.521   7.157  17.744 -0.1111 -0.0901  0.3682
39414W        W48214   6.095   7.266  31.467 -0.0577 -0.3599 -0.2074
39415W        W48215  11.180   7.025   7.524 -0.0944 -0.0218 -0.1723
39416W        W48216   2.831   2.792  27.257 -0.3537  0.0823 -0.2356
39417W        W48217  21.516   3.010  28.599  0.2349 -0.0660 -0.1360
39418W        W48218   0.737   6.892  21.904  0.3863 -0.4544  0.2451
39419W        W48219  23.806   1.493  31.079 -0.0523 -0.2057  0.2422
39420W        W48220   7.471   1.961  31.771 -0.0887 -0.1054 -0.0888
39421W        W48221  18.142   3.426   5.148 -0.0255  0.0794  0.3216
39422W        W48222   4.743   1.684  30.798  0.1804  0.1210 -0.2902
39423W        W48223  24.834   3.734  12.556  0.2815  0.0511  0.1747
39424W        W48224   4.849   5.398  31.330 -0.1275 -0.2127  0.0567
39425W        W48225  14.493   6.635  27.631 -0.1570  0.1541 -0.0861
39426W        W48226   7.087   4.433  14.820  0.1359  0.0335 -0.1835
39427W        W48227   6.402   7.158  27.320  0.0623 -0.1021  0.0563
39428W        W48228  17.289   4.317  31.073  0.1065 -0.1816  0.1304
39429W        W48229  19.156   7.137  29.630 -0.1354 -0.0724 -0.2732
39430W        W48230   4.484   7.820  28.540  0.2876 -0.0010 -0.0664
39431W        W48231   9.171   3.279  15.772 -0.0380  0.0880  0.2074
39432W        W48232  20.552   6.709  16.314  0.4061  0.0834 -0.0278
39433W        W48233  18.462   1.157   1.651 -0.1363 -0.0369  0.3890
39434W        W48234  15.030   0.709   9.693 -0.1112 -0.0211  0.0450
39435W        W48235  13.230   4.717  29.832  0.2116  0.0427  0.3053
39436W        W48236  21.370   2.501  13.839  0.0424  0.0775  0.0239
39437W        W48237  14.990   0.475   3.132  0.1455 -0.2585  0.0372
39438W        W48238  19.777   0.386  29.670  0.3024 -0.2611 -0.1558
39439W        W48239   2.386   7.762   7.309  0.0631  0.1048  0.1825
39440W        W48240  20.493   3.129   2.373 -0.1327  0.0608 -0.0286
39441W        W48241   9.804   6.187  30.059  0.0082  0.1266  0.3639
39442W        W48242   6.687   5.393  27.128  0.0619  0.3923  0.0131
39443W        W48243   0.718   7.167   4.930  0.0005 -0.2706  0.1296
39444W        W48244  18.809   4.060   1.691 -0.0397  0.1866  0.3310
39445W        W48245  21.211   6.267   8.347  0.1052  0.1993  0.1393
39446W        W48246  20.358   5.062  29.907 -0.3312  0.1555 -0.0556
39447W        W48247   0.536   3.248  25.031 -0.1317 -0.0262 -0.0735
39448W        W48248  13.861   2.732   2.446 -0.0387  0.0709  0.2671
39449W        W48249  20.375   1.134  29.416  0.0439  0.1746 -0.2941
39450W        W48250  11.915   7.360  11.280  0.1127 -0.0257  0.1250
39451W        W48251  24.243   1.654  13.227  0.1075 -0.2465 -0.1086
39452W        W48252  11.463   7.147   2.253 -0.2992  0.1617 -0.1823
39453W        W48253  16.292   1.020  12.053  0.0383  0.0303 -0.0278
39454W        W48254   4.609   0.683  21.780  0.2770 -0.1272  0.0637
39455W        W48255  15.825   5.594   0.532  0.1416 -0.0671 -0.0638
39456W        W48256  17.438   2.157   0.112  0.0342 -0.0079 -0.1467
39457W        W48257  11.295   3.000  28.334  0.0377  0.1826  0.1532
39458W        W48258  25.053   1.424   4.464  0.2307 -0.2745 -0.1219
39459W        W48259  20.561   5.975  24.167  0.2443 -0.0577  0.5852
39460W        W48260   3.525   5.982  24.394 -0.2738  0.0828  0.0132
39461W        W48261   7.482   2.697   3.842 -0.0485 -0.0140 -0.3025
39462W        W48262   8.700   4.339  30.291 -0.2135 -0.0258  0.0188
39463W        W48263  19.805   3.839  11.044  0.3110 -0.2622 -0.1292
39464W        W48264   4.781   3.599  20.356 -0.1798 -0.0120 -0.0565
39465W        W48265  13.213   2.664  11.218 -0.2977 -0.1373  0.3704
39466W        W48266  24.005   2.764   6.060 -0.3015 -0.1164 -0.2344
39467W        W48267  20.450   3.230  27.789 -0.0892 -0.0486 -0.2784
39468W        W48268  21.635   3.660   9.141 -0.2425 -0.1427 -0.4208
39469W        W48269  17.780   0.095  10.097 -0.1235  0.0794  0.1452
39470W        W48270  13.492   3.737  29.975  0.0678 -0.1964 -0.1378
39471W        W48271  23.900   2.002  11.816 -0.2347  0.1548  0.0305
39472W        W48272  14.689   2.437   3.736 -0.1211 -0.0589 -0.1012
39473W        W48273  16.050   1.736  25.313 -0.1670 -0.0480 -0.0553
39474W        W48274   5.568   2.203  21.411  0.0755 -0.0783 -0.0213
39475W        W48275   8.178   1.892  30.249  0.1514  0.0028 -0.2078
39476W        W48276  17.599   3.161  28.823  0.1480  0.0971  0.0679
39477W        W48277  16.348   7.125   5.943 -0.1419 -0.2739  0.0768
39478W        W48278   7.032   6.179   7.763 -0.6183  0.0966  0.1448
39479W        W48279  11.620   1.572  19.733 -0.1962  0.0164 -0.1941
39480W        W48280  19.974   3.168  13.427 -0.2023  0.2699 -0.1371
39481W        W48281   8.868   4.337   3.521 -0.1279 -0.0707  0.0549
39482W        W48282  21.123   3.100   1.711  0.0069  0.2312  0.0650
39483W        W48283  12.449   1.361   8.471  0.2162  0.1214 -0.1913
39484W        W48284  17.184   3.226  13.057  0.2118  0.0322  0.0996
39485W        W48285  18.826   5.418   3.679  0.1849 -0.1281 -0.1803
39486W        W48286   5.010   7.752  16.426  0.0508 -0.4873 -0.2736
39487W        W48287  16.193   0.150   5.467 -0.1110 -0.1929  0.0975
39488W        W48288  21.556   5.689  30.637 -0.3623 -0.0474 -0.1504
39489W        W48289   2.332   3.203   5.769 -0.0503 -0.0761  0.3920
39490W        W48290   9.627   6.190  27.273  0.0554 -0.0939  0.1102
39491W        W48291  13.693   1.542   8.795  0.0196  0.1935  0.1049
39492W        W48292  12.617   0.946  19.128 -0.3123 -0.2113  0.1859
39493W        W48293  24.718   6.702  31.061  0.0821  0.2958  0.2790
39494W        W48294   4.062   3.735  16.752 -0.0408  0.0593  0.0895
39495W        W48295  19.200   6.845  24.671 -0.0695 -0.2311 -0.0240
39496W        W48296  21.284   4.265   6.050 -0.3073  0.0293  0.0446
39497W        W48297  22.900   2.522   6.232  0.0797 -0.0369 -0.1471
39498W        W48298  12.362   2.373  20.057 -0.0214 -0.1779  0.3313
39499W        W48299   7.932   3.800  30.115  0.0627 -0.0276  0.0536
39500W        W48300   4.238   3.586   9.304 -0.0053 -0.1491 -0.0428
39501W        W48301  12.677   6.715  28.921  0.1247 -0.1680  0.0025
39502W        W48302   8.386   2.691   1.551  0.1690 -0.0088  0.3472
39503W        W48303  15.377   5.391  25.867 -0.0333 -0.0066 -0.0687
39504W        W48304  16.629   0.898   0.929 -0.3486  0.1654  0.0197
39505W        W48305  11.865   7.027  21.619 -0.1691  0.1990 -0.0715
39506W        W48306   6.514   4.188  17.980 -0.0404 -0.0115 -0.2270
39507W        W48307   8.652   2.280   3.649 -0.0836 -0.1701 -0.2676
39508W        W48308   0.222   6.581  29.768  0.2323 -0.1387 -0.1536
39509W        W48309  20.021   1.261  13.755 -0.0256  0.0765 -0.0639
39510W        W48310  10.379   1.069  22.619  0.1263 -0.0695 -0.1523
39511W        W48311   7.240   7.215   0.865 -0.1735 -0.2442  0.0395
39512W        W48312   2.805   2.181  22.290  0.2251 -0.1014  0.0930
39513W        W48313  10.497   1.450   9.002 -0.2176  0.0620  0.0194
39514W        W48314   5.071   0.463  22.852  0.0526  0.0696  0.0062
39515W        W48315   4.478   5.664  28.694 -0.1320  0.2524  0.0402
39516W        W48316  19.667   3.613   2.870 -0.2668 -0.0845 -0.2923
39517W        W48317  23.687   2.509  27.776  0.1114  0.0783  0.1222
39518W        W48318   0.202   4.925   2.042 -0.3199  0.0342  0.0326
39519W        W48319  21.493   1.406  27.352  0.1623  0.1311  0.0059
39520W        W48320  23.588   5.172  22.410  0.2786 -0.0968  0.1470
39521W        W48321  18.768   4.681   1.655 -0.0170 -0.1787 -0.1868
39522W        W48322   5.052   6.719   4.531 -0.1743  0.0269 -0.3283
39523W        W48323  10.074   7.270  23.309 -0.0653 -0.0261 -0.2109
39524W        W48324  17.869   6.879  10.136  0.1183  0.1570 -0.0468
39525W        W48325  14.288   1.854  32.388 -0.1709  0.1725 -0.0229
39526W        W48326  11.612   1.902  18.243  0.0351  0.1851  0.1881
39527W        W48327  21.195   2.719  28.230 -0.1110  0.1040 -0.0335
39528W        W48328   5.914   0.095   9.251  0.1927 -0.0534 -0.0239
39529W        W48329  18.778   5.795   5.073  0.1430  0.0693 -0.1367
39530W        W48330  22.148   4.550  29.359  0.1117 -0.1639 -0.0671
39531W        W48331   8.555   6.495   6.243  0.1958  0.1935 -0.0720
39532W        W48332  11.299   5.597   9.250  0.2294  0.1353 -0.4495
39533W        W48333  14.861   0.830  31.687 -0.0584 -0.1549  0.0759
39534W        W48334  23.101   4.452  25.306 -0.1072 -0.2021 -0.0766
39535W        W48335  15.662   5.123   7.708  0.0138  0.0392  0.0160
39536W        W48336   3.556   0.741  31.262 -0.0203  0.0917 -0.1333
39537W        W48337  21.948   5.120  32.450  0.2795 -0.0333 -0.1579
39538W        W48338   2.489   7.148  21.997 -0.0758  0.0024 -0.1178
39539W        W48339  11.041   7.036   5.490 -0.0488 -0.1828  0.0747
39540W        W48340  24.383   5.082  11.758  0.2031 -0.0659 -0.2455
39541W        W48341   0.764   6.362  19.136  0.1671  0.2406 -0.0759
39542W        W48342  18.045   5.434  12.208  0.0041  0.0624 -0.2637
39543W        W48343  12.727   0.345  29.727 -0.0379  0.0659  0.0609
39544W        W48344  24.752   3.339   6.371  0.3374 -0.1262  0.0216
39545W        W48345  11.060   5.454  26.563 -0.0662 -0.2434 -0.0071
39546W        W48346  17.069   3.744   4.865  0.1470 -0.0787 -0.1578
39547W        W48347  22.793   3.345  23.160  0.3869  0.0136  0.0992
39548W        W48348  20.615   4.642  30.375  0.2401  0.0624  0.0536
39549W        W48349   3.320   3.577   2.839 -0.1017 -0.1940  0.2487
39550W        W48350  14.310   6.217  26.113 -0.0565  0.0017  0.0363
39551W        W48351  12.361   1.778  23.569  0.1404  0.0835  0.3191
39552W        W48352   7.201   4.672  15.258 -0.1741  0.2639 -0.0120
39553W        W48353  24.604   0.646  10.014  0.2136  0.1189 -0.0007
39554W        W48354  14.202   6.278  12.795  0.1926 -0.0539 -0.0008
39555W        W48355  10.323   2.388   2.382 -0.2110 -0.0771  0.2385
39556W        W48356   0.565   7.430  19.358 -0.1358  0.0087  0.1087
39557W        W48357  16.500   5.803   5.391 -0.3346  0.1601  0.2751
39558W        W48358  10.299   2.433  27.208 -0.2719  0.0454 -0.0756
39559W        W48359  19.694   0.554  26.171 -0.2920 -0.1706  0.0752
39560W        W48360  23.590   7.156  14.223  0.0294  0.2264 -0.1521
39561W        W48361  22.000   4.331  27.945 -0.0465  0.1763 -0.1127
39562W        W48362  20.329   5.455  26.682 -0.3466 -0.5022 -0.1233
39563W        W48363  20.469   3.545  12.462  0.2334 -0.1412  0.1783
39564W        W48364   8.164   1.069   2.236 -0.2030  0.0725  0.2576
39565W        W48365  15.080   1.170   5.516  0.0246  0.2701 -0.4617
39566W        W48366   4.569   4.158  25.242 -0.0502  0.0926  0.2200
39567W        W48367  23.203   7.680  16.417 -0.0442  0.1321  0.1500
39568W        W48368   3.123   7.687   6.405 -0.2393 -0.1063 -0.2879
39569W        W48369  13.774   4.409   8.864 -0.0420  0.1021  0.1766
39570W        W48370  22.655   5.775   8.983 -0.5684 -0.2475  0.1509
39571W        W48371  16.000   0.516   4.653 -0.2508 -0.0409 -0.1577
39572W        W48372   8.289   1.398  24.784  0.2980  0.0081 -0.1981
39573W        W48373   3.458   3.492   8.383  0.1493  0.0002 -0.0319
39574W        W48374   1.187   0.520  29.093  0.0282  0.1108 -0.2030
39575W        W48375  22.827   3.316  12.652  0.2677  0.1479 -0.0063
39576W        W48376  18.932   2.517   8.152  0.0611  0.0150 -0.1460
39577W        W48377  24.252   7.586  29.749  0.1701  0.2414  0.0189
39578W        W48378  17.476   3.673  16.519  0.0951  0.1384 -0.2174
39579W        W48379  20.324   7.678   1.402 -0.0673  0.1084  0.0063
39580W        W48380  15.474   1.117   8.043  0.1706  0.1678 -0.2523
39581W        W48381  13.581   4.398  28.896 -0.3755  0.1097  0.0487
39582W        W48382   2.992   6.831  31.263  0.1606  0.1082 -0.3298
39583W        W48383   4.442   1.856   9.632 -0.2670  0.0666 -0.0793
39584W        W48384  13.419   1.930   4.742  0.0011  0.1196  0.2329
39585W        W48385  20.723   4.372  16.555  0.0413 -0.1285  0.1767
39586W        W48386  19.907   0.643  16.718 -0.0080 -0.0137  0.0862
39587W        W48387   5.542   3.777   8.828 -0.0893 -0.2676  0.0778
39588W        W48388  23.038   5.060   0.941 -0.0063 -0.1151 -0.0527
39589W        W48389  23.604   2.521  31.312 -0.0235  0.0864  0.2038
39590W        W48390  20.726   4.245  14.776  0.1714  0.1151 -0.0691
39591W        W48391  12.247   2.397  24.623 -0.1473 -0.1722  0.1903
39592W        W48392  24.957   2.761  13.162 -0.1338  0.1432  0.0363
39593W        W48393  13.201   4.511  24.418  0.2317  0.0546 -0.1184
39594W        W48394   6.652   6.624   9.031  0.0047  0.1633  0.1193
39595W        W48395  22.516   4.154   5.574  0.3927  0.0959  0.0791
39596W        W48396  11.464   6.690  28.194  0.1274 -0.2460 -0.0603
39597W        W48397  22.236   6.663   7.616  0.1331  0.1093  0.2064
39598W        W48398  13.539   3.284   2.658  0.1700 -0.0319 -0.0455
39599W        W48399  12.473   5.939  24.523  0.2805  0.2049  0.3273
39600W        W48400   8.378   0.664  26.304 -0.2427 -0.0386  0.0091
39601W        W48401   6.041   6.464  32.197 -0.2166  0.0922  0.1020
39602W        W48402   4.621   7.106  21.637 -0.1416 -0.1355  0.0475
39603W        W48403   5.319   5.120   0.951 -0.0278 -0.0360  0.0364
39604W        W48404  21.175   6.994   9.290 -0.1031 -0.1740  0.2064
39605W        W48405  21.144   0.804   8.675 -0.0515  0.0269  0.0018
39606W        W48406  20.189   7.373  30.555 -0.1497  0.0534  0.4523
39607W        W48407  18.545   2.315   0.719  0.1122 -0.2596  0.2245
39608W        W48408   1.998   3.409   1.078 -0.0403  0.0312  0.0222
39609W        W48409   5.321   1.115  28.732  0.0973  0.0552 -0.0182
39610W        W48410  21.182   4.474  31.509 -0.1419 -0.3276 -0.1402
39611W        W48411   0.354   0.515   3.569  0.1394 -0.3146 -0.0480
39612W        W48412  24.771   4.867  25.026  0.2527 -0.0641 -0.1143
39613W        W48413  24.360   7.823   3.075  0.1263  0.2225 -0.0189
39614W        W48414  19.099   6.293   4.104  0.0339 -0.1327  0.1716
39615W        W48415   5.050   3.141   0.290 -0.3633  0.1742 -0.0743
39616W        W48416  17.411   1.528  30.440  0.0497 -0.2477 -0.3010
39617W        W48417   7.841   7.759   4.302  0.2287  0.0041  0.1788
39618W        W48418   5.066   0.130   8.907  0.0816 -0.1117 -0.0441
39619W        W48419  23.972   3.379   7.552  0.3113 -0.1231  0.0871
39620W        W48420   7.251   3.059   7.425  0.0164  0.1718  0.2450
39621W        W48421  21.598   4.712  28.454 -0.0652 -0.0952  0.1100
39622W        W48422   6.497   4.602   7.893  0.1564 -0.0032 -0.2019
39623W        W48423  17.283   0.810   1.725  0.1358 -0.2650  0.1070
39624W        W48424  17.365   7.249  10.749 -0.0583  0.0483  0.1190
39625W        W48425  15.588   2.246  31.112 -0.1161  0.1337  0.0174
39626W        W48426  21.860   1.472   8.581  0.0172 -0.1573 -0.0766
39627W        W48427  15.930   6.382  29.172  0.2588 -0.0433 -0.1728
39628W        W48428   7.007   0.821  16.309 -0.3133 -0.0396 -0.0457
39629W        W48429   3.485   5.567   3.885  0.2247  0.0832 -0.1169
39630W        W48430  12.345   0.500   2.661  0.0798  0.0937  0.3339
39631W        W48431   2.336   7.070   6.929 -0.0877 -0.0236  0.1990
39632W        W48432  12.632   6.412   2.446  0.0938  0.0070  0.0627
39633W        W48433  21.780   5.564   0.734 -0.1971  0.1514 -0.0643
39634W        W48434  18.893   3.121  28.351 -0.1342  0.0495  0.0116
39635W        W48435  21.518   6.304  32.402 -0.0140 -0.0593 -0.1902
39636W        W48436  19.415   3.448  13.998 -0.0699 -0.1513 -0.1383
39637W        W48437   6.467   2.847  29.590 -0.0579 -0.0402  0.2019
39638W        W48438  22.544   3.274   3.516 -0.0181  0.0562 -0.0092
39639W        W48439  23.805   4.154   5.215  0.1375  0.2234 -0.2768
39640W        W48440   8.809   5.417  23.561 -0.0065  0.2478 -0.1744
39641W        W48441   9.221   5.620   3.017 -0.2385  0.1713 -0.0207
39642W        W48442  22.474   6.547   6.512 -0.1329  0.1267  0.2239
39643W        W48443  16.038   0.573  10.330  0.2961 -0.1347 -0.1852
39644W        W48444   7.173   4.694   0.984  0.2114  0.1878 -0.1291
39645W        W48445  18.310   2.846  27.769  0.2576 -0.1533  0.0047
39646W        W48446  17.453   0.698   4.179  0.0949 -0.2662  0.1015
39647W        W48447  15.166   5.411   8.525 -0.3371 -0.0794 -0.2283
39648W        W48448  15.499   3.368  14.738 -0.0459 -0.1480  0.2108
39649W        W48449  15.494   5.485  26.915 -0.1711 -0.0206  0.3561
39650W        W48450   8.923   2.023  10.349 -0.3877  0.0438  0.0436
39651W        W48451  14.525   4.644   8.013  0.1760  0.1209  0.0268
39652W        W48452  23.683   4.203   3.223 -0.0877  0.1029 -0.0496
39653W        W48453  20.579   1.853  11.312  0.0545  0.0181 -0.1115
39654W        W48454  23.604   4.685  21.570  0.0542  0.0388 -0.2746
39655W        W48455   5.571   1.704  22.831 -0.1862 -0.2278  0.1854
39656W        W48456  18.684   2.260  31.852  0.2592 -0.1562  0.0945
39657W        W48457   6.114   6.446  27.908  0.0743  0.1168 -0.1425
39658W        W48458   6.725   3.624   4.733 -0.3643 -0.1304 -0.3371
39659W        W48459  14.662   3.068  31.474  0.3075  0.1816 -0.0298
39660W        W48460  12.675   7.540  23.188 -0.0155  0.3168  0.1587
39661W        W48461   7.752   2.507  29.741  0.2733  0.0971 -0.0892
39662W        W48462  10.164   3.090   7.858 -0.0888  0.1420  0.0799
39663W        W48463   1.371   5.301  24.758  0.0385  0.3102 -0.1725
39664W        W48464  23.445   2.916  11.767  0.0126  0.0385 -0.0758
39665W        W48465  23.224   6.730   3.953  0.0304  0.1304 -0.5535
39666W        W48466   9.049   6.694  15.599  0.1672 -0.1229  0.1975
39667W        W48467  20.034   2.768  23.957  0.0782  0.4422 -0.1127
39668W        W48468  13.072   1.035  12.335  0.1121  0.0333  0.1351
39669W        W48469  20.230   5.405  27.798  0.0002 -0.1129 -0.0076
39670W        W48470   9.465   0.845  21.445  0.3463 -0.0909  0.0350
39671W        W48471   1.578   5.756   7.573 -0.0570  0.0300 -0.0424
39672W        W48472  24.247   2.042  26.313  0.0503  0.1401 -0.3720
39673W        W48473   2.579   3.672  26.476  0.3463 -0.1519  0.1654
39674W        W48474  22.777   7.390   3.555 -0.1477 -0.1394  0.0941
39675W        W48475   1.970   1.505  25.188 -0.2026  0.0942  0.1427
39676W        W48476   8.880   6.888  27.359  0.0782 -0.4799  0.0283
39677W        W48477  22.169   7.450  26.249 -0.1859 -0.1937 -0.1896
39678W        W48478  20.369   3.945  15.059  0.1321  0.0207  0.0400
39679W        W48479   6.011   0.604   5.577  0.0465  0.0437 -0.0159
39680W        W48480  16.704   5.066   8.504  0.3050  0.0885 -0.0996
39681W        W48481  18.653   7.470  14.929 -0.0425 -0.1521 -0.4024
39682W        W48482   0.396   0.070   3.314 -0.2124  0.2545 -0.0828
39683W        W48483   6.568   3.809  30.919 -0.2739 -0.1516 -0.0852
39684W        W48484  17.989   1.908   3.056  0.1276 -0.0569  0.1706
39685W        W48485   1.908   5.634  21.573 -0.2117  0.4350  0.0024
39686W        W48486   5.038   6.419  15.825  0.3126 -0.0263 -0.0352
39687W        W48487   1.813   2.283   2.499  0.0022  0.1339 -0.3178
39688W        W48488   7.752   3.099   7.601  0.0155  0.0887 -0.1732
39689W        W48489   7.386   2.234  25.306  0.1659 -0.1182 -0.0151
39690W        W48490  11.992   7.820   6.020 -0.0309 -0.0642 -0.1993
39691W        W48491   4.558   0.468   9.107  0.0101  0.2041  0.1619
39692W        W48492  12.589   2.580  30.532 -0.0699  0.0568  0.0853
39693W        W48493   2.507   7.402   3.375  0.1809 -0.1145  0.1583
39694W        W48494  15.770   0.063  14.513 -0.0315 -0.1105 -0.3290
39695W        W48495   4.180   2.928   7.806  0.1646  0.2561 -0.1478
39696W        W48496   2.792   4.826   3.236  0.1959 -0.0760 -0.0392
39697W        W48497  13.133   5.087  32.170 -0.0167  0.0632 -0.2355
39698W        W48498   7.111   3.536  24.839 -0.1782  0.2353 -0.1573
39699W        W48499   3.551   0.975   2.235 -0.1851 -0.0118  0.0381
39700W        W48500   7.760   2.340   0.930 -0.1447 -0.1516  0.3853
39701W        W48501   2.340   0.816  28.443 -0.2503 -0.0159  0.0137
39702W        W48502  16.888   4.728  10.114 -0.3516  0.1910 -0.0022
39703W        W48503   1.358   6.943  27.954  0.1324  0.1121 -0.0948
39704W        W48504  20.921   6.964   8.798  0.0641  0.2833  0.1511
39705W        W48505  17.741   7.087  29.316 -0.0187 -0.1436  0.1419
39706W        W48506  14.449   1.274   7.671  0.0140  0.0977 -0.0223
39707W        W48507  19.583   5.501  18.411 -0.0228 -0.2319 -0.0135
39708W        W48508   1.550   6.324  23.879 -0.0169  0.1032  0.3154
39709W        W48509  22.655   6.872  15.098  0.4037  0.0624 -0.3597
39710W        W48510  11.539   0.095  23.762 -0.4846 -0.1557  0.1519
39711W        W48511  10.270   1.502   9.451  0.1376  0.3213 -0.0843
39712W        W48512  12.825   1.379  26.063  0.1859 -0.0883  0.0555
39713W        W48513  23.358   5.125  10.737 -0.0433 -0.2282  0.2412
39714W        W48514  18.479   1.666  25.142 -0.0461  0.0349  0.1053
39715W        W48515  19.931   3.104  25.001  0.0629  0.1724  0.0404
39716W        W48516   6.428   6.273  19.746  0.1346 -0.1595 -0.1236
39717W        W48517   2.251   1.142  10.214 -0.1232 -0.1759 -0.2572
39718W        W48518   0.599   5.318  19.708  0.2732  0.0694  0.0097
39719W        W48519  17.146   7.839  25.534 -0.1978 -0.0724 -0.0210
39720W        W48520  23.930   2.061  25.018 -0.1932 -0.1060 -0.0667
39721W        W48521  18.876   2.885  30.686 -0.2216  0.0941  0.1420
39722W        W48522  22.244   7.656   8.747 -0.1438  0.1039  0.0067
39723W        W48523   0.078   6.487   5.466  0.3299  0.1096  0.2398
39724W        W48524  15.627   5.904   0.227 -0.0034  0.2002  0.3016
39725W        W48525  11.156   3.058  25.489 -0.1016 -0.0251 -0.0106
39726W        W48526  10.082   6.163  27.031  0.1214 -0.0505 -0.0098
39727W        W48527   9.040   2.576   1.392  0.0842 -0.1664  0.3612
39728W        W48528  12.728   3.395  11.000 -0.1121  0.1078 -0.1679
39729W        W48529  17.656   5.128  10.885 -0.1604  0.2127  0.1384
39730W        W48530  23.522   6.964  20.403  0.1736 -0.0210  0.3407
39731W        W48531  23.512   7.485  28.028 -0.0854 -0.2043  0.1971
39732W        W48532  10.436   0.050  17.578  0.1450  0.0008 -0.0594
39733W        W48533  24.175   4.472  25.248  0.1922 -0.1216  0.0732
39734W        W48534  22.240   1.089  32.001 -0.1242 -0.2650  0.0282
39735W        W48535  18.727   6.868  12.559 -0.1175  0.0318 -0.0641
39736W        W48536  11.908   6.053   3.744 -0.2060  0.1833 -0.1900
39737W        W48537  23.796   4.416  12.984 -0.0757  0.1592  0.3335
39738W        W48538   0.573   4.735  24.116  0.1135  0.0321 -0.1941
39739W        W48539  24.287   6.588  22.047  0.3077 -0.0670  0.2827
39740W        W48540  23.560   5.287  25.235 -0.0721 -0.0491  0.0271
39741W        W48541   0.326   0.797   3.980 -0.1000  0.2304  0.3296
39742W        W48542  22.109   4.876  24.731 -0.0038  0.0602 -0.1250
39743W        W48543   5.379   7.660  31.537 -0.0519 -0.0430  0.0198
39744W        W48544   8.759   5.239   6.281  0.1420 -0.3201 -0.1958
39745W        W48545  14.983   6.740  28.233 -0.0413  0.2962  0.0383
39746W        W48546   4.754   3.625  32.209 -0.0726  0.2024 -0.1669
39747W        W48547  15.293   7.296   0.094  0.0543  0.0124  0.2783
39748W        W48548   9.595   5.460  18.427  0.0134 -0.1323  0.0869
39749W        W48549   3.876   1.900   9.796  0.1639 -0.0844 -0.0979
39750W        W48550   7.565   5.284   5.921 -0.1833 -0.2092 -0.0830
39751W        W48551   2.596   6.767  10.255  0.2252  0.0311  0.0779
39752W        W48552   6.335   1.318  15.359 -0.0551 -0.2514 -0.1457
39753W        W48553  11.954   0.493  10.604 -0.3848  0.1246  0.2846
39754W        W48554   5.048   0.264   3.136  0.5342 -0.0702 -0.1070
39755W        W48555  19.895   5.698  15.628  0.0495  0.1342 -0.3028
39756W        W48556  16.845   5.726  28.982 -0.2644 -0.1388  0.2463
39757W        W48557  22.962   5.291   6.114  0.1838  0.0521 -0.2499
39758W        W48558  15.446   6.155  30.504  0.0339  0.0221  0.1061
39759W        W48559  24.616   7.322  26.295 -0.0272  0.1870 -0.0376
39760W        W48560  18.858   0.830   5.392  0.1044 -0.0818  0.0487
39761W        W48561   4.203   1.405   4.060 -0.0326 -0.1379 -0.0235
39762W        W48562  16.496   1.435   1.947  0.1080  0.1637 -0.1381
39763W        W48563   4.865   3.909   5.361 -0.1950 -0.0284 -0.2679
39764W        W48564  14.099   7.015  13.775 -0.0899 -0.1849 -0.2220
39765W        W48565  21.134   2.847   0.415 -0.0064 -0.1894 -0.0223
39766W        W48566   5.348   3.099  25.493  0.3132  0.0106 -0.2873
39767W        W48567   3.418   1.591  30.175  0.0461  0.0640 -0.2640
39768W        W48568  20.642   7.157  31.407 -0.1486  0.1875 -0.3710
39769W        W48569  13.100   0.223  19.519 -0.1171  0.2697  0.1622
39770W        W48570   7.909   4.870  29.885  0.1511  0.1377 -0.1962
39771W        W48571   2.652   7.029  26.199  0.0543 -0.0459 -0.3127
39772W        W48572  22.615   2.379  24.758 -0.0227 -0.3106  0.2730
39773W        W48573   9.749   3.709  22.352  0.0757 -0.0251 -0.2758
39774W        W48574   7.472   6.747   1.764 -0.1166 -0.0151  0.1175
39775W        W48575   4.244   6.105  17.709 -0.0765 -0.0729  0.0121
39776W        W48576  20.853   0.192   0.326  0.1411 -0.2096 -0.1638
39777W        W48577   4.968   4.881  17.341 -0.1818 -0.4104 -0.0465
39778W        W48578  21.250   7.427  31.174 -0.0831  0.0993 -0.1513
39779W        W48579  14.918   3.112  10.344 -0.0180 -0.4113 -0.1990
39780W        W48580   5.110   4.550   0.075  0.1974 -0.1155 -0.0947
39781W        W48581  23.607   2.763  29.651 -0.0712 -0.3900  0.2208
39782W        W48582  13.793   5.829   0.883 -0.0503 -0.3190 -0.3077
39783W        W48583   7.344   0.849  17.593  0.0409  0.1734 -0.0684
39784W        W48584  23.693   4.687   5.420  0.1219 -0.2423 -0.2603
39785W        W48585   4.677   2.236   9.848  0.1541 -0.2670 -0.0684
39786W        W48586  20.700   3.197  32.321  0.1264 -0.2687 -0.3427
39787W        W48587   4.884   4.360  21.505  0.0604 -0.2109 -0.2522
39788W        W48588  24.371   1.217  29.773 -0.0036 -0.0853 -0.0876
39789W        W48589  10.072   6.163  25.132  0.1450 -0.2241 -0.0543
39790W        W48590   2.217   6.971  27.431 -0.0027  0.0058 -0.2613
39791W        W48591  20.649   5.722   0.101 -0.0951  0.2670 -0.1830
39792W        W48592   3.246   1.598   8.559 -0.1148  0.2496  0.0678
39793W        W48593   4.683   2.313   0.028 -0.2527  0.1012 -0.0822
39794W        W48594   0.446   7.691  20.770  0.2359 -0.0015  0.0099
39795W        W48595  10.189   5.917  22.074 -0.1278  0.0282 -0.1864
39796W        W48596  21.780   7.369  31.317 -0.0848  0.2219  0.0714
39797W        W48597  10.683   3.373  29.648  0.0690 -0.2625 -0.2889
39798W        W48598  21.258   6.771   9.936  0.0108  0.1756 -0.1263
39799W        W48599  14.086   1.969  22.362  0.0273  0.0843 -0.3336
39800W        W48600   2.243   3.856   6.810 -0.0172  0.0626  0.1399
39801W        W48601  16.944   1.625  16.343 -0.4225  0.2510  0.0759
39802W        W48602   9.393   1.597  26.772 -0.2814 -0.1092 -0.3224
39803W        W48603   5.635   2.665  17.928 -0.0262  0.2096  0.1699
39804W        W48604   7.431   2.420  16.411 -0.1613  0.0587 -0.0204
39805W        W48605   9.186   1.222   0.536  0.0618 -0.1492  0.1458
39806W        W48606  16.332   3.848  16.600  0.1621 -0.1336 -0.1878
39807W        W48607  19.898   1.837   4.388  0.1755  0.0791 -0.1598
39808W        W48608  10.047   3.411  20.126  0.0425  0.3790  0.3644
39809W        W48609  16.972   2.504  23.426 -0.3615  0.0713  0.1997
39810W        W48610   8.793   2.967   8.847  0.1551  0.0326  0.0918
39811W        W48611   8.898   3.124   6.656 -0.2877  0.1406  0.2201
39812W        W48612  15.403   2.367   1.693  0.0536 -0.3504  0.2371
39813W        W48613  18.518   1.375  17.351  0.1411  0.1125 -0.2281
39814W        W48614   6.704   3.549  16.864  0.0352 -0.1106  0.3186
39815W        W48615   5.033   7.320   9.829 -0.2673 -0.1012  0.2057
39816W        W48616   4.016   5.630  24.313 -0.0927 -0.1063  0.2916
39817W        W48617   8.714   6.547   9.873 -0.0378 -0.3664 -0.2042
39818W        W48618  10.300   4.782  23.392  0.2151 -0.1427 -0.2738
39819W        W48619  18.846   5.279   5.349 -0.0786 -0.3793 -0.0670
39820W        W48620   8.517   0.373  21.556 -0.1691 -0.2468  0.2194
39821W        W48621   7.536   4.724   5.888 -0.4134  0.1230  0.0882
39822W        W48622  24.154   6.199  14.348  0.0364  0.1260  0.1495
39823W        W48623  16.844   6.275  23.321  0.1509 -0.0727  0.3189
39824W        W48624   7.729   5.159  23.092 -0.5350  0.0516 -0.1573
39825W        W48625   9.348   7.248   3.670 -0.0977  0.0065 -0.0531
39826W        W48626  13.332   6.782   6.315  0.1995 -0.0984 -0.2075
39827W        W48627   3.111   6.826  16.176  0.2113 -0.0339  0.2977
39828W        W48628  19.099   1.307  11.043  0.0810  0.2425 -0.0534
39829W        W48629   9.484   7.492   7.780 -0.2003 -0.0744  0.1218
39830W        W48630  13.975   4.759  28.562  0.0189  0.0735  0.0665
39831W        W48631   8.297   5.671   2.912 -0.0201  0.2218  0.2830
39832W        W48632   4.937   5.142   6.703  0.0486  0.2673  0.0604
39833W        W48633  23.254   2.205  32.249 -0.1603 -0.2521 -0.1331
39834W        W48634  12.177   1.642  23.120 -0.1085  0.1204  0.2476
39835W        W48635  23.430   0.063   2.982  0.0548  0.0736  0.1736
39836W        W48636  11.782   6.387   2.920  0.1258 -0.1915 -0.2248
39837W        W48637  13.709   7.083  11.043  0.0507  0.1242  0.1677
39838W        W48638  11.760   7.259  22.987  0.1332 -0.0223 -0.1549
39839W        W48639  13.953   3.406   0.741  0.0139  0.1269  0.0437
39840W        W48640  11.527   5.506   6.341  0.0368 -0.1683 -0.0162
39841W        W48641  22.281   4.846  32.150 -0.0837  0.0307 -0.4179
39842W        W48642  21.565   6.629   8.403 -0.0889 -0.1106 -0.1051
39843W        W48643   4.363   2.919   3.828 -0.0176 -0.1081 -0.0731
39844W        W48644   6.534   1.640  29.502  0.1793  0.1265 -0.1414
39845W        W48645   1.689   6.065  21.568  0.1011 -0.1288  0.0949
39846W        W48646  19.908   1.237  13.265 -0.0589 -0.0477 -0.0515
39847W        W48647   4.771   0.844   0.117 -0.2700 -0.0403  0.6420
39848W        W48648  23.322   0.779  26.078  0.1099 -0.1130 -0.0405
39849W        W48649  24.050   6.672  21.599  0.1405 -0.1431 -0.1623
39850W        W48650  15.971   5.684  27.001  0.0675  0.1464 -0.0546
39851W        W48651  19.985   2.777   7.952  0.1344 -0.1550  0.1728
39852W        W48652   9.126   0.271  30.711  0.0511 -0.4539 -0.2330
39853W        W48653  17.405   7.418   1.377 -0.1637 -0.0109 -0.0391
39854W        W48654   1.256   5.042  24.359  0.0401 -0.2489  0.1879
39855W        W48655  24.449   5.819   0.324 -0.0497 -0.0460  0.3078
39856W        W48656  15.189   3.366  25.933 -0.0483 -0.1486 -0.0411
39857W        W48657   7.694   3.316  16.624  0.2653  0.1211 -0.0522
39858W        W48658  25.007   6.446  11.757 -0.0735 -0.0166 -0.0476
39859W        W48659   0.219   4.632  21.243 -0.1801 -0.0035  0.0568
39860W        W48660  17.481   2.388  23.651  0.1539 -0.2547 -0.1474
39861W        W48661  16.597   6.695   7.321  0.0280  0.0701  0.3298
39862W        W48662   1.918   6.035  31.080 -0.4557  0.0631 -0.1537
39863W        W48663   8.071   2.209   7.164 -0.0684  0.1810  0.0850
39864W        W48664  11.731   7.316   2.601  0.0841 -0.0450  0.2963
39865W        W48665  13.820   2.071  22.797  0.1290  0.3049 -0.1940
39866W        W48666  23.908   1.570  12.715  0.2948  0.4838 -0.4358
39867W        W48667   4.272   1.428   1.809  0.2081  0.0480  0.0501
39868W        W48668   1.866   6.817  11.449  0.1364  0.1363 -0.3484
39869W        W48669   8.709   3.445   8.363 -0.0642  0.0355  0.2237
39870W        W48670  11.630   7.799   1.924  0.2222 -0.2206  0.2542
39871W        W48671   3.389   7.855  10.664 -0.0574 -0.3158  0.1720
39872W        W48672   7.013   7.646   1.768 -0.1124  0.0329  0.0530
39873W        W48673  18.566   6.735   5.348  0.0865 -0.1441 -0.3014
39874W        W48674  15.257   1.310   2.507  0.0564 -0.3015  0.1477
39875W        W48675  18.899   6.434  30.542 -0.0866 -0.1613  0.0739
39876W        W48676   2.317   2.335   3.468  0.2021 -0.1860  0.1686
39877W        W48677  24.818   3.459  30.079  0.2164 -0.2193  0.1359
39878W        W48678   4.633   5.185  10.897 -0.0104 -0.0024  0.0603
39879W        W48679  20.658   0.626   5.641 -0.0802 -0.1634  0.1492
39880W        W48680   1.595   2.073  29.042  0.0367  0.0625  0.2717
39881W        W48681   1.794   4.780   1.446 -0.0866 -0.2560  0.0206
39882W        W48682   9.859   3.909  10.078  0.0598 -0.1305  0.0106
39883W        W48683   8.514   4.684   1.131  0.1809  0.1462 -0.0851
39884W        W48684  10.034   7.142  18.976  0.0599 -0.0289 -0.0278
39885W        W48685   0.635   4.730  25.009 -0.0379 -0.1605 -0.2000
39886W        W48686   0.923   5.405  18.882 -0.0024 -0.1222 -0.0684
39887W        W48687   5.295   5.229  21.716  0.3997 -0.0599  0.3403
39888W        W48688   4.325   2.062  30.876  0.3318  0.1762  0.0965
39889W        W48689   3.611   3.327   6.675  0.0673 -0.2830  0.0110
39890W        W48690  13.809   3.854   3.676  0.0641  0.0733  0.0407
39891W        W48691  22.156   2.830  10.140  0.2559 -0.2871  0.0993
39892W        W48692   1.540   6.675  19.611  0.3958 -0.2701  0.1337
39893W        W48693  21.943   1.845   1.316  0.0603 -0.3605  0.0017
39894W        W48694   8.616   5.142  18.485 -0.1348  0.0945  0.0708
39895W        W48695  22.737   6.634  14.018 -0.0548  0.0144  0.0969
39896W        W48696   5.627   0.247  15.351 -0.2611 -0.0610 -0.1597
39897W        W48697   2.900   5.052  19.032  0.0761  0.0301  0.3103
39898W        W48698  21.622   1.319  25.582  0.0245  0.1681 -0.3402
39899W        W48699  15.281   6.108   9.222 -0.1461  0.0303  0.2212
39900W        W48700   4.460   1.072  32.340  0.0309 -0.0172  0.2109
39901W        W48701   6.674   6.745  18.178 -0.1610  0.0233 -0.1450
39902W        W48702  18.737   1.746  11.112 -0.1429  0.2295 -0.2549
39903W        W48703  20.362   1.738  24.285  0.0267 -0.2068  0.0518
39904W        W48704  10.097   6.290   2.215 -0.0744 -0.1106  0.2167
39905W        W48705   8.367   2.982  16.945  0.0667 -0.0786 -0.1513
39906W        W48706  22.666   7.294   6.701  0.1902  0.2968 -0.0640
39907W        W48707   5.020   0.095  32.299 -0.0485 -0.0448  0.0759
39908W        W48708   3.517   6.375  17.017 -0.2110  0.0499  0.0604
39909W        W48709   4.803   4.003  16.274  0.0575  0.2349 -0.0353
39910W        W48710  19.673   6.371  10.898  0.1069 -0.1575  0.0858
39911W        W48711  13.491   5.688   9.424 -0.3068  0.2946 -0.1134
39912W        W48712   8.484   4.605   9.179 -0.0744  0.1391 -0.0516
39913W        W48713  24.275   3.257  29.834  0.1370  0.0748 -0.2186
39914W        W48714  13.046   5.875  22.581  0.1371 -0.0392  0.0141
39915W        W48715  17.932   1.541  18.712 -0.3251  0.1328 -0.5267
39916W        W48716  23.588   6.216  29.249 -0.1753  0.0285  0.1957
39917W        W48717   8.803   7.124  15.678 -0.0451  0.1112  0.4844
39918W        W48718   5.793   2.735  20.183  0.3847  0.0405  0.1705
39919W        W48719  20.399   4.409  27.940  0.0807 -0.1599  0.0995
39920W        W48720  17.091   1.172  12.672 -0.4745 -0.1642 -0.0351
39921W        W48721  10.765   7.283   2.809 -0.1122 -0.0915  0.0568
39922W        W48722  17.449   5.959  10.051  0.1183  0.0456  0.0956
39923W        W48723   3.282   0.537   7.708  0.2225 -0.0342  0.0148
39924W        W48724  22.930   5.132  31.805  0.4249 -0.0634 -0.2263
39925W        W48725   6.538   2.981  25.958  0.0097  0.1641  0.3914
39926W        W48726   6.116   7.737   4.003 -0.3865  0.0212 -0.2309
39927W        W48727   5.994   2.665   3.940 -0.1602 -0.1019 -0.0420
39928W        W48728  18.885   4.739  17.019 -0.1689 -0.0329  0.1462
39929W        W48729  15.355   4.752  24.303 -0.0925  0.2952  0.1261
39930W        W48730   7.758   7.404  28.704 -0.2209  0.1985  0.0202
39931W        W48731  11.946   1.543  10.222 -0.0073 -0.0634 -0.0197
39932W        W48732   8.808   7.270  15.173  0.0869  0.0283  0.1331
39933W        W48733  10.340   5.028  20.304  0.0778 -0.0370  0.0872
39934W        W48734   0.976   3.041   4.501  0.1921 -0.2035 -0.1410
39935W        W48735  14.202   3.816   9.567  0.1669  0.1863  0.0804
39936W        W48736   8.322   6.255  26.095 -0.0291 -0.1005 -0.0970
39937W        W48737  12.365   0.664  23.988 -0.1727 -0.0998  0.4239
39938W        W48738   6.291   5.503   1.241  0.2158  0.0173  0.3502
39939W        W48739  20.534   5.593   2.306  0.1070 -0.1511 -0.0122
39940W        W48740   1.641   6.422  27.980 -0.1366  0.0860  0.0532
39941W        W48741  23.137   1.326  22.491 -0.4174  0.0501 -0.3957
39942W        W48742  10.397   3.377   6.904 -0.3064 -0.0401  0.0693
39943W        W48743  21.509   7.111   4.978  0.0968  0.0163 -0.0721
39944W        W48744   1.559   5.620  26.121 -0.1864  0.2071 -0.1364
39945W        W48745  21.338   0.767   6.706  0.0162  0.0900 -0.0602
39946W        W48746  22.678   5.476   0.951 -0.0343  0.0112  0.1597
39947W        W48747  13.170   6.655  29.750 -0.3004 -0.0553 -0.1458
39948W        W48748  16.557   5.044   6.875 -0.3815  0.0921 -0.2694
39949W        W48749   4.182   5.076   9.375  0.0304  0.2873  0.0451
39950W        W48750   6.594   7.476  23.349  0.0515 -0.1560  0.1258
39951W        W48751   4.927   3.979  10.088  0.3677  0.0399  0.0222
39952W        W48752  10.140   4.584   5.412 -0.1791 -0.2682 -0.0620
39953W        W48753  19.410   2.641  23.292  0.1736  0.0877 -0.0340
39954W        W48754  10.561   6.147  26.886  0.0165 -0.2330  0.0235
39955W        W48755  16.072   7.695  26.239  0.0878  0.1326  0.3341
39956W        W48756  19.324   2.696  30.235  0.1977 -0.2754 -0.0747
39957W        W48757  10.919   6.232   7.574  0.0842  0.2119  0.1301
39958W        W48758  13.836   6.023  22.906  0.2159  0.1162  0.0359
39959W        W48759  14.609   0.084  12.969  0.0060  0.0832  0.3697
39960W        W48760  13.790   2.093  31.467  0.1566 -0.0241 -0.2106
39961W        W48761  23.064   7.022  31.542 -0.1545  0.0149  0.2372
39962W        W48762  25.066   1.375  10.536 -0.2330  0.4953 -0.1965
39963W        W48763  19.320   3.692  25.780 -0.0270 -0.3244 -0.0249
39964W        W48764  20.323   4.790   7.039 -0.6034  0.2164 -0.0059
39965W        W48765   4.951   0.808  20.200  0.0587 -0.0424  0.1075
39966W        W48766  14.943   1.540   4.043 -0.3430 -0.0885 -0.0110
39967W        W48767  21.684   3.242  26.069  0.1321 -0.3520  0.0083
39968W        W48768   5.132   6.921  18.482 -0.1706  0.1309  0.0388
39969W        W48769  21.743   0.609  15.524 -0.0042  0.5322  0.0151
39970W        W48770   6.671   7.538  27.053 -0.1240  0.0183 -0.1581
39971W        W48771  15.192   3.742   9.353  0.0459  0.2448 -0.0074
39972W        W48772   5.597   3.999  31.860 -0.3983 -0.1316 -0.0628
39973W        W48773  17.063   6.023  11.824 -0.0669  0.0889 -0.1381
39974W        W48774  16.746   5.526  13.202 -0.3992  0.0843 -0.0127
39975W        W48775   2.975   2.363  22.805 -0.1124  0.1711  0.2874
39976W        W48776   8.173   1.803  23.601  0.3493  0.0721 -0.0575
39977W        W48777   3.164   0.562   3.877  0.1411 -0.3791  0.1185
39978W        W48778  22.849   1.305   7.038  0.5431 -0.4630 -0.2683
39979W        W48779   7.924   1.835  22.010  0.0409  0.0693 -0.0773
39980W        W48780   9.763   5.681   0.507  0.1202 -0.2031 -0.1505
39981W        W48781  20.986   6.750  26.172  0.1297  0.0598  0.1332
39982W        W48782  15.278   7.678  31.583 -0.0383 -0.1326  0.1915
39983W        W48783   0.397   6.768  12.108 -0.0094  0.0217 -0.1281
39984W        W48784   3.958   6.878  18.911 -0.0286 -0.2009  0.1446
39985W        W48785  10.949   1.682  17.866 -0.1312 -0.2644  0.2266
39986W        W48786  20.535   2.110  18.061  0.3705 -0.2038  0.0271
39987W        W48787  21.486   6.770   3.583  0.2624 -0.1345  0.1565
39988W        W48788  18.490   0.685   5.675  0.0973 -0.0762  0.1091
39989W        W48789   5.362   3.585   3.374 -0.0544  0.2564 -0.2242
39990W        W48790  22.887   7.392   9.510 -0.1248 -0.2290 -0.0711
39991W        W48791  19.281   6.870  25.165 -0.2101 -0.0681  0.2547
39992W        W48792  21.337   1.301  28.224 -0.1472  0.1569 -0.0774
39993W        W48793  24.481   0.202  30.943 -0.0218 -0.0644 -0.0815
39994W        W48794  23.476   2.559   3.910  0.0199  0.1205  0.2343
39995W        W48795   5.103   7.640   1.992 -0.2252 -0.0469  0.0130
39996W        W48796  13.690   3.880   9.666 -0.0287 -0.0586 -0.0278
39997W        W48797   4.848   6.044  23.809  0.1853 -0.1406  0.1005
39998W        W48798   9.600   6.293  28.644 -0.0746  0.1919  0.0895
39999W        W48799  23.822   5.478  12.537  0.0680  0.1337  0.1189
40000W        W48800  19.321   2.255  25.623 -0.1097  0.2836 -0.1502
40001W        W48801  18.472   5.084  27.785  0.1336  0.1454  0.2243
40002W        W48802   1.708   4.875  10.558 -0.1338  0.2153  0.1763
40003W        W48803   5.959   7.293  15.103  0.1041 -0.2229  0.1681
40004W        W48804   5.276   2.150   7.402  0.2537  0.0093  0.1112
40005W        W48805  12.013   7.075  27.298  0.1563 -0.0931 -0.0230
40006W        W48806   1.360   3.208  10.441 -0.1969 -0.0827  0.0690
40007W        W48807  23.812   5.636  13.498 -0.0432  0.1527  0.0170
40008W        W48808  19.464   7.636  32.334 -0.1992  0.1836 -0.0012
40009W        W48809  12.919   4.892  12.862 -0.0071 -0.3428 -0.4119
40010W        W48810  22.580   5.062   9.655 -0.1019 -0.0895 -0.0754
40011W        W48811  16.680   7.773   2.857 -0.0269  0.1489  0.0072
40012W        W48812  10.597   6.351  28.579 -0.2923 -0.0113 -0.0023
40013W        W48813   6.303   2.779  27.263  0.1382  0.0176  0.0468
40014W        W48814  14.398   0.395  31.548 -0.0576  0.0529  0.3062
40015W        W48815  15.947   3.319  11.764 -0.0298 -0.2468 -0.2893
40016W        W48816   2.379   6.956   6.151  0.0543 -0.0368 -0.1270
40017W        W48817  11.848   5.473  18.899 -0.1575 -0.0500  0.0393
40018W        W48818  12.266   2.553   5.708  0.0209  0.1813 -0.1660
40019W        W48819  12.156   3.417  22.935  0.0343  0.1393  0.2539
40020W        W48820  19.753   6.724  31.102  0.1813 -0.0242 -0.2197
40021W        W48821  21.663   2.392   9.636 -0.1443  0.1039  0.3846
40022W        W48822  12.201   0.272  19.359  0.0665  0.0745  0.0575
40023W        W48823  19.915   7.182  15.742  0.1476  0.2042 -0.0311
40024W        W48824  15.978   7.383   8.560  0.3163 -0.0989  0.0350
40025W        W48825  18.561   6.936  21.926  0.1137 -0.1126 -0.2511
40026W        W48826  13.110   6.375   8.746 -0.1494 -0.0566 -0.0500
40027W        W48827  19.488   2.981   6.890 -0.0250  0.3379  0.0104
40028W        W48828  21.282   1.590  23.928  0.1178 -0.2050  0.0658
40029W        W48829  20.566   5.063  24.742 -0.0075 -0.1787 -0.1033
40030W        W48830   9.404   0.386  19.365 -0.1551  0.0310 -0.2217
40031W        W48831   3.439   3.027  16.365 -0.0014 -0.0807  0.1221
40032W        W48832  11.512   3.641   8.469  0.0576  0.1046 -0.0017
40033W        W48833   9.111   4.108   8.124 -0.1866 -0.2479  0.0468
40034W        W48834   4.903   2.112  21.760  0.1612  0.0209  0.0751
40035W        W48835   2.719   2.984  32.242 -0.0997 -0.2378  0.1635
40036W        W48836  24.192   2.001  30.270 -0.3166 -0.3517 -0.0081
40037W        W48837  10.291   4.653   1.419  0.0886 -0.1723 -0.3917
40038W        W48838  13.398   0.913  22.706  0.1085 -0.4590 -0.2034
40039W        W48839   3.416   2.244  29.413  0.1341 -0.0027 -0.1252
40040W        W48840  13.764   5.846  24.939 -0.0950 -0.1718  0.2585
40041W        W48841   6.901   7.717  16.509  0.0887 -0.3286  0.0805
40042W        W48842  22.021   6.158  16.166  0.5557  0.0370 -0.1648
40043W        W48843  24.916   0.867   8.510  0.1957  0.0043  0.2808
40044W        W48844   2.447   5.873   5.516 -0.0043 -0.1215 -0.2484
40045W        W48845  12.838   7.497  21.377  0.1127 -0.0939 -0.5344
40046W        W48846   3.886   5.771  17.799  0.0054 -0.1141  0.0980
40047W        W48847  23.283   2.197   5.113 -0.2261 -0.1820 -0.2976
40048W        W48848  21.352   2.383  32.292  0.0290  0.2846 -0.0773
40049W        W48849  21.918   1.070  25.149  0.1134  0.0571 -0.0688
40050W        W48850  19.749   3.609   1.902 -0.1334 -0.0095  0.0866
40051W        W48851  23.273   5.846  12.696 -0.0992 -0.3033 -0.0891
40052W        W48852   7.412   4.102  31.994  0.2131 -0.0066 -0.0791
40053W        W48853   3.499   3.755   7.155 -0.2986  0.1877 -0.0281
40054W        W48854  12.874   6.712  28.479  0.1771 -0.2771 -0.0246
40055W        W48855  17.208   2.890  16.746 -0.3676 -0.1980 -0.1126
40056W        W48856  22.171   1.790  22.386  0.1760  0.0301  0.0604
40057W        W48857  18.199   5.507   9.022  0.0394  0.1749 -0.1523
40058W        W48858  11.609   4.202  25.385 -0.0089  0.3917 -0.2981
40059W        W48859   0.682   3.955  21.858 -0.2469 -0.0367 -0.1687
40060W        W48860   4.803   7.779  23.317 -0.3579 -0.1759  0.0585
40061W        W48861   8.347   1.321  29.543 -0.0116  0.1132 -0.2375
40062W        W48862  21.344   3.470  28.633 -0.0393 -0.1958 -0.0540
40063W        W48863   2.979   7.560   4.370  0.2441  0.1721  0.0640
40064W        W48864   5.954   0.023  14.993  0.4377 -0.0678  0.0233
40065W        W48865   3.493   1.470  27.049 -0.0609  0.0508 -0.1874
40066W        W48866   3.136   6.630   2.499  0.1405 -0.0271  0.0288
40067W        W48867  20.285   1.862  30.347 -0.0611  0.0332 -0.3049
40068W        W48868   7.373   7.328  28.392 -0.0641 -0.0075 -0.1943
40069W        W48869  10.419   0.968  28.167 -0.0697  0.2150 -0.3208
40070W        W48870   3.284   5.892  28.526  0.0155 -0.0930 -0.3290
40071W        W48871   9.036   3.586  17.383 -0.0196  0.3994 -0.1546
40072W        W48872   7.998   3.555  19.145 -0.0759 -0.0493  0.2871
40073W        W48873   1.450   0.167  29.918 -0.1703 -0.1244  0.3030
40074W        W48874   9.672   4.923   1.226  0.0640  0.1757 -0.1837
40075W        W48875  16.087   1.938  12.556 -0.3395  0.1730  0.0801
40076W        W48876   3.212   7.168  27.118 -0.2393 -0.0885 -0.0747
40077W        W48877   0.144   3.500  29.949 -0.0297  0.3464  0.0179
40078W        W48878   9.130   7.612  30.691 -0.1144  0.2679  0.0656
40079W        W48879   0.116   6.208  32.145 -0.0549  0.1686 -0.1998
40080W        W48880  17.970   7.412   8.322  0.0405  0.2596 -0.0453
40081W        W48881   0.357   4.361  24.351 -0.0805 -0.1042 -0.0806
40082W        W48882   8.487   1.095   4.084  0.2184  0.1207  0.3685
40083W        W48883   2.039   3.667  20.815  0.0237 -0.0474  0.2981
40084W        W48884   0.634   2.255  20.344  0.2787  0.0814 -0.1857
40085W        W48885  13.157   2.603  20.705 -0.0237 -0.0649 -0.0748
40086W        W48886  19.779   3.111  11.426 -0.1936  0.0347 -0.2207
40087W        W48887  10.435   4.982  16.999 -0.0969  0.0081 -0.1683
40088W        W48888   3.384   5.231   8.026 -0.0668  0.0129  0.0005
40089W        W48889   3.830   5.030  24.288  0.0606 -0.4336 -0.0575
40090W        W48890   6.338   3.388  29.933  0.0557 -0.2273 -0.1023
40091W        W48891   1.494   1.778   6.794  0.3274  0.1481 -0.0409
40092W        W48892  24.439   5.366  26.445 -0.0072  0.1107  0.1640
40093W        W48893  23.338   4.789  23.864  0.0325  0.2505  0.0142
40094W        W48894   7.104   1.071  22.479 -0.0341 -0.5246  0.2734
40095W        W48895  17.884   1.613  25.752 -0.0955  0.1161  0.0614
40096W        W48896  15.558   1.139  25.625  0.0389  0.0466 -0.1686
40097W        W48897  14.449   1.633   8.647  0.0185  0.3700 -0.1652
40098W        W48898  17.456   5.774  14.362 -0.0503 -0.2274  0.1465
40099W        W48899  22.868   5.876   8.501 -0.0557 -0.0333 -0.2130
40100W        W48900  14.634   0.009   9.532 -0.1050 -0.1946 -0.0452
40101W        W48901   7.453   6.949   1.252 -0.0414 -0.3066  0.0078
40102W        W48902  18.922   6.071  14.932 -0.3086  0.0375  0.2832
40103W        W48903  18.537   4.875  16.498  0.0661  0.2002 -0.1484
40104W        W48904  24.324   5.371  14.033  0.0084  0.1632 -0.2190
40105W        W48905  24.598   6.525  22.879 -0.0888  0.1305 -0.0470
40106W        W48906   9.951   7.840  18.123  0.5006 -0.0150 -0.0662
40107W        W48907  23.778   5.257   6.048  0.1383 -0.0388 -0.2475
40108W        W48908   9.007   4.809   3.347 -0.0646  0.0255  0.1835
40109W        W48909   5.285   6.549   5.743  0.4622 -0.0380 -0.1563
40110W        W48910  21.830   0.801  24.156 -0.4987 -0.0128 -0.4413
40111W        W48911  19.711   3.754  27.331  0.1668  0.0950 -0.0757
40112W        W48912  18.143   7.632  10.242  0.2633 -0.1754 -0.2895
40113W        W48913  14.782   4.857   5.927  0.1959  0.0120  0.0130
40114W        W48914   2.380   0.559   7.724  0.0229  0.0698 -0.1312
40115W        W48915   2.233   0.396   1.764  0.0689 -0.0849 -0.0732
40116W        W48916   7.970   6.596  20.728 -0.3469 -0.1589 -0.1912
40117W        W48917   6.506   4.721  22.114  0.1736 -0.1399  0.2195
40118W        W48918  13.348   6.628  13.490 -0.3397 -0.2000  0.2092
40119W        W48919  13.043   5.403   7.851  0.4023  0.0858  0.0176
40120W        W48920   6.468   3.037  25.305 -0.1071 -0.1669 -0.3697
40121W        W48921   9.098   1.361  19.145 -0.1055 -0.0579 -0.1709
40122W        W48922  24.971   4.309  27.486 -0.0657  0.1165 -0.0886
40123W        W48923  11.151   5.932  21.156 -0.1852  0.0360  0.0908
40124W        W48924  20.487   3.847   3.428 -0.1082 -0.3827  0.0972
40125W        W48925  16.566   0.490  30.932  0.2505  0.1356 -0.3201
40126W        W48926  13.500   7.013  29.761  0.2784  0.0419  0.0023
40127W        W48927   6.552   7.299  15.859  0.1724 -0.1494 -0.1783
40128W        W48928  12.416   0.317  29.280 -0.1591  0.0271  0.0575
40129W        W48929   9.652   3.737  20.361 -0.0811  0.1883 -0.0347
40130W        W48930  20.870   3.478  13.062  0.0119 -0.0455 -0.0757
40131W        W48931   9.878   7.460  26.929  0.2770 -0.0037  0.0901
40132W        W48932   5.000   1.691   3.442 -0.1003  0.3505 -0.1535
40133W        W48933   1.879   0.833   0.196  0.1001 -0.1181 -0.1592
40134W        W48934  11.347   4.438   6.691  0.1275 -0.1676 -0.0455
40135W        W48935  19.958   2.200  16.727  0.0225  0.1197  0.1409
40136W        W48936   7.233   4.482   5.627  0.0586 -0.0774  0.1769
40137W        W48937   6.001   5.926  20.151  0.3357  0.1320  0.0567
40138W        W48938  12.400   0.878  20.626  0.0741 -0.0247 -0.1623
40139W        W48939   0.426   7.263  25.508 -0.0098  0.3948  0.1072
40140W        W48940  24.366   7.800  20.753  0.0643  0.0778  0.2127
40141W        W48941   1.842   1.550  22.674 -0.2540 -0.3467  0.0196
40142W        W48942  10.916   6.460   8.320  0.1359  0.0434  0.0451
40143W        W48943  14.017   0.179   7.598  0.1140 -0.0963  0.3221
40144W        W48944  11.679   7.046  31.515  0.0376  0.1699 -0.1309
40145W        W48945  22.360   7.799  26.638  0.1706 -0.0368 -0.0067
40146W        W48946  18.881   5.196   1.661 -0.0597 -0.1617 -0.0575
40147W        W48947  21.336   0.760  14.275 -0.1959  0.1010 -0.0341
40148W        W48948  17.003   1.624  30.786  0.0603 -0.1616  0.0037
40149W        W48949   9.937   6.021  21.682 -0.2078  0.0240  0.1037
40150W        W48950  20.026   7.805  31.685  0.2874  0.2590 -0.0568
40151W        W48951   4.931   3.820   0.784 -0.2087 -0.2969 -0.1636
40152W        W48952  22.133   3.623  13.868  0.0474  0.0940  0.2711
40153W        W48953   7.923   7.241  23.382  0.2356  0.0077  0.0720
40154W        W48954  13.009   6.037  30.629 -0.0269 -0.2208 -0.2622
40155W        W48955   2.804   0.639  28.308 -0.1129 -0.0979 -0.0925
40156W        W48956  23.697   1.363  28.527 -0.0122 -0.0028 -0.2476
40157W        W48957   3.930   3.393  31.815  0.1683 -0.3414  0.0556
40158W        W48958   8.834   6.123   9.528 -0.2322  0.1516 -0.3202
40159W        W48959  22.639   0.982   9.334 -0.0543  0.2186  0.2708
40160W        W48960   8.206   2.929  23.139 -0.0170  0.0765 -0.2409
40161W        W48961   4.227   6.149   3.767  0.1767  0.0740 -0.1248
40162W        W48962   8.527   3.025  29.673 -0.0009 -0.3295 -0.1710
40163W        W48963  19.550   0.302  18.210  0.3177  0.2764  0.1438
40164W        W48964   3.871   2.808  26.287  0.0869  0.0267 -0.2833
40165W        W48965   4.924   7.457   3.613  0.0293 -0.0891 -0.2631
40166W        W48966   5.633   4.311  29.777 -0.1988  0.0741  0.1004
40167W        W48967  17.422   7.338   6.489  0.0141 -0.0620 -0.0512
40168W        W48968   5.477   7.530  20.924 -0.1190 -0.0122 -0.2087
40169W        W48969   8.153   1.063  27.549 -0.2420 -0.1363  0.0172
40170W        W48970  21.410   2.346   4.326  0.1460 -0.0232 -0.0143
40171W        W48971  13.656   3.197   8.372 -0.1066  0.0159  0.0646
40172W        W48972  21.708   0.786   0.704  0.1250  0.0370  0.3704
40173W        W48973  18.146   6.865   4.970  0.2628 -0.0344  0.2262
40174W        W48974  18.478   1.051   2.466 -0.1920 -0.1441 -0.1718
40175W        W48975   8.447   4.305  24.666  0.0092  0.1000  0.1746
40176W        W48976   3.659   6.275  30.923  0.0198 -0.0312  0.2528
40177W        W48977  10.496   6.223  20.064 -0.1327  0.1650 -0.2086
40178W        W48978   2.048   7.232  24.559  0.2360 -0.0673 -0.0127
40179W        W48979  19.101   0.842  26.847 -0.1444 -0.0761  0.0812
40180W        W48980  24.009   2.931  25.399 -0.2035  0.1284  0.0012
40181W        W48981  24.316   4.327  13.024 -0.0328  0.1668 -0.0317
40182W        W48982   2.203   6.196  19.777 -0.1847  0.2894  0.3423
40183W        W48983  24.679   2.900  21.231  0.2402 -0.1402  0.2466
40184W        W48984   4.367   6.162   4.493  0.1187 -0.0532  0.0296
40185W        W48985  23.417   5.373  14.440 -0.1649 -0.0480 -0.0258
40186W        W48986   0.221   2.464  30.378 -0.2183 -0.3106 -0.0451
40187W        W48987   7.926   4.016  23.975  0.1068 -0.0099  0.2234
40188W        W48988  13.480   7.069  11.516 -0.0254  0.1531 -0.1701
40189W        W48989   9.889   5.845  28.462  0.2122 -0.0094 -0.1368
40190W        W48990  17.510   4.809   3.977 -0.4326  0.1073 -0.1582
40191W        W48991  25.069   0.455   4.061 -0.0788  0.0147 -0.1172
40192W        W48992  17.109   4.351  12.413 -0.2040  0.0279  0.0872
40193W        W48993   5.720   7.277   4.887  0.0344  0.1777 -0.2149
40194W        W48994   0.495   5.851   2.052 -0.0661  0.1510 -0.0241
40195W        W48995  10.608   7.751  28.185 -0.1018  0.2352  0.0423
40196W        W48996   2.635   0.863  25.393  0.2057 -0.2392  0.1579
40197W        W48997   7.145   4.308  20.290  0.1667  0.0582 -0.0899
40198W        W48998   8.482   1.612  18.138  0.1544  0.2506 -0.2115
40199W        W48999  23.737   6.144  29.936 -0.0825  0.1575 -0.2480
40200W        W49000  19.823   1.600   6.471 -0.0781 -0.5182  0.0649
40201W        W49001  21.147   1.810  13.369  0.0863  0.3258 -0.0139
40202W        W49002   3.702   2.790  30.552  0.0896 -0.2841  0.0767
40203W        W49003  13.227   3.077   6.591  0.3037  0.3318  0.0598
40204W        W49004  11.209   3.142   4.501 -0.0957 -0.0421 -0.0495
40205W        W49005  18.835   5.938  11.772 -0.1300 -0.3297  0.2166
40206W        W49006   4.419   3.617   5.477 -0.2250 -0.0027  0.0315
40207W        W49007   6.281   6.332  17.113  0.0476  0.2659 -0.1412
40208W        W49008   7.202   3.473  16.686  0.0479 -0.0512  0.1051
40209W        W49009  22.417   7.181  23.290  0.2075  0.2347  0.0044
40210W        W49010  18.331   4.649  12.802 -0.0042 -0.1463  0.2525
40211W        W49011  23.381   1.781   2.265  0.1809  0.0615  0.4934
40212W        W49012  22.106   1.437   6.538 -0.2920  0.2201  0.2871
40213W        W49013   7.336   0.233  31.251  0.0948 -0.1407  0.0389
40214W        W49014  21.222   1.447  32.560  0.0315  0.3122 -0.0754
40215W        W49015  11.578   3.248  10.612 -0.0587 -0.2464  0.3015
40216W        W49016   3.212   6.801  17.065 -0.1423  0.3468 -0.4085
40217W        W49017   9.538   1.824  23.884 -0.0058  0.2877 -0.0639
40218W        W49018   3.880   3.692  18.077 -0.1936  0.0330  0.3258
40219W        W49019  14.327   7.684  14.369 -0.0444  0.2347 -0.2435
40220W        W49020  17.347   1.995  23.914  0.0801 -0.0698 -0.2391
40221W        W49021   4.871   6.628   2.875  0.1704  0.0015 -0.2919
40222W        W49022   2.253   6.442   1.452 -0.1879  0.3674  0.2355
40223W        W49023  22.115   3.377  26.275  0.2292 -0.1962 -0.0493
40224W        W49024   2.955   0.474  24.000 -0.2840  0.0153  0.1378
40225W        W49025  25.103   6.868   6.631 -0.0842  0.0342 -0.0273
40226W        W49026   8.558   5.370  17.595 -0.0215 -0.0202 -0.0644
40227W        W49027  19.453   0.220  24.049 -0.2304  0.1389  0.0725
40228W        W49028   3.955   5.118   6.752 -0.2191 -0.0446 -0.3775
40229W        W49029  18.423   0.636   3.423 -0.1281  0.0551  0.3303
40230W        W49030  16.089   1.212  31.719  0.1016  0.4501 -0.0484
40231W        W49031   1.202   2.506   0.350 -0.1795 -0.0240  0.0268
40232W        W49032  22.739   2.283   5.844 -0.3130 -0.2820  0.2067
40233W        W49033   5.234   7.663  29.926 -0.0445 -0.0500 -0.3109
40234W        W49034   7.772   0.032   7.250  0.1262  0.0585  0.1162
40235W        W49035  24.278   0.965  27.394  0.0551 -0.0062 -0.1627
40236W        W49036   9.841   3.054   4.750 -0.1307  0.0797  0.0023
40237W        W49037  10.785   7.826   2.115  0.3446  0.0304 -0.0565
40238W        W49038   7.296   1.348  30.072  0.0474 -0.0894 -0.0399
40239W        W49039   2.322   3.372   6.674  0.1329 -0.3996 -0.1806
40240W        W49040  14.558   2.612  22.428 -0.2267 -0.2134 -0.0819
40241W        W49041   1.391   7.208   1.468  0.0010 -0.0414 -0.1268
40242W        W49042  17.633   3.241  22.882 -0.1592  0.1817 -0.1227
40243W        W49043  11.068   7.183  10.331  0.3268 -0.1618  0.0948
40244W        W49044   7.825   6.250  19.443 -0.3108 -0.1176 -0.0304
40245W        W49045  22.175   2.585   2.461 -0.1566  0.1887  0.2395
40246W        W49046  19.013   4.961   2.578 -0.2526  0.0405  0.1744
40247W        W49047  16.176   3.035  14.017 -0.1557 -0.1878  0.2507
40248W        W49048  18.628   5.578  24.196 -0.1695 -0.1184 -0.0232
40249W        W49049   2.921   0.833  24.374 -0.0527 -0.1601 -0.3380
40250W        W49050  23.074   3.840  24.127  0.2428 -0.0073 -0.0970
40251W        W49051  14.459   5.194  30.417  0.0737 -0.1375 -0.2910
40252W        W49052  14.170   5.748  21.713 -0.0004  0.1394  0.0301
40253W        W49053  11.269   6.720  26.862 -0.2907  0.2161  0.0577
40254W        W49054   3.709   7.243   1.458  0.1699  0.0720 -0.1747
40255W        W49055  10.951   2.616   4.368  0.0465 -0.2669  0.2135
40256W        W49056   3.265   3.258  21.410 -0.1562  0.0994  0.1658
40257W        W49057   2.426   5.815  30.679 -0.0704 -0.3073 -0.0321
40258W        W49058  21.047   3.435   3.607 -0.2469  0.1863  0.0687
40259W        W49059   9.705   6.346  18.851 -0.0890  0.0462 -0.3024
40260W        W49060  11.556   4.795  21.025  0.2087 -0.2237  0.1580
40261W        W49061  18.971   4.173   6.391 -0.1012  0.0603 -0.1796
40262W        W49062   4.581   5.271  26.296 -0.1049  0.0061  0.1174
40263W        W49063   9.116   5.688  32.151 -0.1293 -0.2326  0.2126
40264W        W49064  19.426   0.163  30.596  0.2009 -0.2174  0.0542
40265W        W49065   0.198   5.906  20.111 -0.0031  0.0195  0.1045
40266W        W49066  21.778   3.187  11.414  0.0961 -0.1622 -0.0364
40267W        W49067   5.087   6.028  16.182 -0.0870 -0.2335  0.2342
40268W        W49068  18.390   5.629  32.301  0.3013 -0.3167 -0.2878
40269W        W49069   3.722   7.325  30.773  0.3611 -0.1152 -0.0687
40270W        W49070   5.390   6.942  25.716 -0.3515 -0.3920  0.1176
40271W        W49071  24.141   2.307  11.376 -0.0905  0.2581  0.0853
40272W        W49072   2.557   7.236  28.365  0.4486 -0.1497  0.0577
40273W        W49073  13.623   0.640  30.750  0.0947  0.3404  0.0414
40274W        W49074   6.265   5.553   7.688  0.0810  0.1670 -0.0448
40275W        W49075   7.672   4.452  30.669 -0.2200  0.0570 -0.1872
40276W        W49076  16.173   6.435  29.898 -0.0573  0.0621 -0.1044
40277W        W49077  20.487   3.357  13.441  0.0882  0.2679 -0.0426
40278W        W49078  24.694   3.650  30.668 -0.2553 -0.1035  0.0093
40279W        W49079   3.027   3.367  22.788  0.0187 -0.5009 -0.3116
40280W        W49080   5.824   5.034  20.096  0.0664 -0.1543  0.3057
40281W        W49081  11.067   3.809  24.574 -0.2146  0.0862 -0.1754
40282W        W49082   7.131   2.968  16.410 -0.3396  0.0369  0.1156
40283W        W49083  11.032   4.890   3.570  0.1206  0.1474  0.1283
40284W        W49084  18.933   0.723  12.783  0.2432 -0.2731 -0.0690
40285W        W49085  15.985   5.786  12.077 -0.0259  0.1470 -0.2337
40286W        W49086   8.531   7.215  30.185  0.1744 -0.0316 -0.0475
40287W        W49087  20.991   4.653  12.937  0.2112  0.0393  0.2115
40288W        W49088  21.396   5.995  31.138  0.1660 -0.2079 -0.3182
40289W        W49089   6.441   4.153  29.260  0.1968  0.3210  0.0378
40290W        W49090  24.125   3.534  14.067  0.3059 -0.1262 -0.1322
40291W        W49091   0.183   3.102  28.063 -0.1190 -0.0886  0.0577
40292W        W49092  24.499   3.048  24.998  0.0047 -0.0923  0.0466
40293W        W49093  11.110   2.698   2.676 -0.1361  0.0888 -0.1974
40294W        W49094  16.099   5.624  14.820  0.0349 -0.1489 -0.0306
40295W        W49095   9.257   2.404   4.610  0.0311 -0.1134  0.4268
40296W        W49096  13.229   7.374   2.753  0.2871  0.1452 -0.0021
40297W        W49097  18.163   2.394  27.898 -0.0568  0.1483  0.1154
40298W        W49098  18.277   1.335  25.585  0.0563 -0.2263 -0.0787
40299W        W49099   3.597   4.356   8.984 -0.1331 -0.1331  0.0922
40300W        W49100   7.655   0.212  15.900  0.1828  0.1454 -0.1108
40301W        W49101  10.736   2.546  24.104  0.0781 -0.1781  0.3132
40302W        W49102   3.263   3.484  25.103 -0.0533  0.0308 -0.0178
40303W        W49103  22.851   6.098  23.408 -0.2082 -0.0285 -0.0937
40304W        W49104  12.972   0.193  32.415  0.0227  0.0547 -0.4529
40305W        W49105   4.814   2.241   3.111  0.0452 -0.2706  0.0821
40306W        W49106  22.768   4.296  21.785 -0.2714 -0.2637  0.0252
40307W        W49107   5.588   4.362  15.299  0.0706 -0.0528 -0.1217
40308W        W49108   7.409   5.582   9.582  0.0922 -0.1881  0.1608
40309W        W49109   3.931   4.039  28.818 -0.0373  0.0645  0.0423
40310W        W49110   9.510   5.142  30.694  0.2460  0.1291 -0.0976
40311W        W49111  24.471   5.976  27.201 -0.1250  0.1166  0.2568
40312W        W49112   8.691   5.817   1.200 -0.1029  0.2884  0.2333
40313W        W49113   8.001   4.222  20.905  0.2257 -0.1271 -0.0505
40314W        W49114   6.993   1.976  14.900  0.0823  0.1122 -0.1411
40315W        W49115  14.232   0.774  11.762 -0.1241  0.3556 -0.0319
40316W        W49116   1.138   3.797  32.545  0.1286 -0.5555  0.2739
40317W        W49117   4.648   5.380  16.522  0.2697  0.0842 -0.2636
40318W        W49118  14.156   0.332  21.554 -0.0232 -0.0513  0.2065
40319W        W49119   6.399   3.428  28.640  0.0622 -0.2303 -0.2095
40320W        W49120  23.489   3.250   1.160  0.0847 -0.1535  0.1299
40321W        W49121   5.762   6.623  21.217 -0.1644 -0.0832 -0.1752
40322W        W49122  20.626   7.673   6.769  0.1574 -0.1103  0.1885
40323W        W49123  14.373   6.481  28.508  0.0272  0.0353  0.0633
40324W        W49124  17.652   3.391  22.017 -0.4322  0.0406 -0.1332
40325W        W49125  20.965   4.338  22.483 -0.0898 -0.0653  0.0414
40326W        W49126  16.069   5.754  30.092 -0.1902  0.0854 -0.0289
40327W        W49127  19.642   0.103  17.532 -0.0677  0.1774 -0.0353
40328W        W49128  24.170   0.179   7.592 -0.0551  0.0951 -0.2210
40329W        W49129   9.289   5.262  20.225  0.1141  0.1465 -0.1472
40330W        W49130  12.731   3.580  12.840  0.0811 -0.2259  0.1212
40331W        W49131  17.186   1.403  10.515  0.0320 -0.0819 -0.0563
40332W        W49132   7.592   2.620  15.415  0.0160 -0.3287 -0.2182
40333W        W49133   5.042   2.515  30.230  0.3191  0.1896 -0.1846
40334W        W49134  20.261   6.912   0.266 -0.2996  0.1182 -0.1121
40335W        W49135   8.066   3.581  14.909 -0.3224  0.0523 -0.1129
40336W        W49136   3.880   0.259  32.558  0.0245 -0.0339  0.1408
40337W        W49137   1.401   1.961   5.853  0.0451 -0.0480 -0.0675
40338W        W49138  22.373   0.872  30.547 -0.0715  0.0293  0.0908
40339W        W49139  23.938   0.110   5.707  0.1648 -0.2836  0.0619
40340W        W49140   5.925   0.482   2.825  0.1465  0.1331  0.1593
40341W        W49141  25.111   2.372  26.103  0.0320 -0.0008 -0.1953
40342W        W49142  23.507   3.820  12.206  0.0783 -0.1080  0.3407
40343W        W49143   7.040   7.197  18.393  0.4777  0.1848  0.2029
40344W        W49144   3.299   4.779  25.127 -0.2309  0.2138  0.1136
40345W        W49145   7.900   3.489  27.529 -0.1259 -0.0792 -0.1746
40346W        W49146  21.097   0.162  23.418 -0.3010  0.0542 -0.2939
40347W        W49147   8.987   1.075   3.372  0.1281  0.3429 -0.0106
40348W        W49148  10.373   0.473  29.468 -0.3178  0.0681  0.1447
40349W        W49149  14.075   3.422  31.546 -0.3464 -0.2995  0.1125
40350W        W49150  19.549   0.774  27.581 -0.2619  0.0186  0.2149
40351W        W49151   3.586   1.948   2.045  0.1283 -0.3561  0.1432
40352W        W49152  24.383   6.754   8.103 -0.0216 -0.2453  0.1857
40353W        W49153  13.823   5.499   4.959 -0.2163 -0.1001 -0.1890
40354W        W49154  24.899   7.232  29.771  0.0998 -0.0511  0.1553
40355W        W49155   0.198   3.742   8.907 -0.1649  0.2650 -0.1027
40356W        W49156  23.665   6.562  11.221 -0.0881 -0.0280 -0.1780
40357W        W49157  24.338   6.171  12.388 -0.1575  0.0944  0.0068
40358W        W49158  20.220   7.826  23.200 -0.0441  0.1996  0.0515
40359W        W49159  16.759   2.918  16.277 -0.0437 -0.4293 -0.0169
40360W        W49160   6.938   7.592  29.201  0.1487  0.1017  0.0499
40361W        W49161   5.775   1.273  17.707 -0.0212 -0.0810  0.1271
40362W        W49162  19.086   1.735  28.605 -0.0256 -0.3744  0.2163
40363W        W49163  16.277   7.328  29.167 -0.0421  0.0351  0.2138
40364W        W49164  12.695   0.259   6.407 -0.1299  0.1320 -0.0422
40365W        W49165   6.631   1.364  22.533 -0.0144  0.1176 -0.0359
40366W        W49166   3.640   5.135  29.813  0.4425  0.0757  0.2018
40367W        W49167  10.365   6.376   0.639 -0.0163  0.1548  0.2308
40368W        W49168  15.885   0.293  29.587 -0.1794  0.1352  0.0663
40369W        W49169  24.432   5.328  31.503 -0.1655 -0.1508 -0.1821
40370W        W49170  13.210   0.466  26.383  0.2727 -0.2171  0.1251
40371W        W49171   4.196   0.896  18.195  0.1572 -0.1684  0.1900
40372W        W49172  24.207   2.119  12.819  0.1277 -0.0925 -0.2176
40373W        W49173   8.893   4.905  31.138 -0.2719  0.0004  0.1870
40374W        W49174  13.345   1.015   5.160 -0.0892  0.1115 -0.1361
40375W        W49175   2.933   2.037  28.552  0.0331 -0.0952 -0.3432
40376W        W49176   8.468   3.330  29.284  0.0972  0.0272 -0.1572
40377W        W49177   5.069   4.121  21.888  0.2597  0.1110  0.2808
40378W        W49178  18.997   5.859   6.120 -0.0983  0.2575 -0.0572
40379W        W49179   4.234   3.734   8.212 -0.1009 -0.1215 -0.1909
40380W        W49180   0.297   6.844   6.275 -0.0712 -0.0866  0.4093
40381W        W49181  15.875   3.745   8.809  0.1668 -0.0798 -0.0239
40382W        W49182  20.950   2.012  30.939 -0.3395 -0.0810  0.2123
40383W        W49183   1.338   5.747  22.252 -0.0262 -0.0032 -0.4190
40384W        W49184  24.429   7.422  31.576  0.0853  0.0342 -0.0806
40385W        W49185  15.999   1.244   1.947  0.0675 -0.1281  0.3705
40386W        W49186  15.650   4.973  28.156  0.1062 -0.0961 -0.0811
40387W        W49187   1.513   4.524   8.279 -0.1332  0.1520 -0.1497
40388W        W49188  12.498   0.378   5.095  0.3173 -0.0800  0.1072
40389W        W49189   6.203   1.046  18.324  0.0357  0.2844 -0.0302
40390W        W49190  19.242   5.184   1.333 -0.0552  0.0761 -0.1633
40391W        W49191  22.969   5.439  25.077 -0.1420  0.1426 -0.0154
40392W        W49192  20.035   1.205  29.040  0.1741 -0.0886 -0.3964
40393W        W49193  18.714   1.867  12.873  0.0426  0.2124 -0.1226
40394W        W49194  22.794   0.207  26.657 -0.2235 -0.1703 -0.1257
40395W        W49195   9.421   0.762  26.659 -0.1410 -0.7274 -0.3024
40396W        W49196  11.595   2.849   2.710  0.0178  0.1412  0.3492
40397W        W49197  24.178   4.827  24.888  0.0856 -0.1218  0.1084
40398W        W49198   1.194   3.239   8.706 -0.1959 -0.0032 -0.1162
40399W        W49199  13.420   4.268  29.892 -0.0562 -0.1068  0.1537
40400W        W49200  16.687   2.076   8.480  0.1206  0.1835  0.0841
40401W        W49201  17.623   6.770  13.000 -0.1436  0.0839  0.0439
40402W        W49202  25.116   5.604   5.960  0.1319  0.0950  0.0854
40403W        W49203   5.887   2.165   9.483  0.0291  0.0891  0.0088
40404W        W49204  24.343   4.496   7.477  0.1512 -0.2878 -0.0652
40405W        W49205  14.799   4.320   5.807  0.2085  0.0590 -0.2064
40406W        W49206  13.275   2.165   1.151 -0.0859  0.1703 -0.3088
40407W        W49207  12.350   4.358   9.463 -0.0607  0.0502  0.0066
40408W        W49208  11.546   5.076  29.439  0.1255 -0.1791 -0.0932
40409W        W49209   6.989   4.325  32.190 -0.0843 -0.1835  0.1180
40410W        W49210   4.684   7.755  24.151  0.1390 -0.1909 -0.1470
40411W        W49211  13.979   3.113  27.624  0.1631 -0.3526  0.0457
40412W        W49212   3.858   6.222  23.111  0.0609  0.1036 -0.1504
40413W        W49213  14.339   7.094  32.465 -0.2279  0.0372 -0.0233
40414W        W49214   0.522   5.200   2.344 -0.1341  0.0244  0.3012
40415W        W49215  23.634   7.476   8.835 -0.3671  0.1453  0.1245
40416W        W49216  20.957   2.270  22.492 -0.3964 -0.3115 -0.0871
40417W        W49217   7.127   0.511  29.843 -0.0933 -0.1707 -0.0941
40418W        W49218  11.886   2.054   7.877  0.2094 -0.1450 -0.1782
40419W        W49219  17.287   6.434   2.537  0.0645  0.0966  0.0083
40420W        W49220  21.939   5.344   4.381  0.2946 -0.0045  0.2111
40421W        W49221  16.945   7.174  16.495  0.2429 -0.0249  0.0519
40422W        W49222   3.054   3.658  28.451 -0.0621  0.1219 -0.1798
40423W        W49223  14.718   6.984  15.215  0.1469 -0.0283 -0.0513
40424W        W49224  24.612   6.649  12.269 -0.3523  0.3395  0.1478
40425W        W49225  23.109   4.069  26.274  0.1692 -0.1769  0.2590
40426W        W49226  13.613   3.092   5.024 -0.0238 -0.0296  0.2638
40427W        W49227  14.009   2.934  23.850 -0.0699 -0.0749 -0.2379
40428W        W49228   3.046   7.558  21.428 -0.1150  0.2968  0.0691
40429W        W49229   7.184   1.154   4.600 -0.3505  0.3582  0.1965
40430W        W49230  11.484   5.549  29.245 -0.1659 -0.0135  0.0861
40431W        W49231  14.100   7.841  27.249 -0.1842 -0.2036 -0.3215
40432W        W49232   6.200   5.509  15.602 -0.0891 -0.3191 -0.1891
40433W        W49233   7.777   2.951  17.505  0.1087 -0.1632 -0.1367
40434W        W49234  21.075   0.497  25.909 -0.1703  0.1691  0.0606
40435W        W49235  21.496   3.972  12.588  0.1304  0.0458 -0.2975
40436W        W49236  23.107   4.828  32.247  0.1038 -0.1386 -0.2899
40437W        W49237   2.523   1.470  23.720  0.2287  0.1544  0.1802
40438W        W49238   0.209   2.537  22.109  0.3128 -0.0543  0.1111
40439W        W49239  18.441   0.509   7.846  0.2034 -0.0214  0.0625
40440W        W49240  19.423   2.557  22.717 -0.1226  0.1403 -0.0970
40441W        W49241  19.373   5.878  13.230  0.2258 -0.3694 -0.0106
40442W        W49242   0.750   0.893   4.290 -0.0575  0.0651 -0.2705
40443W        W49243   8.769   0.296  27.532 -0.0131  0.3215 -0.0080
40444W        W49244  24.285   6.008   9.891 -0.2824  0.2922 -0.1009
40445W        W49245  13.594   1.308  10.009  0.3116  0.0344  0.1781
40446W        W49246  11.607   3.343   3.693  0.0059 -0.1228 -0.2201
40447W        W49247   1.214   0.486  11.275  0.2085 -0.1958 -0.0611
40448W        W49248   2.537   4.870  23.388  0.1304 -0.1217 -0.2265
40449W        W49249  14.058   5.259  21.478 -0.2071 -0.0732  0.0217
40450W        W49250  23.125   2.633   5.838  0.0129  0.0166 -0.0822
40451W        W49251  12.369   6.655   0.799  0.2910  0.3084  0.0095
40452W        W49252  18.821   7.646   1.908  0.0599  0.0518  0.0682
40453W        W49253  17.767   6.563  24.308 -0.0696  0.3265  0.0398
40454W        W49254   2.021   2.914   5.469 -0.1773  0.2141 -0.3335
40455W        W49255   6.229   1.249  28.827  0.0818 -0.2056 -0.0667
40456W        W49256  14.195   1.066  28.349  0.0805  0.2620  0.0789
40457W        W49257  18.207   6.234   5.034  0.0739  0.0006 -0.1941
40458W        W49258  10.474   4.586   3.887 -0.1948  0.0907  0.1094
40459W        W49259  17.561   3.971  24.621 -0.0678  0.1638 -0.1944
40460W        W49260  17.303   3.349  30.708 -0.1352  0.4800  0.3432
40461W        W49261  17.121   6.452   9.484 -0.0113  0.0512  0.1499
40462W        W49262   0.634   4.235   6.182  0.0639  0.0689  0.0380
40463W        W49263  19.055   2.213  28.159 -0.1330  0.1785  0.0075
40464W        W49264   4.455   2.620  19.023 -0.2115 -0.1768 -0.1828
40465W        W49265  10.330   0.199   3.290 -0.0036 -0.0589  0.0184
40466W        W49266  16.163   1.878  11.702 -0.1555  0.1492 -0.2526
40467W        W49267  11.349   5.559  19.728  0.1615 -0.1759  0.0711
40468W        W49268   1.836   1.913   8.766 -0.0026  0.1760  0.1926
40469W        W49269  14.475   3.922  30.145  0.0066 -0.4193  0.1523
40470W        W49270  12.809   1.087  24.606  0.2348  0.0380  0.2686
40471W        W49271   1.655   0.821   7.649 -0.1984  0.1075 -0.3453
40472W        W49272  19.014   4.590  14.507  0.1658 -0.1566  0.0618
40473W        W49273   5.369   4.412   3.464  0.0702  0.0758  0.4131
40474W        W49274   6.868   0.216  27.074  0.1823 -0.2058  0.1920
40475W        W49275  13.755   4.475  23.933 -0.0471 -0.1844 -0.1063
40476W        W49276   4.572   1.319   5.574  0.4406  0.1132  0.0424
40477W        W49277   3.880   7.744  25.055  0.2896  0.1019 -0.1287
40478W        W49278  21.093   2.461  24.987  0.1663  0.2959  0.4620
40479W        W49279  19.325   2.330  13.293 -0.0003 -0.2504  0.0482
40480W        W49280  15.523   3.588  23.779  0.1184 -0.0668 -0.1806
40481W        W49281  16.256   5.038  26.143  0.0094  0.0013  0.1805
40482W        W49282   7.583   3.943  26.268  0.4733  0.1415 -0.0920
40483W        W49283   6.130   0.206  17.730 -0.2040  0.2037 -0.1024
40484W        W49284  12.042   6.806  11.181 -0.3159  0.0644  0.1990
40485W        W49285  13.751   0.888  11.812  0.0229  0.2009  0.1201
40486W        W49286  16.098   3.365  13.650 -0.1978 -0.0049 -0.0340
40487W        W49287  11.120   2.166  20.378 -0.1417 -0.0266  0.0007
40488W        W49288  16.595   7.377  24.710  0.2571  0.0174 -0.0497
40489W        W49289   3.250   5.875  19.146 -0.1626  0.0058  0.0870
40490W        W49290  19.857   5.940   1.662 -0.1124  0.1382 -0.0331
40491W        W49291   1.471   1.271   3.545  0.1523 -0.2840 -0.0248
40492W        W49292  18.696   0.431  17.976  0.2420 -0.0320 -0.2125
40493W        W49293   1.881   5.776  25.779  0.0185 -0.1699 -0.0118
40494W        W49294  20.582   0.799  15.386 -0.0058  0.0835  0.2097
40495W        W49295  14.213   4.965   4.517  0.3350 -0.0748 -0.0166
40496W        W49296  16.289   2.906   5.669  0.1866 -0.1022  0.0079
40497W        W49297  19.649   5.893   8.499  0.0525 -0.1972 -0.1809
40498W        W49298   1.866   3.965   0.943  0.0909  0.1687 -0.1166
40499W        W49299  13.825   3.848  22.443 -0.1757  0.0608  0.2626
40500W        W49300  21.417   2.960   0.916  0.0096 -0.2493 -0.1945
40501W        W49301   4.514   0.798   9.825  0.0836 -0.0549 -0.0429
40502W        W49302   3.296   2.303  18.411  0.2317  0.0005 -0.1752
40503W        W49303  12.016   6.349   2.460 -0.2724  0.0679 -0.0710
40504W        W49304   0.706   3.451   3.488  0.3027 -0.1532  0.0960
40505W        W49305   2.547   3.331   3.035  0.1361 -0.1095 -0.4059
40506W        W49306  13.780   7.421  21.573  0.1436  0.2087 -0.3226
40507W        W49307  21.683   2.248  14.280  0.0322 -0.1209  0.0291
40508W        W49308  22.859   3.393   6.922 -0.3555 -0.1319 -0.2079
40509W        W49309  11.458   5.017  28.176  0.0674  0.0892 -0.1858
40510W        W49310  11.462   7.321   1.286  0.1625  0.2493  0.1323
40511W        W49311  11.132   3.428  21.315 -0.0672 -0.1898  0.0976
40512W        W49312  22.453   1.992  16.038  0.0030 -0.2312  0.0999
40513W        W49313  11.966   1.754  21.771 -0.0864 -0.0291 -0.3836
40514W        W49314  13.784   4.275   6.321  0.0633 -0.0164 -0.0031
40515W        W49315   8.886   4.348   1.027  0.0754 -0.1833  0.2737
40516W        W49316  11.437   6.595   9.188 -0.0322 -0.0345  0.0610
40517W        W49317  14.175   4.755  27.758  0.2268 -0.0113 -0.1307
40518W        W49318   6.904   1.423  22.916  0.4478 -0.2482  0.2908
40519W        W49319  17.787   3.581   6.800 -0.0629 -0.1599  0.1771
40520W        W49320   3.095   4.757  28.000 -0.1387 -0.0282  0.0001
40521W        W49321   1.912   0.024   2.960  0.2381  0.1306 -0.2775
40522W        W49322   1.642   1.267   4.495 -0.2166 -0.1115  0.1068
40523W        W49323   8.865   2.071   8.011  0.0232  0.4402  0.2511
40524W        W49324  18.869   2.778  14.932 -0.0304 -0.1053 -0.1133
40525W        W49325  21.583   6.959  27.417  0.0627 -0.1207 -0.1484
40526W        W49326   3.288   7.600  21.923  0.1213  0.0406  0.3408
40527W        W49327  19.546   1.550   2.122 -0.2288 -0.2496  0.1170
40528W        W49328   2.341   7.230  19.502  0.0150 -0.2858  0.2140
40529W        W49329   1.228   1.252  25.284  0.2874  0.0140  0.0887
40530W        W49330   6.979   2.511   0.827  0.0875 -0.1502  0.1543
40531W        W49331  19.872   0.049   5.577 -0.1277 -0.0976  0.1646
40532W        W49332  17.874   1.904  13.390 -0.2170  0.1816 -0.1549
40533W        W49333  22.668   0.817  12.452 -0.0170  0.1331 -0.0660
40534W        W49334   3.091   0.053   7.797 -0.0860 -0.0834 -0.0002
40535W        W49335  14.993   2.884  25.962 -0.1026 -0.0237  0.1068
40536W        W49336   2.525   0.026   7.851 -0.0146  0.1606  0.1648
40537W        W49337  15.391   0.703  29.816  0.0761  0.0357 -0.1196
40538W        W49338  23.257   0.989  12.308 -0.0876 -0.1537  0.3922
40539W        W49339  15.578   1.296  26.680  0.1430 -0.0813  0.0147
40540W        W49340  16.858   3.797  16.643  0.0907 -0.0548 -0.2800
40541W        W49341  10.507   2.614   4.202  0.0209 -0.0064 -0.2423
40542W        W49342  23.156   6.802  10.079  0.2397 -0.0601 -0.0256
40543W        W49343  11.309   6.320   7.972 -0.0525  0.0949 -0.4639
40544W        W49344  16.429   4.136  23.961  0.1671 -0.1380 -0.1301
40545W        W49345  24.845   3.010  29.319  0.1820  0.0141  0.0931
40546W        W49346   7.918   4.167   3.836 -0.0206  0.0230 -0.2942
40547W        W49347  12.359   3.703  10.779 -0.1954  0.1846  0.4814
40548W        W49348   0.824   1.324  29.846  0.1021 -0.2572 -0.2244
40549W        W49349   4.218   6.041   4.958 -0.1464  0.2753  0.3314
40550W        W49350  12.220   7.542  19.252  0.0857 -0.0590 -0.1798
40551W        W49351  22.136   3.000   3.354 -0.2241  0.1651 -0.0436
40552W        W49352  15.168   5.777  30.265 -0.0582 -0.0712  0.0006
40553W        W49353  18.938   5.912  16.155 -0.1077  0.1901 -0.0125
40554W        W49354  15.493   1.555   0.280  0.0479  0.2997  0.1140
40555W        W49355  19.751   2.956  22.474 -0.0676  0.0265 -0.2245
40556W        W49356   2.100   1.561   7.379  0.2651  0.0312  0.0437
40557W        W49357  20.457   5.823   1.873 -0.2496 -0.0768 -0.0869
40558W        W49358  10.737   5.134  10.319  0.2950 -0.0035  0.1273
40559W        W49359  14.488   4.123   9.177 -0.0418  0.1515  0.1350
40560W        W49360  21.908   5.124  12.796 -0.3667 -0.1978 -0.0506
40561W        W49361  14.212   0.156   0.913 -0.1259 -0.0880 -0.4662
40562W        W49362  12.530   0.294  22.183 -0.2210  0.1924  0.2383
40563W        W49363   6.107   6.994  21.137  0.0207 -0.0050 -0.1821
40564W        W49364   1.736   6.159  18.865 -0.0105 -0.1001 -0.0271
40565W        W49365   3.248   6.502  10.693  0.2562  0.0795  0.3697
40566W        W49366  15.470   0.660  22.909  0.2458  0.2061  0.0445
40567W        W49367  23.997   6.643  25.870  0.0061  0.1710 -0.3690
40568W        W49368   9.669   7.611   8.546 -0.1429 -0.1584 -0.0600
40569W        W49369   6.280   1.981  18.929 -0.0404  0.3048  0.1616
40570W        W49370  21.732   7.495  27.508  0.1621 -0.1038  0.0701
40571W        W49371  11.723   5.244  20.824 -0.1755  0.0250 -0.0912
40572W        W49372   7.863   0.197  25.448  0.3340 -0.1165 -0.1036
40573W        W49373  10.499   7.108   8.729 -0.2470  0.0342 -0.2523
40574W        W49374  23.472   7.521   1.573  0.2760  0.3052 -0.2189
40575W        W49375   9.763   6.615   4.112 -0.0493  0.0731  0.0595
40576W        W49376  12.211   6.084  31.246  0.2765  0.0303 -0.0685
40577W        W49377  13.314   1.312  29.431 -0.2244  0.2062  0.0089
40578W        W49378   4.154   4.962  26.191 -0.1072  0.3181  0.0474
40579W        W49379  18.823   3.373  30.900  0.1637 -0.0631  0.1288
40580W        W49380   8.928   6.531   2.333 -0.2653 -0.0131 -0.2342
40581W        W49381  17.910   3.150   8.799 -0.2274 -0.2152 -0.0902
40582W        W49382   9.597   6.184  26.711  0.1798  0.3184  0.0526
40583W        W49383   7.678   7.458  19.760  0.0021  0.0941 -0.0960
40584W        W49384  24.207   7.585  25.922  0.1797  0.0181 -0.1303
40585W        W49385  13.346   3.594   9.133  0.1181  0.1376  0.2047
40586W        W49386   8.741   7.321  20.447 -0.2147  0.2378 -0.1829
40587W        W49387  15.999   5.867   5.775  0.0805 -0.1126  0.2050
40588W        W49388  22.996   2.117  22.356 -0.0255 -0.0126  0.3422
40589W        W49389  18.024   2.579   4.801 -0.0364  0.0653 -0.1277
40590W        W49390   6.419   2.376  29.810  0.0615  0.1691 -0.0141
40591W        W49391  12.636   7.485   4.283  0.0386 -0.0068 -0.1813
40592W        W49392  23.116   7.695  30.945 -0.1021 -0.0715  0.0446
40593W        W49393   3.597   4.758  11.390  0.0443 -0.1309 -0.0945
40594W        W49394  21.497   1.954  30.830 -0.0601  0.0179 -0.0295
40595W        W49395  21.693   3.442  26.584  0.1008 -0.1624  0.2357
40596W        W49396  12.284   4.686  29.522 -0.2868  0.0696  0.2734
40597W        W49397  22.560   5.784   1.388 -0.3873  0.0519 -0.0454
40598W        W49398  21.964   7.205   5.297  0.1925  0.2984  0.0214
40599W        W49399   7.697   3.877  31.405 -0.2171  0.1052 -0.1965
40600W        W49400  12.841   3.710   7.047  0.2146 -0.0736 -0.1624
40601W        W49401   6.087   0.026  26.522 -0.0323  0.1523 -0.1273
40602W        W49402  23.353   2.228   7.588  0.3354  0.0638  0.0659
40603W        W49403  13.495   6.860   1.915  0.1469  0.0619 -0.1519
40604W        W49404   1.642   2.756   9.410 -0.0393 -0.2170  0.1030
40605W        W49405  24.813   0.409   8.838  0.1190 -0.0383 -0.1684
40606W        W49406   0.324   0.111  11.229 -0.0777  0.2230 -0.1180
40607W        W49407  10.724   3.346   3.797  0.0173 -0.0356 -0.2010
40608W        W49408   7.646   1.316  15.163  0.1467 -0.1691 -0.0035
40609W        W49409  22.471   5.023  31.042  0.0156  0.0812  0.1956
40610W        W49410   3.440   0.156  28.582 -0.1033 -0.0680 -0.0759
40611W        W49411   1.515   3.423  20.060 -0.1045  0.3231 -0.0362
40612W        W49412   8.319   6.576   5.189 -0.0164  0.0642 -0.0888
40613W        W49413   1.604   5.082   1.824 -0.0399  0.1275 -0.0015
40614W        W49414   1.181   0.391  27.672 -0.0572  0.2236 -0.0760
40615W        W49415   5.107   1.826  22.948  0.5176  0.4651 -0.2590
40616W        W49416  17.521   1.347  22.769  0.0281  0.3094  0.1573
40617W        W49417  10.713   0.748  10.650 -0.0010 -0.0612 -0.1720
40618W        W49418  22.361   7.419  15.991 -0.1961  0.0033 -0.0851
40619W        W49419  24.215   6.748  28.966 -0.0496 -0.1735  0.1346
40620W        W49420  10.041   6.697  11.588 -0.1328  0.0168  0.1107
40621W        W49421  19.800   1.932  27.418 -0.1999 -0.0355  0.0511
40622W        W49422   8.961   6.063   0.850 -0.1555 -0.1601  0.1608
40623W        W49423   3.919   1.654  27.453  0.0228  0.3130 -0.0101
40624W        W49424  19.427   3.663  11.728  0.1547  0.0346 -0.2671
40625W        W49425   1.226   6.776   2.568 -0.0876  0.1446  0.2422
40626W        W49426  20.100   0.623   3.359 -0.0065 -0.0737  0.2866
40627W        W49427  14.304   7.595   2.982 -0.0796 -0.0496 -0.2558
40628W        W49428  19.421   6.153   8.880  0.3470 -0.2500  0.4903
40629W        W49429  15.121   1.656  21.700 -0.2264  0.0256 -0.1034
40630W        W49430  17.467   0.132  11.493  0.2162 -0.1803  0.2684
40631W        W49431  17.175   2.754  22.510 -0.0753  0.1862  0.1330
40632W        W49432  11.298   0.935  16.611 -0.0793 -0.1391  0.3270
40633W        W49433   2.521   5.216  24.022  0.1352  0.2352 -0.2001
40634W        W49434  19.298   2.062  27.248 -0.1114  0.2252  0.3334
40635W        W49435   2.977   7.563  28.383  0.4413 -0.0802 -0.0303
40636W        W49436  19.943   3.147  16.424 -0.0341  0.1671 -0.2875
40637W        W49437   6.297   6.622   9.418 -0.0927 -0.2013 -0.1472
40638W        W49438   6.229   6.576  26.524  0.2419  0.2659 -0.1852
40639W        W49439   6.900   4.274   9.070 -0.0250  0.0334 -0.1780
40640W        W49440   6.437   7.000  29.568  0.3406  0.2190  0.0516
40641W        W49441   4.428   7.318  28.708  0.2614 -0.0193  0.1602
40642W        W49442  22.375   4.585  13.967 -0.0432 -0.2549  0.0913
40643W        W49443   6.245   0.277  16.023  0.1524 -0.5458  0.0877
40644W        W49444  21.054   6.986  11.715  0.0800 -0.2268  0.3166
40645W        W49445   1.942   3.286  27.965 -0.3971 -0.1098  0.0462
40646W        W49446   3.792   5.630   1.807  0.0105 -0.1505 -0.0763
40647W        W49447  18.589   3.389  31.311  0.2635  0.1879  0.3575
40648W        W49448  12.599   3.936   0.797  0.1594  0.1275 -0.0752
40649W        W49449  17.055   0.264   2.918 -0.4260  0.1271 -0.2412
40650W        W49450   5.057   5.409  25.084  0.0923 -0.3334  0.2664
40651W        W49451   4.959   1.399  24.655  0.0592  0.2363  0.0642
40652W        W49452  13.210   5.625   8.300  0.1175  0.0396 -0.2272
40653W        W49453   9.297   4.926   7.840 -0.0908 -0.2313 -0.0157
40654W        W49454   1.920   5.405  27.574 -0.0050 -0.1890 -0.0478
40655W        W49455  15.681   4.484  10.511  0.0961  0.0912 -0.1769
40656W        W49456   6.769   3.550   6.743 -0.2191 -0.1035 -0.2280
40657W        W49457  22.955   3.748  21.709 -0.0340  0.0696  0.1280
40658W        W49458  21.348   5.503  22.544  0.2760  0.0020 -0.1710
40659W        W49459  11.077   6.831  25.849 -0.1328  0.0546 -0.0203
40660W        W49460  14.181   0.008  24.033 -0.0144 -0.1801 -0.1953
40661W        W49461  17.660   6.806  16.914  0.1168 -0.2388  0.0602
40662W        W49462   9.085   2.458  32.314 -0.2765 -0.0319 -0.0058
40663W        W49463   4.389   2.288  20.861 -0.0976 -0.3106 -0.0177
40664W        W49464   7.270   6.098   0.502  0.0191 -0.0603  0.0319
40665W        W49465   0.066   3.600   7.447 -0.1194 -0.0497  0.0712
40666W        W49466   5.967   6.711  28.314  0.1396  0.3584 -0.1985
40667W        W49467  23.750   7.161  27.733 -0.1311  0.1439  0.1369
40668W        W49468   4.430   3.246  20.359  0.0895  0.3967 -0.1273
40669W        W49469   7.535   5.412  22.662 -0.1831 -0.0613 -0.1882
40670W        W49470   1.908   1.775  21.345  0.1958  0.1132 -0.0176
40671W        W49471  24.985   4.569   4.839 -0.1259  0.2936 -0.1998
40672W        W49472  16.637   5.665   0.039  0.0280  0.0514 -0.1323
40673W        W49473  12.047   7.543  29.780  0.0642  0.1216  0.2113
40674W        W49474   7.711   5.976  22.681 -0.0568 -0.0000 -0.1334
40675W        W49475   3.329   1.828  30.660 -0.1835  0.0828 -0.0048
40676W        W49476   7.512   1.148  22.749 -0.2435 -0.1456  0.2579
40677W        W49477  20.460   1.697  31.941 -0.1058  0.0902  0.2832
40678W        W49478  21.692   3.826  28.631 -0.1108 -0.1343 -0.5479
40679W        W49479   2.793   5.017   9.799  0.3116 -0.0582  0.1017
40680W        W49480  13.566   1.810  29.886 -0.0015  0.0727 -0.3774
40681W        W49481  19.796   2.944   1.569 -0.1184  0.0042  0.1624
40682W        W49482   9.163   5.367   9.462  0.0058 -0.1578  0.0307
40683W        W49483   9.497   4.138  24.844  0.2051  0.0611 -0.2662
40684W        W49484  10.082   1.357   2.601  0.0315  0.2960 -0.1517
40685W        W49485  15.233   4.490  23.567 -0.3358  0.1860 -0.0788
40686W        W49486   8.219   7.330  27.155 -0.1616  0.2277  0.0956
40687W        W49487   1.828   0.381  20.607 -0.1678 -0.4371 -0.4181
40688W        W49488  13.681   5.717   8.409 -0.2517  0.2183 -0.2381
40689W        W49489  23.208   3.323   2.197 -0.0111 -0.0791 -0.1589
40690W        W49490  24.622   0.315   6.183  0.1191 -0.0661 -0.3179
40691W        W49491  22.254   2.394   8.457  0.2921  0.0752  0.0991
40692W        W49492  21.822   1.320  10.338 -0.1178 -0.1036  0.2480
40693W        W49493  18.182   2.958   7.247  0.0015 -0.0309 -0.1142
40694W        W49494  16.570   3.304  12.029  0.1842  0.0262 -0.2838
40695W        W49495   0.608   5.560  32.569 -0.2383 -0.2007 -0.1760
40696W        W49496   3.658   5.174  31.634  0.2431 -0.0094  0.0021
40697W        W49497  12.571   0.931  11.135  0.1618 -0.1388  0.0328
40698W        W49498  23.754   7.612  22.533  0.1275  0.0333 -0.1907
40699W        W49499  11.506   1.940  31.824 -0.1300  0.1789 -0.1077
40700W        W49500  16.485   2.826   4.286 -0.0062 -0.0475  0.2856
40701W        W49501   1.793   4.812  20.286 -0.1151  0.2235  0.0576
40702W        W49502  11.960   6.331  24.656 -0.1653  0.1113 -0.1023
40703W        W49503   6.350   4.316  18.469 -0.0822  0.1067  0.1755
40704W        W49504  14.033   3.207   2.466  0.0542 -0.2874  0.1714
40705W        W49505   6.851   2.513  23.440  0.1283  0.2369 -0.1156
40706W        W49506  12.166   5.300   1.698  0.2748 -0.0861  0.3007
40707W        W49507  20.280   1.577  14.875  0.0583 -0.3741  0.1582
40708W        W49508  14.418   4.401  12.796  0.0090 -0.1262 -0.0125
40709W        W49509   7.267   6.730  21.796 -0.0287  0.2084  0.0130
40710W        W49510  17.570   5.549  29.731  0.0675  0.3533 -0.0110
40711W        W49511   6.251   5.596  30.619  0.0062 -0.1137  0.1954
40712W        W49512  25.068   3.052  10.571  0.1047  0.2141  0.2982
40713W        W49513  18.499   0.153   8.706  0.3051  0.2663  0.1135
40714W        W49514  21.161   5.940  14.702 -0.1921  0.1671 -0.1135
40715W        W49515  20.297   2.297   1.246 -0.3454 -0.0955 -0.0694
40716W        W49516  10.108   4.119  27.098 -0.2044 -0.1387 -0.0844
40717W        W49517   1.770   0.126  18.159 -0.3701 -0.1302  0.0348
40718W        W49518  23.197   3.105  26.380  0.0880  0.2448  0.0386
40719W        W49519  18.800   7.834  10.926  0.0549  0.1827 -0.2252
40720W        W49520  15.740   1.715  11.598  0.0610 -0.0235 -0.3581
40721W        W49521  18.840   7.800  26.553  0.3213 -0.0108  0.0471
40722W        W49522  21.874   1.086  12.309 -0.1517  0.0845 -0.1479
40723W        W49523   5.448   3.885  25.336  0.1172  0.0254 -0.1509
40724W        W49524  23.594   5.240  31.855 -0.1619 -0.0235  0.0726
40725W        W49525   5.395   5.396  15.300  0.3263 -0.1796  0.0001
40726W        W49526  15.171   0.284  31.169  0.2758  0.3221 -0.2630
40727W        W49527  23.930   4.369  10.247 -0.0445  0.0860 -0.0551
40728W        W49528  22.010   2.504   3.376 -0.1099  0.1650 -0.1388
40729W        W49529  13.094   6.027  32.270  0.0579 -0.0795 -0.0794
40730W        W49530   5.873   1.016   7.978 -0.0412 -0.1675 -0.0582
40731W        W49531  11.185   4.587  16.704  0.1653  0.0355  0.0545
40732W        W49532  20.813   1.448  32.283  0.1688  0.0696 -0.0784
40733W        W49533   6.074   6.070  29.061 -0.1757 -0.0642 -0.0917
40734W        W49534  18.075   6.935  24.822  0.0998  0.1700 -0.1999
40735W        W49535   1.464   1.897   3.439 -0.1329  0.3156  0.0602
40736W        W49536  24.388   2.064  25.798  0.0066 -0.2698  0.1725
40737W        W49537  15.611   3.640  26.807  0.0466 -0.1054 -0.1013
40738W        W49538  14.106   1.236  31.650  0.1226 -0.1588  0.3502
40739W        W49539  17.110   1.307   1.537 -0.0735  0.1780 -0.0943
40740W        W49540  11.113   1.746  22.860  0.1620  0.0074  0.1635
40741W        W49541  20.307   4.684  16.652  0.0225  0.1723  0.2502
40742W        W49542   4.175   0.970  31.885 -0.0529  0.0747  0.0949
40743W        W49543  19.545   5.174  28.119  0.0551 -0.2074 -0.6059
40744W        W49544  13.629   4.148   7.942 -0.0484 -0.1287  0.0759
40745W        W49545  19.012   1.937   0.384 -0.1866 -0.3672  0.0611
40746W        W49546  24.206   1.728   2.073 -0.1023 -0.2454  0.1213
40747W        W49547   9.715   2.240  22.957  0.0092  0.1581  0.2094
40748W        W49548  12.818   0.919   7.295  0.2005  0.0498  0.0935
40749W        W49549  22.483   0.710  10.328 -0.0059 -0.4072 -0.1574
40750W        W49550   5.142   5.920  19.498  0.1559 -0.1102  0.1362
40751W        W49551  14.128   1.940  31.870 -0.1086 -0.0941  0.0660
40752W        W49552   4.303   2.085   8.172 -0.1939  0.1280 -0.1109
40753W        W49553   7.942   5.058  25.739 -0.3153 -0.1432  0.0444
40754W        W49554   5.078   2.597  27.609  0.2270  0.0479  0.3874
40755W        W49555  14.709   2.662  28.056 -0.1505  0.1908 -0.1216
40756W        W49556   9.721   0.362  27.845  0.0220 -0.1507  0.1096
40757W        W49557  23.607   4.910  21.994  0.0220  0.4699 -0.0108
40758W        W49558  14.463   0.651  21.817  0.1697 -0.2984 -0.1950
40759W        W49559  18.283   4.094   2.495  0.1089 -0.2891  0.0096
40760W        W49560  10.920   6.860  28.372 -0.1871  0.0660  0.0226
40761W        W49561   0.371   3.304   6.705  0.1362 -0.1429  0.2276
40762W        W49562  14.458   3.185   3.777  0.3190  0.0099  0.3283
40763W        W49563   8.423   5.212   2.082  0.0128 -0.0159 -0.1025
40764W        W49564  16.038   5.216   8.121 -0.1225 -0.3377  0.0785
40765W        W49565   2.071   2.689  23.293 -0.2661 -0.0120 -0.4080
40766W        W49566  10.073   0.715  23.556 -0.0029  0.3176  0.0655
40767W        W49567  17.869   0.198  26.107 -0.0165  0.4565 -0.0838
40768W        W49568  22.801   7.024  25.912 -0.0008 -0.3549 -0.0108
40769W        W49569  21.222   6.297   6.037  0.1320  0.3044 -0.1552
40770W        W49570  23.460   0.355  24.332  0.1529 -0.1585  0.0511
40771W        W49571  16.122   5.249   1.494 -0.0378  0.1592 -0.0499
40772W        W49572  18.457   0.067  10.622  0.3415  0.2775  0.0569
40773W        W49573  11.893   2.603  30.234 -0.0987  0.2880 -0.0766
40774W        W49574   6.322   2.973  21.078  0.1749  0.0849 -0.0344
40775W        W49575  11.160   4.498  18.238  0.1425  0.0315  0.2719
40776W        W49576   2.364   6.670   7.726  0.1414 -0.2676  0.1220
40777W        W49577  20.681   6.629   3.601  0.0793 -0.0747 -0.3532
40778W        W49578  15.515   0.578  13.708  0.0272 -0.0376  0.1531
40779W        W49579  24.688   4.416   2.534 -0.0902  0.0903  0.1989
40780W        W49580   8.421   0.767  28.960 -0.0157 -0.1122  0.0409
40781W        W49581  11.670   2.440   9.792 -0.1490  0.1189  0.0864
40782W        W49582  24.101   3.149  12.444 -0.0881  0.0327  0.2077
40783W        W49583  10.505   0.658  25.011 -0.2822 -0.1322  0.0970
40784W        W49584   7.677   3.695  25.440  0.1166  0.0686 -0.2076
40785W        W49585   1.297   5.087   5.128 -0.1920 -0.1839 -0.1361
40786W        W49586   7.558   5.118   7.749 -0.1274  0.0284 -0.0137
40787W        W49587  16.414   7.341   1.841 -0.0172  0.1875 -0.2357
40788W        W49588   2.767   4.389  18.330 -0.3201 -0.0321  0.2745
40789W        W49589  23.486   3.309  29.336  0.2766  0.1251 -0.0892
40790W        W49590   8.943   2.067   2.492 -0.3554 -0.1686 -0.0419
40791W        W49591  14.167   0.203   1.443 -0.0627 -0.2893  0.0798
40792W        W49592   6.794   0.682  14.843 -0.1560  0.0027 -0.0022
40793W        W49593  23.043   0.611   1.730  0.0124 -0.3334  0.4113
40794W        W49594  21.778   5.426   9.224 -0.2726 -0.1212 -0.3548
40795W        W49595   5.243   7.053   5.676 -0.0220  0.0538 -0.1879
40796W        W49596   8.773   0.281  17.875  0.1279 -0.0077  0.1701
40797W        W49597   2.529   7.745  19.649 -0.2862 -0.2096 -0.0696
40798W        W49598   3.574   6.717  27.711  0.0152 -0.0519 -0.0469
40799W        W49599   6.266   4.629   1.929 -0.0955  0.1524 -0.0803
40800W        W49600   5.319   3.640  20.489  0.1740 -0.3030 -0.1346
40801W        W49601  15.771   3.770  24.186  0.4106 -0.2273  0.0979
40802W        W49602  16.516   3.963   5.557 -0.1535 -0.0095 -0.0870
40803W        W49603  17.165   3.837  12.428  0.1655  0.0404 -0.2823
40804W        W49604   8.479   6.396  20.655  0.0765 -0.1165 -0.2235
40805W        W49605   5.335   3.119  19.136 -0.0679 -0.1921  0.1724
40806W        W49606  24.264   2.995   3.611  0.1575  0.1383  0.0378
40807W        W49607  20.060   3.104  15.428  0.0979 -0.1605 -0.0776
40808W        W49608  24.586   6.635  20.861  0.3553  0.1627  0.0614
40809W        W49609  13.396   4.153  29.366  0.1571  0.1756  0.0868
40810W        W49610  22.819   5.255  26.797  0.0559 -0.2726 -0.0608
40811W        W49611  24.975   0.473   5.391  0.1279  0.1881  0.0604
40812W        W49612  17.084   7.342   0.521  0.2365 -0.1038 -0.0709
40813W        W49613   0.801   6.947  19.007 -0.1915 -0.0715  0.0739
40814W        W49614  13.603   2.364  20.867  0.0466  0.1526  0.0205
40815W        W49615   3.977   3.817  26.517  0.1089 -0.0801  0.1717
40816W        W49616  18.076   1.198  24.638 -0.3450 -0.0024  0.0482
40817W        W49617  22.757   3.343   2.645  0.1422 -0.0885  0.2787
40818W        W49618  19.004   5.759  21.990 -0.0650  0.2748  0.2678
40819W        W49619  21.718   4.768   4.466  0.4064  0.3912  0.1031
40820W        W49620  11.284   1.095  28.252 -0.1304 -0.0891 -0.2153
40821W        W49621  21.524   6.304  13.733 -0.1820 -0.1099  0.2101
40822W        W49622   4.922   4.043   8.279  0.1655 -0.2350 -0.3433
40823W        W49623  20.992   1.883  16.707 -0.1090  0.1159  0.0809
40824W        W49624   1.606   7.784  12.358  0.0672 -0.2821  0.1180
40825W        W49625  13.882   2.300   1.555 -0.2266  0.1615 -0.1250
40826W        W49626  13.417   7.574  23.076  0.3173 -0.0248  0.2913
40827W        W49627  18.888   4.496  28.391 -0.1120  0.2656 -0.0657
40828W        W49628   1.169   2.002   3.082 -0.2444 -0.2208  0.3081
40829W        W49629   2.298   3.804  17.232  0.1405 -0.1289 -0.0290
40830W        W49630  19.758   7.799  11.382 -0.1409  0.1972  0.1153
40831W        W49631  22.608   1.533  25.731 -0.1025  0.1104  0.0514
40832W        W49632   1.873   1.860   0.167  0.3307  0.0157  0.0127
40833W        W49633  11.393   5.991   0.713 -0.2739  0.4112  0.0845
40834W        W49634  15.579   2.056   6.696 -0.1132  0.0041 -0.0580
40835W        W49635   6.703   3.391  15.875 -0.1241 -0.0945 -0.0451
40836W        W49636   2.554   1.343   0.122  0.1309  0.1518  0.1041
40837W        W49637   4.118   1.916   7.643 -0.2397 -0.0738 -0.2339
40838W        W49638   3.406   4.288  22.914  0.0346 -0.2766  0.0347
40839W        W49639   3.414   2.974   8.239  0.2560 -0.2211  0.0383
40840W        W49640  11.759   2.320   6.127  0.0548 -0.3579 -0.0882
40841W        W49641   1.155   3.394  19.647  0.0319  0.0426  0.4108
40842W        W49642  12.359   2.700  20.991  0.0890  0.1834 -0.0610
40843W        W49643  15.542   1.698  29.665  0.1490 -0.1734  0.1153
40844W        W49644   4.509   4.539   7.277  0.0744 -0.0824  0.0916
40845W        W49645  11.866   5.253  28.460 -0.1094  0.3744  0.1600
40846W        W49646  14.415   6.512  29.992  0.1817  0.2113 -0.0323
40847W        W49647  21.974   7.069  15.401  0.0492 -0.0091 -0.1010
40848W        W49648  11.201   3.356  30.574 -0.1143 -0.2036 -0.0550
40849W        W49649  24.715   3.237   3.644 -0.0247 -0.2485 -0.1180
40850W        W49650   9.456   2.226   3.411 -0.1859 -0.0289  0.3402
40851W        W49651  15.075   7.182  28.603 -0.0619  0.1161  0.0127
40852W        W49652  11.606   7.073  10.330  0.0305 -0.0512  0.0236
40853W        W49653   4.329   6.112  25.785  0.1669  0.0685 -0.0861
40854W        W49654   8.389   1.771   8.287 -0.2243 -0.0161 -0.3271
40855W        W49655  16.529   4.521   2.252 -0.1942 -0.0070 -0.0314
40856W        W49656  24.993   7.555  32.324 -0.2792  0.0736 -0.0454
40857W        W49657   9.164   5.084  29.130 -0.1727 -0.0404 -0.1280
40858W        W49658   0.787   2.542   5.344 -0.1365  0.2444 -0.1310
40859W        W49659   6.554   4.172   4.328  0.2191  0.4356 -0.0611
40860W        W49660  14.432   4.106  24.832 -0.1180  0.1710 -0.0859
40861W        W49661   7.639   1.769   8.501  0.0395  0.0104 -0.0508
40862W        W49662   3.292   5.811  26.641 -0.0718  0.0384  0.2147
40863W        W49663  10.085   4.403  23.161 -0.0572  0.2493  0.1573
40864W        W49664   5.282   0.865  22.187  0.0422 -0.2460  0.2622
40865W        W49665   5.016   7.526  23.739  0.0779 -0.0759  0.2735
40866W        W49666  21.698   2.490  23.523 -0.0858  0.0683  0.0888
40867W        W49667  16.821   2.992  14.593  0.0153  0.1493  0.3809
40868W        W49668  16.081   5.360  28.870 -0.0503  0.0845 -0.0166
40869W        W49669  14.809   3.856  29.285 -0.2156 -0.0124 -0.0677
40870W        W49670   4.744   1.907  26.010  0.0551 -0.0767  0.1971
40871W        W49671   9.743   3.805   9.243 -0.0815  0.3830 -0.0628
40872W        W49672  24.019   1.180  13.121  0.0622  0.3532  0.1813
40873W        W49673  14.265   2.297  22.718  0.0444  0.2407  0.0675
40874W        W49674  20.608   7.090   7.534 -0.0764  0.0477  0.0845
40875W        W49675   1.067   3.886   2.224  0.0231  0.1013 -0.1956
40876W        W49676  23.359   6.627  29.004 -0.1090  0.0977  0.2820
40877W        W49677   4.628   4.120  20.191 -0.0395  0.0633 -0.1938
40878W        W49678  24.166   2.010  23.969 -0.0959 -0.0647 -0.0256
40879W        W49679   7.162   1.756  32.145 -0.1016 -0.3134  0.0759
40880W        W49680   0.462   3.079  25.599 -0.0206 -0.1350 -0.1392
40881W        W49681   3.441   3.782  26.576 -0.2123  0.0334  0.3600
40882W        W49682  13.458   2.699   8.481  0.0409  0.2114 -0.0285
40883W        W49683   7.898   6.610  16.464 -0.0767 -0.2695  0.0659
40884W        W49684   2.203   6.263  20.444  0.0966 -0.0065  0.0378
40885W        W49685  17.226   1.522  14.671 -0.1689  0.3263 -0.0428
40886W        W49686  22.282   7.439  15.503  0.2334  0.0197 -0.0470
40887W        W49687  18.439   4.115  27.639 -0.1055  0.0268 -0.0627
40888W        W49688   1.036   4.301  21.155  0.1265  0.0089  0.0915
40889W        W49689  20.970   1.405  29.811 -0.0743  0.0603 -0.0630
40890W        W49690   5.206   6.842  22.619 -0.0229  0.3150 -0.0889
40891W        W49691  17.276   0.086  30.575 -0.0659  0.1903 -0.0905
40892W        W49692  19.816   7.063  27.327 -0.0947  0.0042  0.1006
40893W        W49693   9.582   5.357   8.718  0.1992  0.1342  0.2372
40894W        W49694  21.205   6.119  11.678  0.1859  0.2831 -0.2097
40895W        W49695   2.989   1.318  32.444  0.1213  0.0726 -0.1827
40896W        W49696   2.975   2.605  21.926 -0.0224 -0.1133  0.0344
40897W        W49697  15.203   3.811   3.567  0.1923 -0.0337  0.0821
40898W        W49698   9.898   1.156  10.532  0.0983  0.2868 -0.1278
40899W        W49699   1.852   5.454   9.764 -0.0870  0.0915  0.1770
40900W        W49700   3.063   5.960  24.134 -0.2965 -0.0724 -0.1661
40901W        W49701   4.462   3.094   5.533 -0.1807 -0.1457  0.2067
40902W        W49702  24.363   0.849  20.745 -0.2340 -0.3418 -0.0602
40903W        W49703   1.909   7.275  25.371 -0.0378  0.1121  0.2149
40904W        W49704   0.171   4.184  21.064  0.2779  0.1848  0.4003
40905W        W49705   7.097   2.528   7.199 -0.1953 -0.0018 -0.2813
40906W        W49706  17.517   1.639  11.461  0.1465 -0.3260  0.1451
40907W        W49707   3.803   6.646  23.852 -0.0592  0.0074 -0.0387
40908W        W49708   4.423   4.231   3.166 -0.0865  0.1588 -0.1521
40909W        W49709  11.700   2.993  32.272 -0.2509 -0.0037 -0.2099
40910W        W49710  11.066   7.069  18.693 -0.1985  0.0396 -0.2001
40911W        W49711  22.635   4.491  13.427  0.1782 -0.0886 -0.1050
40912W        W49712   8.545   1.579  25.977  0.1929 -0.0978 -0.2516
40913W        W49713  14.709   6.115   4.780 -0.1122 -0.2000  0.2427
40914W        W49714  24.371   6.229   5.688 -0.2677  0.1298  0.3775
40915W        W49715  17.862   6.973   6.335  0.0687 -0.2889  0.0624
40916W        W49716  13.228   0.294   4.236  0.0902 -0.1455  0.0840
40917W        W49717  14.055   4.008   4.076  0.0793  0.1404  0.0581
40918W        W49718   5.713   2.984  10.040 -0.4075 -0.1206  0.0626
40919W        W49719   5.318   7.165  31.693  0.0443  0.1095  0.1388
40920W        W49720  13.786   0.921  28.579  0.2886 -0.0066  0.1381
40921W        W49721  17.076   7.262   3.653 -0.0706  0.1110 -0.1468
40922W        W49722  19.418   5.187  29.945 -0.1330  0.0830  0.1867
40923W        W49723  17.518   5.605  13.515  0.0176 -0.1592 -0.1240
40924W        W49724   7.607   3.171   8.996  0.0445  0.1032  0.0107
40925W        W49725   5.398   2.894  32.540 -0.2405  0.0044  0.1170
40926W        W49726  18.132   1.924  29.341  0.0078  0.1755  0.2055
40927W        W49727  15.019   0.236  10.376  0.0507 -0.1514  0.1305
40928W        W49728   8.016   3.406   5.451 -0.0867 -0.1448 -0.2983
40929W        W49729   4.926   3.407  31.761 -0.0967 -0.2987  0.4450
40930W        W49730   9.876   4.287  24.545 -0.0503  0.2309 -0.0650
40931W        W49731  17.342   7.850  14.174  0.2430 -0.2217  0.0443
40932W        W49732   1.858   7.777  22.872  0.1657  0.4184  0.0160
40933W        W49733  19.333   4.862  26.040 -0.2148  0.1333 -0.1713
40934W        W49734  22.505   0.377   1.108 -0.1357  0.2714 -0.1740
40935W        W49735  15.673   5.762  25.031 -0.1369  0.0975  0.4774
40936W        W49736  22.945   0.410  27.141 -0.0317  0.0267  0.0077
40937W        W49737  12.517   0.955  28.192  0.0733  0.2088 -0.0770
40938W        W49738   9.680   3.820  16.491  0.0081 -0.0885 -0.0511
40939W        W49739  21.053   0.503   7.046  0.0629 -0.0823  0.0263
40940W        W49740  18.840   4.780  29.675  0.1263 -0.0116 -0.1655
40941W        W49741   7.915   5.038  15.706 -0.2624  0.2435 -0.0015
40942W        W49742  21.495   2.796  13.101  0.1214 -0.1013  0.0208
40943W        W49743  21.952   5.637   9.689 -0.1905  0.2680  0.5485
40944W        W49744  16.742   4.001  32.180  0.0086 -0.0458 -0.0032
40945W        W49745   9.238   1.140  22.335 -0.2030 -0.1443  0.2794
40946W        W49746  22.795   3.256   4.481  0.2058 -0.0324 -0.0031
40947W        W49747   0.717   6.291  29.764  0.2480 -0.2311 -0.4148
40948W        W49748  17.100   5.481   1.495 -0.0637 -0.1022 -0.0046
40949W        W49749   4.766   0.413   7.333 -0.2767  0.4225 -0.3300
40950W        W49750  11.738   4.994  24.554 -0.0254  0.3065 -0.0816
40951W        W49751   2.126   6.325  10.966  0.1150 -0.1233  0.0482
40952W        W49752  13.866   5.441  23.091  0.0866  0.0475 -0.1132
40953W        W49753  24.819   4.382  24.245 -0.0400 -0.0298  0.2167
40954W        W49754   3.956   0.551  30.986 -0.0021  0.2132 -0.3415
40955W        W49755  17.328   6.147  26.499  0.3069 -0.1596 -0.0449
40956W        W49756   1.421   5.705  10.774 -0.1269 -0.0572 -0.0030
40957W        W49757  22.485   1.846   4.636  0.1736  0.1547  0.1950
40958W        W49758  16.381   5.043  23.836 -0.0843  0.0249 -0.0759
40959W        W49759  13.897   6.272  11.494  0.3114 -0.1753  0.1129
40960W        W49760   4.604   5.330  26.841 -0.3112 -0.1581  0.0465
40961W        W49761  13.531   3.615  27.739  0.1810  0.0599  0.1273
40962W        W49762  12.965   3.659  27.688 -0.3707 -0.2405 -0.5635
40963W        W49763  18.142   1.695  30.087  0.1861 -0.0975  0.1282
40964W        W49764   2.314   3.711  19.072 -0.0605 -0.2313 -0.2397
40965W        W49765  14.232   0.157  31.111 -0.0670  0.1719  0.2229
40966W        W49766  12.685   3.964   5.044 -0.0724 -0.1882 -0.1168
40967W        W49767   1.898   0.933  32.199 -0.0409  0.0409  0.0160
40968W        W49768   9.914   7.307   1.955  0.1260 -0.0830 -0.1060
40969W        W49769  21.396   6.240  24.518  0.0498 -0.1698 -0.0560
40970W        W49770   0.023   5.329  30.772  0.2691 -0.0685  0.4420
40971W        W49771   4.942   5.142   9.454  0.1159  0.0566  0.0101
40972W        W49772  14.442   7.640  11.181  0.1843  0.0277  0.1314
40973W        W49773   4.637   6.433  10.290 -0.2809  0.1057  0.1020
40974W        W49774  24.954   1.169  22.882 -0.1435  0.3725 -0.1323
40975W        W49775   6.503   3.895  32.414  0.1112 -0.0139 -0.0451
40976W        W49776  12.668   6.668   7.601  0.0958  0.0683 -0.1266
40977W        W49777   7.878   5.859  32.219 -0.0621 -0.0830 -0.2990
40978W        W49778  21.132   0.520  32.076 -0.0023  0.0710 -0.1099
40979W        W49779  21.876   3.683  29.374  0.0350  0.2901 -0.1816
40980W        W49780   9.016   1.632   7.648  0.0186  0.0681  0.1120
40981W        W49781  16.973   5.379   8.810 -0.1395  0.0841 -0.3070
40982W        W49782  23.827   7.708   1.219  0.1579 -0.0131 -0.1279
40983W        W49783   7.327   2.397  24.769  0.1177 -0.0313 -0.0971
40984W        W49784  15.937   6.884  30.033  0.3186 -0.1165 -0.0127
40985W        W49785  17.752   1.876  30.365  0.0170 -0.2903 -0.1139
40986W        W49786  17.874   4.210  16.055  0.1412  0.1404 -0.2030
40987W        W49787  20.890   7.380  29.112 -0.0953  0.3123  0.2000
40988W        W49788  10.703   1.326  22.977  0.2519  0.0249 -0.1441
40989W        W49789   9.306   6.256   1.936 -0.0664 -0.3107 -0.0295
40990W        W49790   0.678   2.843   7.874  0.3527 -0.0636  0.1242
40991W        W49791   3.942   4.196  10.150 -0.2662  0.3534 -0.1546
40992W        W49792   9.596   4.705   4.126 -0.2698 -0.2057  0.1085
40993W        W49793  17.458   0.081   2.698 -0.0467 -0.0809 -0.1424
40994W        W49794   3.553   6.225   6.294  0.2173  0.1603  0.1276
40995W        W49795   5.262   4.434   6.332 -0.1324 -0.3201 -0.1264
40996W        W49796  23.127   4.012   5.035 -0.0599  0.1193 -0.0298
40997W        W49797  10.767   7.600  24.547 -0.1328  0.0415  0.2632
40998W        W49798  10.607   0.751  17.940 -0.0837 -0.0040  0.0062
40999W        W49799   8.414   6.718   2.437  0.0685 -0.3327 -0.1675
41000W        W49800  10.370   2.849  30.538 -0.0187  0.1796  0.1490
41001W        W49801   1.439   0.876  28.462 -0.0086  0.0255 -0.1710
41002W        W49802   8.272   6.086  27.988  0.0078 -0.1434 -0.1367
41003W        W49803   6.124   5.845  15.226 -0.0481 -0.3782 -0.2436
41004W        W49804  24.988   3.406  10.985  0.1810  0.3970  0.0922
41005W        W49805   5.974   2.651  27.629  0.0580  0.1840  0.2318
41006W        W49806  13.892   3.372   9.443  0.0134 -0.3433 -0.1348
41007W        W49807   0.379   4.922   7.012  0.2291  0.0759 -0.1483
41008W        W49808  13.162   3.286   5.034  0.1785 -0.0312 -0.2599
41009W        W49809  23.945   6.509  11.723 -0.1795  0.1547  0.1383
41010W        W49810  10.055   5.771   2.201  0.1172  0.2228 -0.0541
41011W        W49811  13.666   7.616  29.243  0.0416 -0.1237  0.2159
41012W        W49812  22.940   1.587  15.583  0.5154 -0.2504  0.3562
41013W        W49813  10.131   0.896  30.422 -0.0316 -0.3119  0.2522
41014W        W49814  13.878   3.907   9.210  0.0011 -0.0408 -0.1938
41015W        W49815   6.193   5.541  18.626  0.2555 -0.0369 -0.1063
41016W        W49816  19.425   7.153  12.266  0.1044  0.1667  0.1482
41017W        W49817  12.857   0.675  31.103 -0.6138 -0.0884  0.1275
41018W        W49818  23.818   0.466   2.477 -0.0518 -0.1159  0.1934
41019W        W49819  15.076   6.721  24.140  0.2150 -0.2238 -0.0064
41020W        W49820  11.631   2.773   8.938  0.1286  0.5176 -0.0314
41021W        W49821   3.047   1.429   7.346  0.4798  0.0519  0.0117
41022W        W49822  22.345   1.706   1.878 -0.3005  0.1406 -0.3292
41023W        W49823   7.361   1.165   3.651 -0.1352 -0.2069 -0.1990
41024W        W49824  17.617   5.924  16.176 -0.0440 -0.1389 -0.3148
41025W        W49825   3.346   1.936  16.359  0.1253 -0.0789 -0.0721
41026W        W49826  12.411   0.685   8.092 -0.1535 -0.0806  0.3117
41027W        W49827  15.944   4.325   4.640  0.0533 -0.1025 -0.0440
41028W        W49828   0.749   0.353  19.487  0.2418  0.2565  0.3525
41029W        W49829  24.751   1.899   7.929  0.0038  0.0414 -0.0678
41030W        W49830   9.374   6.867   9.729  0.2125  0.2299 -0.0986
41031W        W49831   3.755   7.479  22.702 -0.1793 -0.0455  0.2048
41032W        W49832   0.840   1.958  22.859 -0.0326  0.0547  0.1504
41033W        W49833  20.172   7.534  11.674 -0.1304  0.1919  0.0662
41034W        W49834  15.877   7.494  25.063 -0.1240 -0.2572 -0.0682
41035W        W49835   3.682   4.446  10.559  0.4672 -0.1910  0.2359
41036W        W49836  22.274   6.908   1.071  0.1415  0.4336  0.2834
41037W        W49837   6.616   3.207   6.003  0.0967  0.2667 -0.1837
41038W        W49838  24.268   5.513   6.785 -0.0837 -0.0555 -0.0470
41039W        W49839   7.656   0.026  18.600 -0.2551  0.1005 -0.1109
41040W        W49840  20.822   4.855  16.658  0.2276  0.0090 -0.1428
41041W        W49841  19.362   2.183  25.140  0.2623  0.2563  0.0547
41042W        W49842   7.367   7.426   3.599  0.2058  0.3756  0.1659
41043W        W49843  21.828   0.734  14.580  0.1781  0.0103  0.1183
41044W        W49844  11.235   5.546  32.296  0.0066 -0.0782  0.0178
41045W        W49845  23.466   0.431   8.158  0.2159  0.1910  0.0147
41046W        W49846   8.542   6.291  16.110  0.1478  0.0770 -0.2954
41047W        W49847   2.919   3.205   7.436 -0.1001 -0.0725  0.1972
41048W        W49848  15.159   6.015  26.282 -0.0514  0.1099  0.1377
41049W        W49849   6.053   3.716   6.458 -0.1615 -0.1683  0.2054
41050W        W49850  12.119   3.059  22.231 -0.2406 -0.0244 -0.2145
41051W        W49851   8.718   0.135   6.602  0.0832 -0.2182  0.0925
41052W        W49852  10.672   4.022   8.214  0.0551 -0.2571 -0.2959
41053W        W49853   1.343   4.571  27.922 -0.2550  0.1656 -0.0591
41054W        W49854   2.184   3.716   3.745  0.3587  0.1497 -0.1488
41055W        W49855  20.709   5.918  31.760 -0.2538  0.1560  0.2323
41056W        W49856  12.390   3.111   1.479  0.3414 -0.2559  0.1798
41057W        W49857  19.248   4.012   9.520 -0.2172 -0.0384  0.0686
41058W        W49858  17.979   0.545   6.576  0.2464  0.2203  0.1233
41059W        W49859  11.608   1.937   4.752  0.1784  0.2619  0.2316
41060W        W49860  20.512   5.451  10.796 -0.0038  0.0668 -0.1806
41061W        W49861   6.939   4.070  17.722 -0.1459 -0.0536 -0.1896
41062W        W49862  20.458   1.906  32.447 -0.2389  0.2635 -0.2021
41063W        W49863   9.129   3.561  30.558  0.0112 -0.0842 -0.0375
41064W        W49864   1.746   2.920  28.215  0.1913  0.2276  0.0761
41065W        W49865   7.095   5.761  20.279  0.0928 -0.4109 -0.0182
41066W        W49866   3.273   3.265  11.386  0.0528  0.1817 -0.2266
41067W        W49867  21.562   1.919   2.950  0.3019 -0.4922 -0.1644
41068W        W49868   1.706   1.674   5.008 -0.2878  0.0565  0.0763
41069W        W49869   1.473   3.789  27.120 -0.2063 -0.2440 -0.1380
41070W        W49870   9.617   1.078   7.724  0.2936 -0.0894 -0.0176
41071W        W49871  14.642   5.565  12.017 -0.1095 -0.0992  0.0195
41072W        W49872  18.021   6.580  23.862  0.0022 -0.0155  0.4359
41073W        W49873  11.536   6.031  29.494  0.0910 -0.0560  0.0643
41074W        W49874   2.195   3.265  31.344 -0.1279 -0.5050 -0.1257
41075W        W49875   3.930   2.902  20.335 -0.4000  0.0585  0.1502
41076W        W49876  20.744   1.446   1.428  0.0882 -0.0930 -0.0285
41077W        W49877  11.945   6.565   3.852 -0.3495  0.2768 -0.1091
41078W        W49878   3.637   6.617   7.464 -0.0242 -0.2448  0.0219
41079W        W49879  10.244   7.562   0.190 -0.1104  0.0429 -0.3521
41080W        W49880   9.390   5.999  24.614  0.2433 -0.1259  0.2283
41081W        W49881   1.580   3.238   9.542  0.1574 -0.1172 -0.1007
41082W        W49882  22.551   5.162  22.408  0.0626  0.3522  0.0514
41083W        W49883  14.130   3.583  11.420 -0.0615  0.0490 -0.3056
41084W        W49884  22.743   1.985  14.072  0.1073  0.0429 -0.1161
41085W        W49885  16.565   2.207   7.598 -0.0945  0.2601  0.0744
41086W        W49886  19.556   4.517  32.060 -0.1731  0.3068  0.1817
41087W        W49887  11.779   3.881   8.120  0.2776 -0.0953  0.2228
41088W        W49888  23.589   3.889  24.003 -0.1870 -0.2744  0.0865
41089W        W49889  13.437   3.247  21.795 -0.2118  0.2356  0.0630
41090W        W49890  20.191   7.183  16.997  0.2920 -0.3814  0.0340
41091W        W49891   4.249   1.678  18.685 -0.2277 -0.0024  0.4782
41092W        W49892  20.730   3.005  23.204 -0.0730  0.1630 -0.2178
41093W        W49893  17.695   1.192   7.609 -0.0491 -0.1972  0.0668
41094W        W49894   1.270   6.437  19.150  0.1753 -0.0581 -0.1620
41095W        W49895   0.363   2.997  31.536  0.0817 -0.1578  0.0308
41096W        W49896  16.592   5.839   2.421  0.0666  0.0300 -0.1009
41097W        W49897   6.910   6.443   6.054 -0.2182  0.0198 -0.0842
41098W        W49898   1.002   2.215  11.656  0.1277  0.0865 -0.0338
41099W        W49899  23.574   0.522   4.903  0.2786  0.0455 -0.1560
41100W        W49900  16.534   7.698   4.589  0.3302 -0.1693  0.1986
41101W        W49901   8.598   0.228  22.322 -0.1630 -0.0824  0.3894
41102W        W49902  24.220   7.438  26.826 -0.1197 -0.0763  0.3610
41103W        W49903   7.795   0.012  16.365  0.0851 -0.0135 -0.1870
41104W        W49904   4.713   1.350   7.268 -0.1273  0.0088  0.1509
41105W        W49905   8.765   0.635   3.533  0.1517  0.3599 -0.2568
41106W        W49906   2.980   1.924  17.598  0.0523 -0.0705 -0.0411
41107W        W49907  20.799   0.436   8.414 -0.1275  0.0254 -0.1388
41108W        W49908   1.989   5.303   6.458  0.2547 -0.0890  0.0538
41109W        W49909   5.099   3.927   3.616 -0.3719  0.0335 -0.1044
41110W        W49910  17.636   5.427   2.532 -0.3863 -0.0739 -0.0533
41111W        W49911   4.934   5.338   8.226  0.1592 -0.0092 -0.1543
41112W        W49912  18.421   4.766  23.692  0.2806 -0.0895 -0.2136
41113W        W49913  22.957   6.954  13.374  0.2847  0.1350 -0.1228
41114W        W49914   7.444   4.861  27.341  0.0039  0.0706 -0.1355
41115W        W49915   4.615   6.970  17.214 -0.1276 -0.2172  0.1684
41116W        W49916   7.506   2.569  23.757 -0.1307 -0.0912  0.0238
41117W        W49917  15.683   5.605  30.467  0.1186  0.3385 -0.0063
41118W        W49918  14.951   2.186   9.702  0.0135  0.1624  0.0652
41119W        W49919   8.958   6.957   1.164 -0.0214  0.0443  0.0326
41120W        W49920  23.919   7.550   2.744  0.0567  0.0984  0.2091
41121W        W49921  14.801   1.482  14.717 -0.0472 -0.2751 -0.1695
41122W        W49922  12.313   1.070  30.395 -0.1750 -0.0966  0.2397
41123W        W49923   2.322   5.556   4.581 -0.1631  0.0061  0.4162
41124W        W49924  21.279   6.731  13.505 -0.3293 -0.0808  0.0239
41125W        W49925  13.175   4.672   9.249 -0.0803  0.0951 -0.3203
41126W        W49926  18.770   5.067  11.640 -0.0534  0.0832 -0.2324
41127W        W49927  23.271   0.163  12.498 -0.0424 -0.1086  0.1690
41128W        W49928   0.470   3.267  29.699  0.1240  0.2246  0.0894
41129W        W49929  18.294   4.885  13.825  0.2707 -0.4673  0.2327
41130W        W49930  17.675   4.587  10.809  0.2782 -0.1591 -0.0302
41131W        W49931   7.132   1.040  29.693  0.0888 -0.0178 -0.2390
41132W        W49932  16.112   0.951  14.386  0.1585  0.2171  0.2118
41133W        W49933   3.288   3.424  27.533 -0.0344  0.1343  0.1240
41134W        W49934  11.078   1.150   1.612  0.2711  0.0880 -0.0234
41135W        W49935  24.134   2.199  20.320 -0.1234  0.0632 -0.0123
41136W        W49936  14.397   6.666  15.020  0.1136 -0.1584 -0.0839
41137W        W49937  14.216   6.087   9.708  0.0583 -0.1869  0.1962
41138W        W49938  18.214   0.228   7.320  0.1803  0.0059  0.4203
41139W        W49939   3.019   1.670  20.832 -0.1940 -0.0669 -0.1967
41140W        W49940  21.627   1.645  14.937 -0.2344  0.1624 -0.1999
41141W        W49941  20.225   2.469  24.348 -0.0421  0.1132 -0.0460
41142W        W49942   1.385   0.614  28.001  0.1363 -0.0645  0.0519
41143W        W49943   6.537   3.559  32.065  0.1503 -0.2225 -0.1180
41144W        W49944   3.801   4.559  25.326 -0.2317 -0.0844 -0.1541
41145W        W49945  21.532   6.250  21.486  0.1176  0.0003 -0.1323
41146W        W49946  12.057   7.071  11.726 -0.2597  0.1344  0.0629
41147W        W49947  11.119   6.603  28.790 -0.1335 -0.0564 -0.0309
41148W        W49948   8.746   5.015  17.292 -0.0903  0.4965  0.1323
41149W        W49949  11.283   0.019  27.557 -0.0127  0.2367 -0.1355
41150W        W49950   2.974   1.196  17.112  0.1118  0.0501 -0.1052
41151W        W49951  11.144   2.284  25.831 -0.0186  0.0870 -0.0250
41152W        W49952   9.206   1.758   9.171 -0.0121  0.0380  0.4300
41153W        W49953   1.196   6.291   2.364 -0.1337 -0.1050  0.0873
41154W        W49954  23.451   0.034  32.348  0.0714  0.0389  0.1054
41155W        W49955  21.952   4.979   1.794  0.1498 -0.3241  0.0241
41156W        W49956   0.784   3.718  31.758  0.0983 -0.2978  0.2013
41157W        W49957  18.328   3.031   4.947 -0.0199  0.1305 -0.0900
41158W        W49958   7.375   1.161  26.526 -0.0477 -0.0694 -0.0909
41159W        W49959   2.830   6.920   2.741 -0.2291 -0.1281  0.1587
41160W        W49960  11.154   1.770  24.731  0.0443 -0.2857 -0.4103
41161W        W49961  16.155   4.273   2.453  0.1187  0.0933 -0.1518
41162W        W49962  14.659   1.935   9.101 -0.0897 -0.3695 -0.0084
41163W        W49963  18.911   6.876   7.809 -0.0733 -0.1137 -0.3546
41164W        W49964   4.986   1.167   8.335  0.2607  0.2806 -0.1538
41165W        W49965   7.652   7.182  32.469 -0.0664 -0.1397 -0.1919
41166W        W49966   2.857   0.876  30.074  0.1611  0.2361 -0.1673
41167W        W49967   3.179   6.301  21.431  0.0093  0.0469 -0.1703
41168W        W49968  10.375   4.962  28.927  0.0232  0.1121 -0.0502
41169W        W49969   7.931   4.367  19.830 -0.0118  0.1092 -0.3684
41170W        W49970   4.266   6.428  20.745  0.2436 -0.0462 -0.0459
41171W        W49971  21.195   1.816   4.292  0.2978 -0.0466 -0.0010
41172W        W49972  19.757   0.452  22.666  0.1035  0.3243 -0.3008
41173W        W49973   0.335   1.938  11.573  0.1683 -0.0036  0.0917
41174W        W49974  15.589   1.514  31.817  0.1696 -0.2502  0.0215
41175W        W49975  10.846   1.977  26.698  0.0072  0.0656 -0.1880
41176W        W49976   1.444   4.682  21.417  0.2705  0.0902  0.1168
41177W        W49977  22.174   2.185   2.178 -0.0431 -0.1977  0.1247
41178W        W49978   7.639   4.025  24.377 -0.0380 -0.1680  0.0932
41179W        W49979  24.080   2.380  23.655 -0.3827  0.2069  0.0788
41180W        W49980  16.784   2.897  13.223  0.1442 -0.3111 -0.2984
41181W        W49981  24.408   7.473  23.896  0.0816  0.1654 -0.3078
41182W        W49982  13.145   2.579  21.712  0.1467 -0.1054  0.1977
41183W        W49983  10.533   1.814  21.099 -0.0949 -0.0423  0.1297
41184W        W49984   3.417   3.408  28.825  0.0371 -0.0142 -0.0794
41185W        W49985  17.576   2.096  29.313  0.3478 -0.2365 -0.1023
41186W        W49986  15.920   1.018  25.992 -0.1226  0.0337 -0.0311
41187W        W49987  14.163   4.037  30.545  0.0006  0.1661 -0.2800
41188W        W49988   8.499   6.114   8.602 -0.1238  0.4018 -0.0031
41189W        W49989   7.645   2.905  24.200 -0.3951 -0.0374 -0.0275
41190W        W49990  12.065   4.104  30.426 -0.1263 -0.1852  0.3664
41191W        W49991   3.665   0.751  31.888  0.1120 -0.0510  0.4723
41192W        W49992   0.616   3.566  10.137  0.2728 -0.2596  0.2695
41193W        W49993   7.239   3.504  25.659 -0.0090 -0.0807  0.3831
41194W        W49994   4.215   7.667  25.799 -0.1748 -0.1116 -0.3074
41195W        W49995  15.753   7.474   0.363 -0.0716  0.2409  0.1702
41196W        W49996  21.328   3.227   4.404  0.2276 -0.0052  0.0038
41197W        W49997  15.721   4.139   1.573  0.0531 -0.0048  0.2541
41198W        W49998  14.586   0.294   1.185  0.0951 -0.1352  0.1314
41199W        W49999   9.911   4.525  25.934 -0.0687 -0.0588 -0.0699
41200W        W50000  24.623   7.042  28.802  0.2291  0.1685 -0.0662
41201W        W50001   3.194   3.924   1.715 -0.0751 -0.0707  0.0294
41202W        W50002   8.941   6.364  22.492  0.0362  0.0741 -0.0215
41203W        W50003  22.542   2.949   8.295  0.2506 -0.1382 -0.3056
41204W        W50004  23.974   2.451  22.371 -0.2283 -0.2434 -0.1645
41205W        W50005  11.570   7.624  17.130 -0.0430 -0.0939  0.1276
41206W        W50006  12.366   6.626  22.824 -0.1854 -0.0519  0.0570
41207W        W50007  19.207   1.313  30.854 -0.1728 -0.0922 -0.1666
41208W        W50008   6.424   2.325  25.048 -0.1450  0.2002 -0.1960
41209W        W50009  22.036   3.490  31.815 -0.3001 -0.1246  0.2401
41210W        W50010   7.080   1.577  29.387  0.1052  0.3299 -0.1638
41211W        W50011  24.078   3.982   3.888 -0.1857 -0.1400  0.0018
41212W        W50012   2.935   6.361  10.013  0.1873  0.0327 -0.0076
41213W        W50013   6.850   5.786  21.351 -0.1717 -0.1571  0.2440
41214W        W50014  18.483   6.972  23.201  0.0597 -0.0657 -0.1635
41215W        W50015  15.571   7.503   4.646 -0.1493  0.0976  0.1645
41216W        W50016  15.532   1.857  31.492  0.0096  0.2450  0.1936
41217W        W50017  24.218   3.821  26.894  0.0513  0.0197 -0.1991
41218W        W50018  22.577   0.189   3.141 -0.5646 -0.0940  0.0584
41219W        W50019  15.337   3.838  29.550 -0.1570 -0.2261 -0.3035
41220W        W50020   6.922   3.522  26.928  0.0143 -0.0078 -0.1171
41221W        W50021   9.937   2.051   2.462 -0.0779  0.0228  0.1169
41222W        W50022  11.299   2.753  21.808 -0.1385 -0.2108  0.2098
41223W        W50023  19.765   5.114   3.027 -0.1077  0.0371 -0.2226
41224W        W50024   5.379   3.016   7.066  0.2639 -0.2568  0.0247
41225W        W50025  14.270   1.227   3.207  0.2691 -0.0210 -0.0173
41226W        W50026  24.798   5.284  11.915 -0.1570  0.0704 -0.3152
41227W        W50027   6.841   6.365   4.764 -0.1573  0.1313 -0.0765
41228W        W50028   6.245   3.854   0.703 -0.0284  0.0176 -0.2097
41229W        W50029   2.303   7.630  21.878  0.0486  0.1722  0.0820
41230W        W50030  14.894   6.592  12.600  0.0621  0.3839 -0.1253
41231W        W50031   8.438   1.496  30.667  0.2759 -0.1522  0.0700
41232W        W50032   4.610   7.493  18.490  0.1944 -0.1694  0.2108
41233W        W50033  11.599   7.141   4.477  0.0111  0.2500  0.2008
41234W        W50034   6.842   2.420  30.058 -0.0077 -0.0770  0.0540
41235W        W50035  19.146   7.243  31.048  0.0534  0.1432 -0.1719
41236W        W50036   7.695   1.697   0.116 -0.1790  0.4345  0.3745
41237W        W50037   0.066   5.572   8.983 -0.0912 -0.0064 -0.0173
41238W        W50038  15.689   6.701   1.741  0.1562  0.1494  0.0635
41239W        W50039  20.865   0.913  11.323  0.0229 -0.1328  0.1947
41240W        W50040   3.542   7.154  23.889 -0.0937  0.0396  0.1444
41241W        W50041  17.645   6.825   5.119 -0.0601  0.3157 -0.3897
41242W        W50042   4.595   7.347   2.794  0.3526  0.1202  0.3212
41243W        W50043  13.500   4.311   9.295  0.0746 -0.0791  0.0962
41244W        W50044   4.685   4.789   2.374 -0.1904  0.2281 -0.0460
41245W        W50045   9.220   7.764  16.054  0.5245 -0.1122 -0.1495
41246W        W50046   2.647   1.526  17.369  0.1002 -0.0745  0.2160
41247W        W50047  23.929   3.836  26.489 -0.2240 -0.3707 -0.0691
41248W        W50048   6.761   6.811   5.078 -0.2636  0.0098  0.0677
41249W        W50049   6.714   2.279  14.586 -0.0301 -0.0582  0.2301
41250W        W50050  10.290   0.549  19.622 -0.3687  0.0483 -0.1740
41251W        W50051   1.042   2.709   7.480 -0.2328  0.3985  0.3749
41252W        W50052  13.498   1.073  23.950 -0.0806 -0.1219  0.1685
41253W        W50053   0.980   6.444  25.478 -0.0949  0.0027 -0.0438
41254W        W50054   2.159   6.978   7.393  0.0436 -0.2226 -0.3894
41255W        W50055  12.997   7.703   3.924 -0.2026  0.1082  0.1542
41256W        W50056  10.842   7.754   3.058 -0.0655 -0.0080 -0.2824
41257W        W50057  16.565   6.963  15.047 -0.0076  0.0909  0.0046
41258W        W50058  15.528   6.068   5.665 -0.1153 -0.0131  0.1958
41259W        W50059  18.980   3.893   8.593  0.2880  0.0974  0.1032
41260W        W50060  13.477   7.351   1.902 -0.3017 -0.1815 -0.1226
41261W        W50061  24.233   2.566   8.539 -0.1108  0.2341 -0.0343
41262W        W50062   0.598   6.928  24.780 -0.1560  0.0100  0.2546
41263W        W50063  15.154   2.305   3.612 -0.0282 -0.0425 -0.0337
41264W        W50064  24.452   7.108  12.482  0.2513 -0.2137 -0.0056
41265W        W50065   6.443   5.261  24.993 -0.0932  0.4600 -0.1828
41266W        W50066  22.230   6.025  31.158  0.0668 -0.0750 -0.1478
41267W        W50067  13.781   3.697  21.097 -0.2650 -0.0382  0.2226
41268W        W50068  15.080   1.797  28.266  0.0784  0.1014 -0.0756
41269W        W50069  23.085   3.391   9.578  0.1313 -0.0880 -0.1099
41270W        W50070  22.553   0.199   1.577  0.0579 -0.1862  0.0186
41271W        W50071   4.065   6.003   8.805 -0.1060 -0.0205 -0.2111
41272W        W50072   1.391   5.258  23.896  0.2326 -0.1583  0.3094
41273W        W50073  15.601   7.777  29.435 -0.2141  0.2152  0.1063
41274W        W50074  15.519   5.848   2.078 -0.0523 -0.2907  0.0751
41275W        W50075  12.842   0.544   4.541  0.1595  0.0094  0.2207
41276W        W50076  10.103   2.909   3.383 -0.1105  0.0690 -0.1370
41277W        W50077   8.888   0.277  30.160 -0.1282  0.0132  0.1034
41278W        W50078  14.599   6.161   3.549  0.3419  0.0315 -0.0275
41279W        W50079   8.167   2.210  16.057  0.0016 -0.0934  0.1278
41280W        W50080   3.645   2.286  16.918  0.1556  0.0228  0.1200
41281W        W50081  21.302   4.038  25.723 -0.2735 -0.0092 -0.1361
41282W        W50082   9.575   6.101  15.311 -0.3430  0.1192  0.1056
41283W        W50083  13.921   6.069  21.948 -0.0290 -0.2183  0.3071
41284W        W50084  22.861   6.293  24.127  0.1976 -0.0272  0.3232
41285W        W50085  21.911   6.543  31.638 -0.0717  0.0675  0.2803
41286W        W50086  22.857   5.690   5.858 -0.0926  0.1378  0.1939
41287W        W50087  10.874   4.207  26.075  0.1406  0.2104 -0.0479
41288W        W50088  21.234   0.140  28.528  0.5006  0.0533 -0.1729
41289W        W50089   5.008   4.778   7.320  0.2166 -0.0771 -0.1062
41290W        W50090  22.578   3.199   8.736  0.2310  0.1117  0.1662
41291W        W50091  13.314   4.310  31.697 -0.2315  0.4097  0.0924
41292W        W50092   7.373   7.261  29.038  0.0480 -0.1701 -0.1286
41293W        W50093  20.085   1.925  31.199 -0.1516  0.1486  0.0137
41294W        W50094  24.089   3.371  32.180  0.1564  0.1295 -0.2180
41295W        W50095  22.560   7.515   3.001 -0.1987  0.1347 -0.2118
41296W        W50096  13.173   1.151  30.341 -0.0260 -0.0248 -0.0783
41297W        W50097   3.839   7.515  11.353  0.0301 -0.1646 -0.2483
41298W        W50098   8.986   1.247  23.889 -0.3055  0.1945 -0.0486
41299W        W50099  15.121   1.176  30.752 -0.1075 -0.0899 -0.0487
41300W        W50100  22.958   4.849  28.469 -0.1108  0.1222  0.2054
41301W        W50101  20.386   5.268  12.185 -0.1392  0.2532  0.1067
41302W        W50102   3.938   5.269  28.189  0.0511  0.1088  0.0314
41303W        W50103  16.838   6.256   8.331 -0.2014 -0.1817 -0.1145
41304W        W50104   8.077   7.050  15.156 -0.0326  0.1466  0.0392
41305W        W50105  20.651   7.689  16.003 -0.2570 -0.0512 -0.3433
41306W        W50106   9.886   0.565  29.129 -0.2294  0.0432  0.3868
41307W        W50107  25.004   3.706  21.490  0.1323  0.1570  0.2228
41308W        W50108  22.984   4.482  13.975  0.1736  0.1526  0.1595
41309W        W50109  15.107   0.489   1.317 -0.0464 -0.0919 -0.1876
41310W        W50110   6.248   6.297  16.125 -0.0899  0.3232 -0.1580
41311W        W50111   4.067   5.505   9.700 -0.0084  0.0946 -0.0634
41312W        W50112  24.415   6.869   7.523 -0.1411  0.2690  0.2309
41313W        W50113  17.946   2.475   1.469  0.2718  0.1789  0.0590
41314W        W50114   4.458   2.930  27.134  0.0753  0.2276 -0.0129
41315W        W50115  10.051   3.783  28.094 -0.1174 -0.2822  0.1011
41316W        W50116   5.756   2.397  20.547 -0.0313 -0.0254  0.0243
41317W        W50117   0.051   4.152  21.588 -0.4095 -0.1089 -0.2747
41318W        W50118  18.456   1.382   7.536  0.0185  0.1365  0.0981
41319W        W50119   6.427   7.253  31.039  0.0894 -0.0215 -0.5573
41320W        W50120  24.784   3.567   8.946  0.0652 -0.0889  0.2403
41321W        W50121  24.416   1.575   8.053  0.1069 -0.0842  0.0586
41322W        W50122  14.981   2.786  12.075 -0.1797  0.3105 -0.2605
41323W        W50123  25.139   2.714  20.727  0.4333 -0.2536  0.5838
41324W        W50124  18.884   2.061  25.658 -0.2054  0.0061 -0.0816
41325W        W50125   6.217   1.801  22.697  0.0372  0.3160  0.3000
41326W        W50126   3.653   6.155  17.604 -0.2283 -0.2681  0.1992
41327W        W50127   7.578   7.199  25.076  0.0805 -0.0808 -0.2411
41328W        W50128  14.471   6.068  11.996 -0.2477  0.0780 -0.1161
41329W        W50129   0.268   5.773  25.495 -0.2549  0.2117  0.1880
41330W        W50130   8.045   1.344   9.361  0.0699  0.0637 -0.0800
41331W        W50131   9.049   7.224  18.049 -0.0317 -0.0696 -0.1826
41332W        W50132  13.403   3.388  22.292 -0.0816 -0.3018 -0.3823
41333W        W50133   2.045   1.011  24.270  0.0191 -0.1845  0.0133
41334W        W50134  18.598   6.735   9.020  0.1862  0.2380  0.3024
41335W        W50135  17.027   0.629   3.911 -0.1186 -0.2193  0.1272
41336W        W50136  12.570   6.698  26.603 -0.1437 -0.0928 -0.0991
41337W        W50137  11.889   3.940  20.892  0.0205 -0.0311  0.0425
41338W        W50138  19.056   6.349  30.010 -0.0207  0.1464 -0.2915
41339W        W50139  17.198   4.477   5.884 -0.0073 -0.5133 -0.0813
41340W        W50140  15.479   5.756  14.951  0.1600 -0.1299  0.0559
41341W        W50141   0.202   1.782   1.236  0.0166  0.0429  0.2090
41342W        W50142  17.515   1.694   6.702  0.0335  0.3156  0.0810
41343W        W50143   3.841   5.220   0.637 -0.1832 -0.1215 -0.1035
41344W        W50144  16.772   4.075  14.262 -0.1307 -0.0961  0.0910
41345W        W50145  18.414   6.921   7.746  0.0617 -0.0607 -0.3262
41346W        W50146  16.343   5.335   5.144 -0.3735 -0.0926  0.1283
41347W        W50147  13.622   4.394   3.436 -0.1540 -0.1372 -0.0650
41348W        W50148   8.106   5.565   7.806  0.0810  0.0901 -0.2388
41349W        W50149   0.860   4.866   7.023  0.1092  0.0160 -0.1438
41350W        W50150  17.685   4.366  26.498 -0.0060 -0.1045 -0.1242
41351W        W50151  21.021   6.127  24.251  0.2709  0.0470  0.1281
41352W        W50152  18.194   1.686   5.297 -0.0261  0.0787 -0.0709
41353W        W50153  22.390   6.241  21.505  0.0676 -0.3997 -0.0226
41354W        W50154  16.938   1.100   8.507 -0.0243  0.0688 -0.5004
41355W        W50155   9.399   6.537  24.075  0.2231 -0.1404 -0.1808
41356W        W50156  11.435   5.673  18.741  0.0594  0.1458  0.1102
41357W        W50157  12.381   5.823  26.581  0.2528  0.2901  0.0881
41358W        W50158   0.838   0.534  27.211  0.0995  0.0831 -0.1312
41359W        W50159  19.905   4.225   8.883 -0.0152  0.2378  0.1632
41360W        W50160  23.282   1.059   3.690 -0.1378  0.0768 -0.0595
41361W        W50161  22.407   6.930  31.020 -0.1139  0.3813 -0.0985
41362W        W50162   4.517   7.734   5.423  0.2417 -0.0622  0.0601
41363W        W50163   1.697   0.041  10.586 -0.0060  0.1520  0.2102
41364W        W50164   2.210   7.443  29.932 -0.3541  0.0042  0.0443
41365W        W50165   6.960   2.531   8.731  0.1281  0.1303  0.0927
41366W        W50166  20.828   0.350  15.292  0.0135 -0.1932 -0.0962
41367W        W50167  18.993   5.130  30.684  0.1373  0.1344  0.2153
41368W        W50168   4.440   3.162  17.690  0.4823 -0.0082 -0.3234
41369W        W50169  15.470   7.500  12.750 -0.0117  0.2537  0.0687
41370W        W50170   1.550   3.664   0.245 -0.0005 -0.0213  0.1558
41371W        W50171  16.832   6.903   8.781 -0.2051  0.0173 -0.1313
41372W        W50172   7.223   0.147  14.700  0.1880  0.0358 -0.0929
41373W        W50173  22.789   1.676  22.311 -0.1185 -0.3551  0.0406
41374W        W50174   7.320   6.302  28.665 -0.1129  0.1225  0.1745
41375W        W50175  12.862   2.892  31.204  0.2359 -0.0751 -0.1577
41376W        W50176   0.989   5.138   3.318  0.1909  0.1903 -0.3271
41377W        W50177  15.183   7.714  29.630 -0.2448 -0.2579  0.1119
41378W        W50178  10.864   2.651  10.596  0.0894 -0.1662  0.2942
41379W        W50179   2.516   1.127  19.613  0.0493  0.0630 -0.3030
41380W        W50180  18.936   6.598   5.628 -0.3412 -0.0615  0.2088
41381W        W50181  20.931   6.468  11.440  0.1042 -0.0773  0.3058
41382W        W50182  24.765   5.272   4.277 -0.2999 -0.2005 -0.0375
41383W        W50183  17.539   1.096   9.629 -0.2541 -0.0995  0.1228
41384W        W50184  21.849   4.364  14.087  0.0710  0.1101 -0.1558
41385W        W50185   7.501   2.999  26.715 -0.0148 -0.1145  0.0366
41386W        W50186  14.629   4.497  11.431 -0.0077  0.0988 -0.0303
41387W        W50187  19.969   4.703   8.123  0.1127  0.1991 -0.0252
41388W        W50188  23.900   1.209  28.952  0.2192  0.1560 -0.0687
41389W        W50189   1.862   1.788  23.149 -0.0832  0.0125  0.3881
41390W        W50190   3.380   7.365   2.797 -0.0137 -0.0351  0.0161
41391W        W50191  12.648   7.227  28.690  0.0468 -0.1990 -0.0678
41392W        W50192  22.276   1.696  29.859  0.0076 -0.2220  0.2281
41393W        W50193   6.916   5.183  18.429 -0.0761 -0.1805 -0.1488
41394W        W50194   7.638   6.127   7.613  0.1738 -0.0805 -0.1528
41395W        W50195  20.888   0.722  14.962  0.0756  0.3575  0.1110
41396W        W50196   5.560   3.402   1.450 -0.4022 -0.0627  0.0853
41397W        W50197   1.436   4.080   3.648  0.1275 -0.1480  0.1262
41398W        W50198   5.745   0.650  24.818 -0.1953  0.0174  0.4282
41399W        W50199  24.693   2.731   8.365 -0.0364  0.0094  0.0264
41400W        W50200   1.479   7.610  19.581  0.1399  0.2320 -0.1647
41401W        W50201   5.126   2.665  28.146  0.3456  0.0442  0.0275
41402W        W50202  22.425   6.826  10.670  0.2352 -0.1683 -0.0433
41403W        W50203   1.028   3.254   3.159  0.1737 -0.0034  0.2948
41404W        W50204  14.552   3.223  21.559  0.0886 -0.5215  0.0636
41405W        W50205  24.095   6.091   8.723  0.0411 -0.2415 -0.0852
41406W        W50206   4.235   1.230   2.282  0.2716 -0.2016  0.1290
41407W        W50207  20.186   7.163   2.871  0.0210  0.0314  0.1302
41408W        W50208  15.604   3.704  13.436 -0.0012 -0.0302 -0.1663
41409W        W50209   2.919   0.671  22.965 -0.2035 -0.1171 -0.2652
41410W        W50210   2.343   5.513  25.670 -0.0579 -0.1780 -0.0656
41411W        W50211   8.924   5.448  16.418 -0.0888  0.0104  0.0809
41412W        W50212  21.593   5.043   4.089 -0.2451 -0.1397  0.0228
41413W        W50213   0.806   4.509   4.686  0.2209  0.0390 -0.4522
41414W        W50214  20.730   4.517  22.907  0.0866  0.1065 -0.3294
41415W        W50215   3.298   7.305  24.857 -0.0138 -0.2127 -0.4965
41416W        W50216   9.028   7.241  22.459 -0.2327 -0.1903  0.1421
41417W        W50217   5.101   0.070  18.539 -0.0694  0.1556 -0.0821
41418W        W50218   7.639   6.884   0.779 -0.2020  0.1304 -0.1351
41419W        W50219  11.109   1.724  19.129 -0.2199  0.0538 -0.0614
41420W        W50220   3.387   5.122  27.303 -0.2423  0.1319 -0.0011
41421W        W50221  20.454   5.227   0.791 -0.0880  0.1697  0.3423
41422W        W50222  14.049   4.018  21.454 -0.1406 -0.0647 -0.0289
41423W        W50223  13.678   7.542   8.069 -0.1881  0.0538 -0.0488
41424W        W50224  14.317   4.883  31.675 -0.1476  0.1679  0.2570
41425W        W50225  20.458   2.307  15.382  0.2377  0.1356  0.0567
41426W        W50226  13.597   4.817   4.085 -0.3295 -0.3788  0.1458
41427W        W50227  18.928   1.033  32.525 -0.1743  0.0352 -0.2463
41428W        W50228   4.590   2.083   7.736  0.0567  0.2052 -0.1431
41429W        W50229  16.744   3.041   1.886 -0.0206  0.0616  0.3375
41430W        W50230  19.248   6.636  26.481 -0.1590  0.1245 -0.0452
41431W        W50231  11.167   0.959   8.343 -0.0061  0.1337 -0.0659
41432W        W50232  11.054   6.521  30.501 -0.0369 -0.1088  0.1914
41433W        W50233  18.141   1.441  14.949 -0.0817  0.0557 -0.1561
41434W        W50234  15.090   1.303  23.959  0.0280 -0.0340  0.0322
41435W        W50235  14.822   5.907  13.914 -0.0568  0.1751  0.0595
41436W        W50236  23.688   2.199  10.220  0.0834  0.4010 -0.0318
41437W        W50237  24.719   0.086   4.373 -0.0350 -0.1078 -0.1634
41438W        W50238  12.730   2.991   6.804 -0.2385 -0.1413 -0.0656
41439W        W50239  22.485   3.223   7.186 -0.0366 -0.1041 -0.1101
41440W        W50240   3.739   1.407  22.046  0.1547  0.0321  0.1089
41441W        W50241  19.185   0.914   9.274 -0.1626  0.1126  0.1301
41442W        W50242   1.043   7.854   7.654 -0.2853 -0.0558 -0.4346
41443W        W50243   3.987   5.228  21.153 -0.0534 -0.0521  0.0296
41444W        W50244   5.396   0.154   0.644  0.1756 -0.0363  0.0542
41445W        W50245  22.325   6.371   0.021 -0.0064 -0.0588 -0.1017
41446W        W50246  10.315   0.501   7.420 -0.0228  0.0943  0.3786
41447W        W50247  19.752   4.679  13.870  0.1462 -0.1221 -0.2554
41448W        W50248   6.126   3.695  27.498  0.0784  0.0703  0.0116
41449W        W50249   6.927   3.927  22.406  0.2684 -0.3700  0.1491
41450W        W50250   8.226   5.578  16.971 -0.1826  0.1132 -0.2809
41451W        W50251  19.281   7.602  24.735  0.0839  0.0113 -0.0613
41452W        W50252   4.611   2.370  19.698 -0.1178 -0.0776  0.4225
41453W        W50253  12.350   0.386   4.583  0.2100 -0.1497 -0.0665
41454W        W50254   5.310   6.617  17.119 -0.0980  0.0200 -0.0766
41455W        W50255  14.219   0.156  12.540  0.3825  0.0237  0.0149
41456W        W50256  18.271   2.872   6.174 -0.3209 -0.0817 -0.4888
41457W        W50257   6.545   2.773   9.565  0.2429 -0.2091 -0.1103
41458W        W50258  24.452   4.696   9.326  0.0625 -0.0551 -0.3508
41459W        W50259  22.319   7.706  15.042 -0.1912  0.1293 -0.1642
41460W        W50260  23.069   6.320   0.004  0.1951 -0.3470 -0.0462
41461W        W50261  18.605   4.580   6.330 -0.3441  0.0411  0.1222
41462W        W50262   8.050   5.164  23.797  0.0860  0.2319 -0.3393
41463W        W50263  23.977   4.238   2.206  0.2275 -0.1261  0.1778
41464W        W50264  16.246   2.840   1.876  0.0402 -0.0054 -0.4195
41465W        W50265   9.196   1.253   0.010  0.1037  0.1103 -0.1270
41466W        W50266  15.846   6.716  22.490 -0.1852  0.0340 -0.2624
41467W        W50267  15.410   2.869   7.968  0.0890 -0.0287  0.1024
41468W        W50268  25.086   2.684  12.458 -0.0065 -0.1386 -0.1563
41469W        W50269   5.406   4.061   8.376  0.0330 -0.1448  0.0861
41470W        W50270  12.225   0.489  27.543  0.0046  0.0488 -0.1368
41471W        W50271   4.168   3.028  18.906 -0.2645  0.1992  0.0132
41472W        W50272  20.960   6.247  10.525  0.0292  0.0896  0.0328
41473W        W50273  13.289   2.414  31.612  0.2058  0.0872 -0.0270
41474W        W50274  12.356   7.033   5.250 -0.0014  0.1157 -0.0770
41475W        W50275   2.422   7.823   1.606  0.2513  0.0896  0.1471
41476W        W50276  22.814   4.103   0.078 -0.1408 -0.1046  0.0334
41477W        W50277  17.562   3.139  11.260  0.0494 -0.1791 -0.0278
41478W        W50278  16.187   4.626   9.530  0.3069 -0.1643 -0.0575
41479W        W50279  20.894   5.406  12.243  0.0690 -0.1548 -0.0487
41480W        W50280   8.924   3.826  32.088 -0.1052 -0.2293  0.0536
41481W        W50281  22.122   0.865  11.659 -0.0629 -0.1726  0.0294
41482W        W50282  14.004   0.838  12.215  0.4330 -0.0241 -0.0205
41483W        W50283  16.387   4.536  28.646 -0.0207  0.1106  0.0921
41484W        W50284  24.114   2.895   3.089 -0.1498 -0.0649  0.0502
41485W        W50285   8.316   1.576   5.026 -0.0714  0.0719 -0.1119
41486W        W50286  19.885   4.224  15.790  0.1404  0.1268 -0.0805
41487W        W50287   9.232   6.194  16.746  0.1014  0.0406  0.2983
41488W        W50288   7.273   7.734  26.665 -0.2260 -0.1653 -0.1024
41489W        W50289  13.782   7.780   0.765  0.1453 -0.0459  0.0202
41490W        W50290  23.185   1.437   6.701  0.1253  0.2067 -0.0878
41491W        W50291  16.850   1.961  15.983 -0.1198  0.1551  0.1572
41492W        W50292  12.549   7.130  27.091  0.1736  0.3281 -0.0634
41493W        W50293   9.622   4.228  27.309  0.2334  0.0430 -0.1209
41494W        W50294  18.197   7.072  31.644  0.1672 -0.0865  0.1773
41495W        W50295  18.435   5.072  24.536  0.0637 -0.0900 -0.0693
41496W        W50296   2.535   7.481   9.253  0.0762  0.1494 -0.0929
41497W        W50297   4.486   5.088  21.878  0.1913  0.1110  0.2011
41498W        W50298   7.384   4.124   9.250 -0.1462 -0.3680  0.0863
41499W        W50299  24.314   3.995   5.979  0.0363  0.0309  0.0157
41500W        W50300  24.998   0.411   0.492  0.1231 -0.1716 -0.0973
41501W        W50301   7.171   7.298  21.872 -0.1169 -0.1223 -0.0018
41502W        W50302  10.617   3.894   2.435 -0.2134  0.3020 -0.0369
41503W        W50303  22.421   0.628  28.184  0.1823  0.1480  0.0518
41504W        W50304   9.564   2.825  17.601 -0.0911 -0.3237  0.1307
41505W        W50305   5.112   2.245  26.006 -0.3130  0.0835  0.1695
41506W        W50306   8.305   3.287  15.662  0.1208 -0.1273  0.0911
41507W        W50307  14.607   0.342   3.377  0.0353  0.1372 -0.0402
41508W        W50308   9.251   5.179  31.499  0.0665  0.3264  0.1137
41509W        W50309   1.661   5.534   2.654  0.1020  0.1093 -0.1445
41510W        W50310  21.373   3.485   1.040  0.2788  0.1858 -0.0990
41511W        W50311  12.229   1.090  21.954 -0.0309  0.0336  0.0498
41512W        W50312  12.753   3.861  29.376  0.1142  0.0810 -0.0918
41513W        W50313  10.939   7.549  24.054 -0.0420 -0.0939 -0.1905
41514W        W50314   4.935   6.390   1.250 -0.0312  0.2248  0.0913
41515W        W50315  22.450   4.996  23.835 -0.2414 -0.2453  0.3280
41516W        W50316   1.086   0.352   8.598 -0.1443 -0.1068  0.0544
41517W        W50317  15.051   6.375  23.045  0.1794  0.2763  0.0658
41518W        W50318   9.575   7.144  20.201  0.0842 -0.0178  0.1590
41519W        W50319   1.693   6.185  10.806  0.1504 -0.0573 -0.0956
41520W        W50320  22.738   7.771   8.810 -0.1260  0.0720  0.1186
41521W        W50321   3.519   1.003   7.746  0.2722  0.0070 -0.2975
41522W        W50322  12.088   2.740  21.860 -0.0965 -0.0133  0.2720
41523W        W50323  21.517   3.732  10.823  0.2672 -0.1229 -0.0342
41524W        W50324   3.087   5.871   2.718  0.0157 -0.1336  0.3489
41525W        W50325  10.243   7.324  16.195  0.0649  0.1207  0.0715
41526W        W50326  24.308   6.317  13.898 -0.0394 -0.2289 -0.0857
41527W        W50327  17.511   0.462  25.254 -0.0271  0.1177  0.1895
41528W        W50328  11.658   2.002   1.021  0.0334 -0.1423 -0.1358
41529W        W50329  13.862   4.462   1.271  0.0913  0.0920  0.1073
41530W        W50330  19.695   3.016  31.722 -0.1355  0.0415  0.4155
41531W        W50331   9.397   0.849  25.704  0.2308 -0.1809 -0.0383
41532W        W50332  13.737   2.092  26.318 -0.1871  0.1692 -0.0970
41533W        W50333   0.056   4.419   7.925  0.0370  0.2692  0.2476
41534W        W50334  13.582   1.723   6.189  0.1555 -0.3807 -0.0506
41535W        W50335  22.346   6.257   1.265 -0.3550  0.0194 -0.0288
41536W        W50336  12.419   1.195  24.200  0.0328 -0.0310 -0.1272
41537W        W50337  20.174   2.138  14.914 -0.0839 -0.1440 -0.0856
41538W        W50338  16.223   2.643  28.675  0.1664 -0.1649 -0.1286
41539W        W50339  18.112   6.181  14.465 -0.0049  0.1776  0.2498
41540W        W50340  14.375   1.698  24.885  0.0531 -0.0632 -0.0728
41541W        W50341   7.392   2.758  20.366 -0.0578  0.1297  0.2051
41542W        W50342  10.744   7.177   7.788 -0.1261 -0.1258  0.1830
41543W        W50343  23.078   4.580   1.095  0.0206 -0.1911  0.0390
41544W        W50344   0.190   0.275  27.980  0.1260 -0.1639 -0.0321
41545W        W50345  22.554   5.729  14.166 -0.1763  0.0146  0.0165
41546W        W50346   1.265   4.206  10.196 -0.2738  0.0725 -0.1400
41547W        W50347   4.019   3.295  23.658 -0.0450 -0.1629  0.1222
41548W        W50348  23.453   4.904  28.222 -0.1934  0.0069 -0.1637
41549W        W50349  23.569   1.298  29.684 -0.2404 -0.0383  0.0517
41550W        W50350  11.372   2.643  26.328  0.0001 -0.0892  0.0407
41551W        W50351  23.003   6.452   5.485  0.0906 -0.0029 -0.3378
41552W        W50352   8.461   6.193  29.609 -0.2568  0.2467 -0.2628
41553W        W50353   5.691   4.381  23.222 -0.1986 -0.0733  0.0098
41554W        W50354  21.599   6.986   0.457 -0.0257 -0.1709 -0.2490
41555W        W50355  15.092   5.675  27.227  0.2172  0.1863  0.3158
41556W        W50356  24.786   3.177  30.519  0.0707 -0.3014 -0.1406
41557W        W50357  16.540   3.357   6.555 -0.1472 -0.1687 -0.4194
41558W        W50358   8.531   3.614  17.271 -0.0872 -0.2544 -0.1438
41559W        W50359  19.440   7.640  12.332 -0.0128  0.3247 -0.1288
41560W        W50360  19.293   3.208   9.303 -0.2460  0.0838 -0.0928
41561W        W50361  17.606   6.334   5.770  0.1217 -0.1326  0.0115
41562W        W50362  22.321   4.192   2.227  0.0449  0.1372  0.1182
41563W        W50363  24.220   6.274  25.030 -0.0895  0.1022 -0.1350
41564W        W50364   8.931   1.410  30.745  0.1636  0.0441  0.2653
41565W        W50365  19.928   6.690  25.642 -0.0147  0.0289  0.0740
41566W        W50366  20.448   0.935  26.365  0.2529 -0.1695  0.3187
41567W        W50367  16.481   2.594   5.354 -0.1760 -0.0311  0.0159
41568W        W50368   0.596   1.640  26.057  0.2157  0.0167 -0.0049
41569W        W50369   8.350   1.052  21.177 -0.2980 -0.2883  0.2395
41570W        W50370  16.094   6.336  32.232 -0.0425  0.0683 -0.2639
41571W        W50371  19.112   6.982  22.542 -0.1222  0.0865  0.0860
41572W        W50372   4.133   4.219  27.717  0.0650  0.1722 -0.1331
41573W        W50373  15.248   2.124  24.779 -0.0160 -0.1298  0.2637
41574W        W50374  18.249   1.190  25.060  0.1337 -0.0426 -0.2464
41575W        W50375  17.150   1.032  13.301 -0.2147  0.0160  0.1318
41576W        W50376  12.770   4.615   4.493 -0.0197  0.2217  0.2380
41577W        W50377   4.861   4.685  22.550  0.0189  0.0214  0.2818
41578W        W50378   8.629   3.447   8.870 -0.3036  0.1410 -0.0063
41579W        W50379   3.733   7.177  32.540 -0.0315 -0.3462  0.2858
41580W        W50380  16.182   1.988  31.209  0.2050  0.1846 -0.0493
41581W        W50381   3.945   5.829  28.910  0.2710  0.1363  0.0624
41582W        W50382   0.112   1.372  12.396 -0.0090 -0.1758  0.0355
41583W        W50383  24.671   4.984   1.600 -0.0278  0.1814  0.2578
41584W        W50384  20.737   0.086  32.364 -0.2320 -0.1982 -0.2184
41585W        W50385   7.563   6.335   3.081  0.3207 -0.2830  0.3490
41586W        W50386   3.688   0.283  15.595 -0.0030 -0.0447  0.0826
41587W        W50387  15.382   6.079   1.233 -0.1646 -0.1465 -0.0421
41588W        W50388   2.342   6.634  27.062 -0.1486  0.0839  0.0310
41589W        W50389   5.105   1.003  22.961  0.0959 -0.0629 -0.0293
41590W        W50390   7.149   2.803  29.896 -0.0349  0.0687  0.1451
41591W        W50391  18.808   5.196  16.144  0.0094  0.4450  0.1189
41592W        W50392  25.044   6.507  10.402  0.2391 -0.1134 -0.0748
41593W        W50393  20.905   2.376   8.092 -0.3466 -0.0627  0.0234
41594W        W50394  22.718   7.789  30.535 -0.2116 -0.1692 -0.1976
41595W        W50395   8.579   7.833  20.179  0.0052  0.0489 -0.0258
41596W        W50396  18.300   0.963   1.244  0.0200 -0.1692 -0.0515
41597W        W50397   4.652   0.577  17.883  0.0313 -0.3099 -0.2557
41598W        W50398   0.673   5.927   7.190 -0.0245 -0.3450  0.2311
41599W        W50399  17.802   7.737   5.714 -0.4074 -0.2129  0.1601
41600W        W50400  19.448   1.146  27.908 -0.0618  0.2681 -0.0263
41601W        W50401  15.335   4.343  22.520 -0.1380  0.2152  0.3429
41602W        W50402   0.408   5.100   0.453 -0.1067  0.1173 -0.2795
41603W        W50403  12.562   1.552  30.613  0.2352 -0.1509  0.1735
41604W        W50404  20.750   0.792  29.370 -0.1713 -0.1650  0.3296
41605W        W50405  20.922   4.892   5.014 -0.2207  0.0354 -0.2635
41606W        W50406  20.131   2.840   9.572  0.1777 -0.1624 -0.2787
41607W        W50407  14.941   5.582  26.084 -0.1381  0.0579 -0.0407
41608W        W50408  17.728   1.119  25.078  0.1879 -0.3193  0.2607
41609W        W50409  17.195   5.717   3.377 -0.1729  0.1601 -0.0899
41610W        W50410   9.877   4.284  20.168 -0.0740 -0.2686  0.1212
41611W        W50411   8.861   2.679  21.117  0.0515  0.4623  0.0678
41612W        W50412   9.491   5.463   9.824 -0.0194 -0.0794  0.2739
41613W        W50413  12.622   5.459   9.295 -0.2579  0.2117 -0.0528
41614W        W50414   4.574   5.056  31.068  0.1732 -0.1780 -0.1079
41615W        W50415  21.568   0.538  24.947  0.0506  0.0268  0.2070
41616W        W50416  24.949   0.028   9.406 -0.0549 -0.1876  0.2848
41617W        W50417  14.107   6.775  26.271 -0.0154  0.0338 -0.2985
41618W        W50418  20.769   1.829   0.646  0.1726  0.0091 -0.0937
41619W        W50419   2.656   4.056  26.954  0.2893  0.1233  0.2470
41620W        W50420   1.383   6.284  12.242  0.1123 -0.2505  0.0795
41621W        W50421   2.958   3.278   5.446  0.0584  0.0938  0.1303
41622W        W50422  12.748   7.020  11.064  0.2685  0.2069 -0.0284
41623W        W50423  10.982   3.881   3.399  0.0062 -0.3391 -0.2981
41624W        W50424  24.440   0.230   8.101 -0.1515  0.0711  0.0466
41625W        W50425   7.346   6.223   5.903  0.0427 -0.1974 -0.2621
41626W        W50426   2.400   6.519  23.197 -0.2216  0.1837  0.3493
41627W        W50427   5.067   1.729   0.874  0.1159 -0.2012  0.0361
41628W        W50428  18.207   7.138  13.763 -0.1612  0.1679 -0.0902
41629W        W50429  13.625   3.350   6.730  0.0379 -0.2841  0.0206
41630W        W50430  21.017   0.973   9.576 -0.0435 -0.0736  0.1405
41631W        W50431   0.383   5.069  30.419  0.1246 -0.0848 -0.0607
41632W        W50432   0.887   0.275  26.396  0.4803  0.0348 -0.3719
41633W        W50433  22.522   4.688   2.895 -0.0514 -0.0234 -0.0857
41634W        W50434   3.080   4.027  20.328  0.1954  0.0253  0.1086
41635W        W50435   8.843   6.591   6.860  0.1938  0.2012  0.1886
41636W        W50436   8.973   0.503   5.714 -0.1474 -0.1092  0.0768
41637W        W50437   0.975   4.413   2.920  0.0748 -0.0184 -0.0118
41638W        W50438  11.109   1.303   5.404  0.1964  0.2979  0.1782
41639W        W50439   0.630   4.691  19.272 -0.2278 -0.0949 -0.1287
41640W        W50440   9.977   1.221  15.193  0.0977  0.0760  0.0127
41641W        W50441   3.215   0.741  19.205  0.1037  0.1537 -0.1052
41642W        W50442  22.035   4.342   5.677 -0.0073 -0.1339  0.0109
41643W        W50443  22.275   6.496  11.092 -0.0491  0.0057  0.1756
41644W        W50444  11.474   5.517   3.278  0.1832 -0.2582  0.2517
41645W        W50445  11.611   7.764  22.868 -0.0927 -0.0963  0.2353
41646W        W50446   2.904   3.863   9.450 -0.1801 -0.0256 -0.0497
41647W        W50447   8.818   0.314  25.422 -0.3381  0.1679  0.0941
41648W        W50448   1.185   3.312  24.469  0.0448 -0.0345 -0.0446
41649W        W50449  16.913   6.933  12.113  0.1917 -0.2864 -0.0471
41650W        W50450  19.941   3.555  15.093  0.1748  0.0326 -0.2902
41651W        W50451  12.163   4.106  21.291  0.0897  0.0594 -0.1217
41652W        W50452   3.923   0.335  32.020 -0.0298 -0.0880 -0.0515
41653W        W50453  23.468   1.628  27.503  0.0988 -0.2303  0.2331
41654W        W50454   5.715   6.036  25.515 -0.3068  0.0127 -0.0056
41655W        W50455  14.951   4.864  30.126 -0.0009 -0.3562  0.0222
41656W        W50456  16.775   5.359  17.044  0.2103 -0.2525 -0.1912
41657W        W50457   3.295   7.466   1.801  0.3376 -0.0088 -0.1463
41658W        W50458   2.236   1.795  24.874  0.1857  0.0436  0.0782
41659W        W50459   2.601   4.875   0.195 -0.0293 -0.0972 -0.4339
41660W        W50460  11.701   3.144   4.179 -0.1189  0.1604  0.0303
41661W        W50461  15.500   1.121  24.266 -0.1361 -0.0062 -0.1534
41662W        W50462  15.556   0.114   6.095  0.0235  0.0066  0.0363
41663W        W50463   4.099   2.302  11.060  0.2777 -0.1155  0.0212
41664W        W50464   3.906   6.949   4.542  0.2315  0.0543 -0.0256
41665W        W50465  12.937   7.587  28.487 -0.0613  0.1670 -0.0496
41666W        W50466  10.240   2.377  32.406  0.1780  0.2334  0.0297
41667W        W50467   5.265   5.159  31.914 -0.1339  0.0382 -0.2650
41668W        W50468  11.141   6.430  21.043  0.0490  0.0912 -0.3530
41669W        W50469  16.612   1.147   1.446  0.1056  0.1288  0.0529
41670W        W50470   5.048   6.929  24.488 -0.2863  0.3303 -0.1434
41671W        W50471  18.113   7.583  16.590 -0.1300 -0.0607  0.0073
41672W        W50472   7.668   3.775   0.648  0.0895  0.1532 -0.2383
41673W        W50473   2.490   7.746  31.655  0.2803 -0.0949 -0.1061
41674W        W50474  24.055   1.673   7.060 -0.0759  0.0102 -0.3662
41675W        W50475  11.599   3.065  25.257 -0.1396 -0.1413  0.3105
41676W        W50476   1.700   6.913  31.890 -0.0934 -0.0962  0.2830
41677W        W50477  15.282   4.326   3.555  0.0644  0.1648  0.2289
41678W        W50478  17.418   7.483  11.587 -0.4021 -0.2320  0.0784
41679W        W50479  24.587   5.967  28.513  0.0200  0.1119 -0.1329
41680W        W50480  12.139   1.537   3.597 -0.1138  0.0103  0.2449
41681W        W50481  24.696   3.069  11.405 -0.1305  0.3352  0.0831
41682W        W50482   0.399   5.352  12.893 -0.0197 -0.1080  0.1913
41683W        W50483  18.614   3.689  12.355  0.0106 -0.3294 -0.2645
41684W        W50484   4.719   7.630   4.965 -0.0473  0.1191  0.0991
41685W        W50485  19.124   4.163  16.189  0.3034 -0.2834 -0.0977
41686W        W50486   9.822   1.266  17.240  0.0556  0.1608 -0.1087
41687W        W50487   6.483   1.621  21.808 -0.0078 -0.2033  0.0095
41688W        W50488   0.518   3.737  10.619 -0.3462  0.0032  0.0672
41689W        W50489  10.733   0.403   0.624  0.0751  0.1054 -0.1090
41690W        W50490   1.784   2.520   9.907  0.0909 -0.0496 -0.1843
41691W        W50491  11.175   0.655   1.793  0.0507 -0.3108  0.1681
41692W        W50492   5.660   7.766   3.701  0.0478 -0.0881  0.2102
41693W        W50493   4.463   3.872   0.477 -0.2700  0.0549  0.0413
41694W        W50494   1.287   1.157  24.103  0.1183 -0.2184  0.0886
41695W        W50495  13.358   5.260  24.125 -0.1298 -0.0060  0.0492
41696W        W50496  10.281   7.691  17.051 -0.2154  0.1655 -0.2860
41697W        W50497  15.904   1.488  16.579  0.0335 -0.2036  0.4544
41698W        W50498  19.195   0.715  23.945 -0.0347  0.0912 -0.2059
41699W        W50499  12.892   1.987   6.126  0.0069 -0.0540 -0.0853
41700W        W50500   1.343   1.713   0.248  0.1311 -0.0271  0.0694
41701W        W50501   1.254   6.404  20.529 -0.0840  0.2124 -0.0331
41702W        W50502  10.223   1.017   8.749 -0.0273  0.2028  0.1183
41703W        W50503  10.782   5.481   6.329  0.0833  0.0453 -0.3237
41704W        W50504   1.684   6.967   2.435  0.0840  0.0224  0.1754
41705W        W50505  13.661   3.553   3.289  0.5279 -0.2669  0.1575
41706W        W50506  22.891   2.719   1.536  0.0669 -0.3559  0.0706
41707W        W50507   7.912   2.896   8.064 -0.0059 -0.1659  0.0435
41708W        W50508  17.052   1.438   9.939  0.0631  0.2990  0.0711
41709W        W50509  11.866   4.452  18.936 -0.2237 -0.2503  0.0157
41710W        W50510  21.472   5.297  13.022 -0.1211 -0.0366  0.1055
41711W        W50511  21.100   7.499  24.863  0.1529  0.0735  0.2127
41712W        W50512  10.451   7.652  21.551 -0.0733  0.3306  0.0601
41713W        W50513  19.082   5.277  17.190  0.0047  0.1281  0.0989
41714W        W50514   7.264   5.384  26.678  0.2406  0.1788 -0.0184
41715W        W50515   4.697   4.631   0.383 -0.1893 -0.0305  0.1379
41716W        W50516  22.507   0.068   2.109 -0.3013 -0.0348 -0.1852
41717W        W50517   3.044   4.768  27.456 -0.1825 -0.5317 -0.0169
41718W        W50518   4.639   2.944   8.667 -0.0100  0.0146 -0.2643
41719W        W50519   4.614   2.044  31.332 -0.1172  0.0166 -0.0426
41720W        W50520  20.297   3.551  24.247 -0.3144  0.0683  0.0550
41721W        W50521  17.910   4.343   4.681  0.1167 -0.0015  0.1989
41722W        W50522   9.074   3.164   9.337 -0.3443 -0.0111  0.1550
41723W        W50523  16.361   7.105  11.892 -0.0251 -0.0715 -0.1064
41724W        W50524  22.070   7.646  29.912  0.0200 -0.0244  0.0902
41725W        W50525  20.175   0.009  14.363  0.0653  0.0060  0.1866
41726W        W50526   0.039   3.600  13.046 -0.0009  0.0231 -0.2574
41727W        W50527  11.289   4.501   5.187  0.2689  0.0040  0.0697
41728W        W50528   5.542   7.787   9.760 -0.2250 -0.1589  0.2532
41729W        W50529  23.626   4.148  28.211  0.3766  0.0332  0.0986
41730W        W50530  17.555   5.870  26.820 -0.0673 -0.0949  0.2616
41731W        W50531  22.892   4.571   0.272  0.0564  0.0584  0.1777
41732W        W50532  18.523   6.795  13.345  0.0444  0.0176  0.2261
41733W        W50533  14.927   4.104   0.342 -0.3516  0.2012  0.2240
41734W        W50534   8.571   2.343  19.681  0.0896 -0.1360  0.0921
41735W        W50535  17.323   2.454  11.869  0.0989  0.0586  0.2028
41736W        W50536   0.735   7.814  30.776  0.3006 -0.1389 -0.0616
41737W        W50537   2.077   2.782   3.268 -0.1051 -0.2150 -0.1100
41738W        W50538  16.504   7.667  15.305  0.4161 -0.2070  0.1933
41739W        W50539  11.879   3.419   7.792  0.1720 -0.0754 -0.2231
41740W        W50540  11.182   2.458   6.370 -0.3139 -0.2483 -0.4318
41741W        W50541  14.679   3.847  24.214  0.0652  0.0636 -0.1746
41742W        W50542  10.364   5.498  19.612  0.1821 -0.2443 -0.1493
41743W        W50543  18.575   4.527  26.193  0.2705  0.0132 -0.2397
41744W        W50544   7.556   3.827   9.681 -0.3785  0.1906  0.3630
41745W        W50545   3.129   4.882  26.714 -0.2305  0.0409 -0.4428
41746W        W50546   0.645   3.860  25.965 -0.1710 -0.0762  0.0519
41747W        W50547  24.529   2.926  25.550  0.1533  0.1756  0.1429
41748W        W50548   7.470   7.448  18.710  0.0850  0.0592 -0.4043
41749W        W50549   2.574   3.169  22.533  0.0711  0.2470  0.0678
41750W        W50550  16.915   1.116   1.932  0.0773  0.0566 -0.2595
41751W        W50551  19.937   1.178  26.386 -0.1541  0.0645 -0.2287
41752W        W50552  18.183   2.320  23.889 -0.2951 -0.3770 -0.3011
41753W        W50553   3.229   1.291  21.869  0.1460  0.1429 -0.0334
41754W        W50554   4.748   6.994  29.990 -0.0107  0.0757 -0.0348
41755W        W50555   6.861   0.092  19.825  0.1175 -0.1267 -0.2515
41756W        W50556   6.664   6.702  14.367  0.1068  0.0110 -0.0099
41757W        W50557  14.569   6.768  12.947 -0.0873  0.3077  0.3453
41758W        W50558  20.812   7.109   3.811  0.2373  0.0463 -0.3200
41759W        W50559  11.763   5.774   1.676 -0.0294 -0.1859 -0.0169
41760W        W50560   3.710   4.947  18.455  0.1344  0.0313  0.1577
41761W        W50561   8.992   0.156  31.346 -0.2905  0.3307  0.0934
41762W        W50562  16.485   1.502  11.631  0.2963 -0.1963  0.0120
41763W        W50563  15.676   1.111   4.337  0.0931  0.0816  0.1729
41764W        W50564  14.989   6.509  32.180  0.1221 -0.1190 -0.0214
41765W        W50565  14.831   6.326   8.893 -0.1422 -0.0068  0.0700
41766W        W50566  18.074   1.109  30.277 -0.2722  0.1094 -0.0834
41767W        W50567  11.743   2.989  10.218  0.1263 -0.1347 -0.1966
41768W        W50568   6.433   5.245  32.450 -0.0151 -0.0379  0.1010
41769W        W50569  17.363   5.057  24.650 -0.1932  0.4023 -0.0007
41770W        W50570   4.928   3.872  18.678  0.1775 -0.0845  0.0446
41771W        W50571  15.635   0.398   1.524 -0.0396 -0.0380  0.0582
41772W        W50572  13.138   2.799   7.106 -0.0373  0.1500  0.0563
41773W        W50573  18.598   3.411  29.489 -0.1003  0.0942  0.0035
41774W        W50574  11.769   6.504  26.610 -0.0492 -0.1905  0.0116
41775W        W50575  23.623   4.997  11.162 -0.2803 -0.1676  0.2634
41776W        W50576   3.341   5.863   8.113  0.0177 -0.0684  0.0841
41777W        W50577   2.876   4.680  19.352 -0.1569 -0.2020 -0.2417
41778W        W50578   1.976   0.453   8.558  0.1368  0.5322  0.0609
41779W        W50579  10.704   5.827   7.224  0.0244 -0.0904  0.0845
41780W        W50580   7.807   1.399   6.762 -0.2510 -0.1357 -0.1595
41781W        W50581  17.600   3.510  25.758  0.3134 -0.0279 -0.0043
41782W        W50582  24.406   2.179  25.279  0.1912 -0.0995  0.1669
41783W        W50583  20.632   3.848  10.343 -0.0159 -0.0191  0.0229
41784W        W50584  20.133   4.633  30.058 -0.0589 -0.0126  0.0833
41785W        W50585   1.459   0.208   1.060 -0.0208  0.0107 -0.1314
41786W        W50586   3.161   1.220   6.418  0.1235 -0.2252  0.0681
41787W        W50587   5.701   5.019  23.876 -0.1360  0.3851  0.1382
41788W        W50588   3.352   6.254   7.233 -0.0761  0.3539 -0.0643
41789W        W50589  14.725   7.097  22.698  0.0432 -0.2129 -0.0595
41790W        W50590  13.934   7.769   3.752  0.1945  0.4940 -0.1803
41791W        W50591   6.828   1.375  30.312  0.2259  0.0979 -0.4214
41792W        W50592   2.147   7.277  23.449  0.1593  0.0328  0.1444
41793W        W50593  24.465   3.431  11.091  0.3043 -0.2597 -0.0614
41794W        W50594   1.752   5.790  21.105  0.2082 -0.0026  0.1859
41795W        W50595   2.948   2.493   4.106  0.2023 -0.4138  0.0624
41796W        W50596   1.700   4.416   0.339  0.1337  0.2299 -0.1664
41797W        W50597  10.493   4.941  30.441 -0.0397 -0.1739  0.1592
41798W        W50598  19.957   4.694   3.211  0.0712 -0.0548  0.2451
41799W        W50599   2.477   0.411  31.214  0.1810  0.0904  0.0158
41800W        W50600   9.764   7.449   0.382 -0.0983  0.0334  0.0157
41801W        W50601   0.722   5.583  31.402  0.0196  0.1938 -0.2076
41802W        W50602   9.623   4.911  17.662  0.1887 -0.0874 -0.0594
41803W        W50603  14.139   6.585   9.545 -0.0445 -0.2228 -0.1822
41804W        W50604  21.847   3.946   1.961 -0.1305  0.4472 -0.0036
41805W        W50605  18.636   7.020  11.054 -0.2238 -0.1767 -0.3366
41806W        W50606  17.272   6.193  13.011  0.0866 -0.0634  0.0421
41807W        W50607  23.899   2.062  25.934  0.0651 -0.0774  0.1009
41808W        W50608   4.354   0.370  30.468 -0.1853  0.1786 -0.0939
41809W        W50609   3.835   2.454   0.532  0.1355  0.1965 -0.1353
41810W        W50610   2.071   0.590   9.448  0.1079 -0.1895 -0.0745
41811W        W50611  19.136   6.211  24.101  0.0885 -0.1077  0.0862
41812W        W50612   5.761   1.173  31.709  0.0293  0.0835 -0.0414
41813W        W50613  16.574   5.130  14.926  0.1284  0.4823 -0.3682
41814W        W50614  21.982   7.622  28.876  0.0730 -0.0116 -0.2712
41815W        W50615  13.763   6.889   5.500  0.3281  0.1696 -0.2408
41816W        W50616  17.210   4.726  25.132 -0.1937 -0.1188  0.1254
41817W        W50617   1.319   6.899  27.003  0.2781 -0.1275 -0.0520
41818W        W50618  25.101   4.734  30.092 -0.0067  0.1506  0.2575
41819W        W50619   9.853   1.724  26.565 -0.0675  0.2283  0.0378
41820W        W50620  10.020   0.605   9.060  0.0820  0.1292  0.0973
41821W        W50621   6.664   3.488  25.861  0.0136 -0.1848 -0.2750
41822W        W50622   3.982   5.119   1.673  0.0850 -0.2916  0.1959
41823W        W50623  16.872   2.975  24.141  0.1354  0.0159 -0.2039
41824W        W50624   6.183   6.855   7.280 -0.1380  0.2757 -0.4982
41825W        W50625   0.754   2.304  29.570  0.0154  0.0368 -0.0484
41826W        W50626   8.598   0.634   9.572 -0.0887 -0.1214 -0.1565
41827W        W50627  10.345   3.809  18.602 -0.0194 -0.2259 -0.1649
41828W        W50628   1.150   2.175  12.156  0.2150 -0.0039 -0.0622
41829W        W50629  23.024   2.939   0.210 -0.3362 -0.0607  0.0455
41830W        W50630   4.295   0.808  30.653  0.1109  0.0297 -0.1849
41831W        W50631   6.959   0.598   0.765 -0.0969  0.0508  0.1616
41832W        W50632  14.646   4.021   9.941 -0.2533 -0.1367 -0.1261
41833W        W50633   4.184   3.113  24.186  0.0105 -0.0682 -0.2142
41834W        W50634  20.098   4.064  28.655  0.1006 -0.0913 -0.0034
41835W        W50635  24.629   4.877   5.050 -0.0486  0.1116 -0.2187
41836W        W50636   6.406   6.514  27.069 -0.2345 -0.0860 -0.2048
41837W        W50637  10.194   4.962  17.734 -0.1720  0.1106  0.2653
41838W        W50638   1.754   3.728   1.446 -0.0498  0.2799 -0.2607
41839W        W50639  18.643   2.409  27.891  0.1428 -0.2991 -0.0345
41840W        W50640   8.868   7.775   4.005  0.0174  0.0741  0.1712
41841W        W50641  23.749   1.777  28.827 -0.1798 -0.0677 -0.1399
41842W        W50642   4.128   3.170  30.453  0.5511  0.0305 -0.0794
41843W        W50643   3.236   6.981   3.836 -0.0557 -0.2041 -0.1069
41844W        W50644  19.407   2.701  17.296 -0.2483 -0.5025  0.1040
41845W        W50645  10.406   6.885  25.155  0.2113  0.2955 -0.0195
41846W        W50646   3.952   3.619  24.169 -0.3586 -0.0473  0.1122
41847W        W50647  16.073   7.643  32.156 -0.2877  0.0629 -0.0056
41848W        W50648  20.011   6.221  10.565  0.0837 -0.0210 -0.3061
41849W        W50649   3.468   5.179  21.276  0.1687 -0.0229  0.0891
41850W        W50650  21.466   0.208   9.242 -0.0069  0.2720  0.1206
41851W        W50651   5.641   0.598  31.124  0.3717  0.0655 -0.0498
41852W        W50652   9.205   1.468  31.151 -0.1042 -0.1719  0.1049
41853W        W50653   9.995   6.141  17.753 -0.0203 -0.1853  0.1741
41854W        W50654  20.954   5.699   2.489  0.0411 -0.1854 -0.2817
41855W        W50655   2.218   2.269   8.852 -0.0476  0.0136  0.2685
41856W        W50656  16.939   1.659   1.887  0.2190 -0.0209  0.0803
41857W        W50657  15.639   2.949  27.672  0.2235 -0.0312  0.0284
41858W        W50658  18.993   4.416   0.105  0.0836  0.0876 -0.1425
41859W        W50659  17.926   7.528  15.222  0.0004  0.1192  0.0382
41860W        W50660  22.704   6.688  32.536  0.1496  0.1027 -0.0187
41861W        W50661  23.513   1.214   4.136 -0.0781  0.0483 -0.1347
41862W        W50662  17.159   1.383  11.839  0.0727  0.0695  0.1370
41863W        W50663  14.204   5.254   3.548 -0.2107 -0.2778  0.2168
41864W        W50664  23.181   4.143  14.208 -0.0202 -0.1317  0.2070
41865W        W50665  19.325   6.610  18.330  0.1268  0.1415  0.1672
41866W        W50666  15.123   4.280  29.373  0.0488 -0.1687 -0.0878
41867W        W50667   8.035   4.610  32.032  0.0036 -0.1588  0.3570
41868W        W50668  14.982   0.024   9.882  0.1773  0.0087 -0.1937
41869W        W50669  24.012   5.489  32.426  0.0404 -0.1369  0.3658
41870W        W50670   4.649   1.911   8.747  0.1332  0.3146  0.0848
41871W        W50671  16.210   6.825  13.503 -0.1241  0.1727 -0.0761
41872W        W50672  12.193   1.818   9.303 -0.0511 -0.0511  0.0254
41873W        W50673  21.530   2.703  14.634 -0.0662 -0.2442 -0.2289
41874W        W50674  17.652   2.835  16.097 -0.0942 -0.1004  0.0270
41875W        W50675   7.111   1.991  24.515 -0.0128 -0.2032  0.2982
41876W        W50676   6.421   0.801   5.817 -0.0245 -0.1700 -0.1702
41877W        W50677   6.329   7.701  30.636 -0.1903 -0.5638 -0.1077
41878W        W50678  11.495   7.048  20.565  0.1634  0.2458 -0.0012
41879W        W50679  24.300   4.171  26.579  0.0400 -0.1690 -0.0911
41880W        W50680  13.989   1.763  25.198 -0.2988 -0.2310  0.0216
41881W        W50681   3.171   5.857   3.607 -0.1318 -0.1061 -0.3747
41882W        W50682   5.950   1.002   6.014 -0.1243 -0.0313 -0.2844
41883W        W50683   7.826   1.016  21.277  0.0287  0.0896 -0.1706
41884W        W50684   8.895   5.299   3.322 -0.2347  0.1870 -0.2928
41885W        W50685   3.364   1.438   2.786  0.2220  0.0619 -0.0406
41886W        W50686   4.485   5.606  21.173 -0.2500 -0.5032 -0.2287
41887W        W50687   0.573   3.225  30.742 -0.0136  0.0882  0.1879
41888W        W50688  21.217   5.774  23.913 -0.3704 -0.1172  0.0064
41889W        W50689  21.265   0.074   1.287 -0.0161 -0.2214 -0.1498
41890W        W50690  14.200   4.789  14.057 -0.2253 -0.2467 -0.3824
41891W        W50691  13.812   6.634  31.854 -0.1148 -0.0187  0.2278
41892W        W50692   3.816   0.055  26.775 -0.4312 -0.2047 -0.0039
41893W        W50693  19.802   6.532   3.201 -0.0832  0.2690 -0.0626
41894W        W50694  23.365   2.868  31.606 -0.2076  0.0287 -0.1156
41895W        W50695   1.382   2.696   4.484 -0.2042 -0.0842  0.0009
41896W        W50696   1.748   4.978   4.704  0.3092  0.2098  0.1022
41897W        W50697  19.612   6.202  29.410  0.0711 -0.0172  0.1382
41898W        W50698  23.117   2.330   2.124 -0.0126  0.0348  0.0509
41899W        W50699  10.648   7.338  28.451 -0.1155  0.2154  0.2024
41900W        W50700   7.892   0.355   8.500 -0.2429 -0.1501  0.1190
41901W        W50701  19.421   5.429  31.626 -0.2414 -0.1663  0.0744
41902W        W50702  18.014   6.065  16.483  0.1277  0.0639  0.1293
41903W        W50703  20.985   1.537  11.224  0.1859  0.3700 -0.0489
41904W        W50704  10.830   4.758  20.121 -0.0388 -0.2524  0.1278
41905W        W50705   3.773   0.025   3.367 -0.0793  0.0582 -0.1130
41906W        W50706  12.543   0.404  28.389  0.1518 -0.1494  0.2586
41907W        W50707  12.350   6.401   2.847  0.0747 -0.4106  0.0105
41908W        W50708   3.927   5.228  16.714 -0.0690  0.2419  0.1226
41909W        W50709  14.968   2.431  23.595  0.0319  0.2741 -0.2317
41910W        W50710  14.778   2.210  27.981 -0.1893  0.0146 -0.0971
41911W        W50711  15.872   6.987  25.297 -0.3008  0.0467 -0.0180
41912W        W50712  14.458   5.715  24.413  0.0057  0.2474  0.0980
41913W        W50713  11.319   3.516  31.304 -0.1238  0.0378 -0.2160
41914W        W50714  23.631   0.294  29.327  0.2605 -0.1542 -0.0830
41915W        W50715   9.362   4.328   8.585  0.2223  0.0390 -0.0693
41916W        W50716   3.111   6.861  17.949  0.2794  0.0641  0.0029
41917W        W50717  10.228   1.891  20.742 -0.0285 -0.1236  0.0576
41918W        W50718  15.475   3.421  27.304  0.1311 -0.0844 -0.1072
41919W        W50719  19.995   6.004   4.018  0.0860 -0.0445 -0.1755
41920W        W50720  11.602   5.666   5.826 -0.3023  0.1034  0.1539
41921W        W50721   4.725   5.965  24.813  0.1616 -0.0082 -0.0300
41922W        W50722  13.225   6.036  29.145 -0.0251  0.2869  0.0257
41923W        W50723  18.832   2.079  25.147 -0.0761  0.0164  0.1268
41924W        W50724  16.285   2.078   0.684  0.2874  0.2123  0.0786
41925W        W50725  19.363   3.259  24.558  0.2418  0.1429 -0.0630
41926W        W50726   8.039   7.454   2.375  0.1384 -0.1414 -0.0513
41927W        W50727  23.889   3.033   9.929  0.1637  0.0280 -0.0007
41928W        W50728  16.368   1.288   8.657 -0.2387 -0.0858 -0.0999
41929W        W50729  10.042   0.538   5.714 -0.0206  0.0996  0.0103
41930W        W50730   0.477   0.245   2.280  0.0750 -0.2983 -0.2112
41931W        W50731  10.429   1.164  26.429 -0.3933 -0.2400 -0.1137
41932W        W50732  25.037   1.954  11.359 -0.2064 -0.1642  0.2281
41933W        W50733  14.055   3.352  28.589  0.0967  0.1715 -0.0159
41934W        W50734   7.873   2.245  21.268 -0.2316 -0.0643  0.0944
41935W        W50735  15.491   4.597   3.121  0.0007  0.0493  0.0096
41936W        W50736  14.676   4.405  23.553 -0.2270 -0.1551 -0.0215
41937W        W50737  19.009   1.711  12.478 -0.0193 -0.0554 -0.0383
41938W        W50738  22.089   0.238  21.516  0.1241 -0.1778 -0.0066
41939W        W50739  25.142   5.157  28.389 -0.0820 -0.0303 -0.3195
41940W        W50740  17.232   6.484   1.175  0.0702 -0.0161 -0.2220
41941W        W50741  16.874   3.250  26.182 -0.2364  0.1111 -0.0251
41942W        W50742  10.048   5.643  21.158  0.1028 -0.3247  0.0873
41943W        W50743   3.499   6.657  26.572 -0.2509  0.1337 -0.0153
41944W        W50744  10.402   3.911  28.770  0.0843  0.1622 -0.0930
41945W        W50745  17.272   4.487  32.546 -0.2089  0.0788 -0.1060
41946W        W50746  10.913   4.552  25.013 -0.1413  0.0188  0.2219
41947W        W50747  21.875   0.512  17.397 -0.0179  0.1441 -0.0545
41948W        W50748  16.433   3.998   7.253 -0.0889  0.0569 -0.0370
41949W        W50749   6.144   6.366  20.928  0.1174 -0.1288  0.2124
41950W        W50750   4.098   6.760  31.643  0.0447 -0.2292 -0.4274
41951W        W50751  13.174   7.669  26.945  0.4277 -0.0458  0.1631
41952W        W50752   6.347   1.649  26.591 -0.2528 -0.2489 -0.1088
41953W        W50753  14.872   5.125  11.767  0.3521  0.1757  0.0348
41954W        W50754  22.046   6.302  29.116 -0.1608 -0.1556 -0.0358
41955W        W50755  12.929   1.283   2.469  0.1235 -0.2714  0.0367
41956W        W50756   3.516   4.118  29.545  0.1337  0.1193 -0.2423
41957W        W50757  24.173   4.604  25.816 -0.1040  0.1295 -0.2386
41958W        W50758   9.074   1.673   2.724 -0.3484 -0.1125  0.0031
41959W        W50759  10.998   0.435  25.130  0.0110  0.0298  0.0463
41960W        W50760  20.595   5.522  29.949  0.1589  0.1732 -0.0500
41961W        W50761  12.359   1.110   0.048  0.0195 -0.1971 -0.2058
41962W        W50762  16.467   3.362  25.224 -0.4016 -0.0719 -0.0207
41963W        W50763  22.805   0.882   8.844  0.2596 -0.2202 -0.0746
41964W        W50764   9.014   4.231  17.996 -0.0312  0.4495 -0.1522
41965W        W50765  18.390   2.238   3.182  0.0142  0.2292  0.2379
41966W        W50766  24.896   5.672  28.813  0.1418 -0.2487  0.0839
41967W        W50767  10.838   1.474  29.401  0.2526  0.3935 -0.2104
41968W        W50768   7.961   7.743  29.033 -0.0090 -0.3832 -0.0475
41969W        W50769  15.028   0.279   7.663 -0.1354 -0.0351 -0.4388
41970W        W50770  18.540   6.198  24.813  0.1869  0.4386 -0.0159
41971W        W50771   4.001   3.382   7.575  0.0140 -0.1159 -0.1116
41972W        W50772  16.257   5.511  22.848  0.0089 -0.0897 -0.1535
41973W        W50773   3.826   2.527  30.074 -0.2039 -0.1225  0.1891
41974W        W50774  17.017   4.667   9.600 -0.0844 -0.0371 -0.2482
41975W        W50775  10.585   1.121   3.560 -0.0701  0.1192  0.0165
41976W        W50776  22.903   5.425   8.091 -0.0871 -0.1134  0.0073
41977W        W50777  11.613   1.262   7.107  0.1591  0.3268  0.1750
41978W        W50778   7.428   2.724  32.230  0.0212  0.1282  0.2042
41979W        W50779  24.068   6.037   0.506  0.2581 -0.3387 -0.0054
41980W        W50780  13.532   4.528   8.468 -0.0547 -0.2915  0.0930
41981W        W50781  16.646   0.961   3.851 -0.0679 -0.3512  0.0303
41982W        W50782  21.991   3.308   2.843 -0.0090  0.1795  0.1212
41983W        W50783  10.709   2.732  25.764  0.1605 -0.0598  0.0942
41984W        W50784  17.737   3.615  11.272 -0.0120 -0.3536 -0.2346
41985W        W50785   0.414   4.807   2.700 -0.3499  0.4004  0.1172
41986W        W50786  10.904   4.282  19.959  0.2351 -0.0415 -0.1206
41987W        W50787  10.966   0.896   6.321 -0.4085  0.2635  0.0720
41988W        W50788  13.556   4.023  20.721  0.1994 -0.6273 -0.1649
41989W        W50789  11.876   3.249  18.854  0.0699  0.0421 -0.1047
41990W        W50790  12.793   6.352   7.077 -0.0352  0.0854  0.1128
41991W        W50791   4.351   1.769   6.748  0.1906 -0.0546 -0.0925
41992W        W50792  16.388   4.778  16.962  0.0274 -0.3362 -0.0853
41993W        W50793  22.010   6.121   9.537 -0.0547 -0.0076  0.1203
41994W        W50794  19.625   3.303  15.581  0.1720  0.0709  0.1564
41995W        W50795  18.999   6.227  14.473  0.0977 -0.1450 -0.3042
41996W        W50796  18.470   5.271  25.862 -0.1142 -0.3223  0.4814
41997W        W50797   4.582   4.573  23.894 -0.1900  0.1361 -0.4283
41998W        W50798  21.542   6.255  14.735 -0.1556 -0.2130  0.3874
41999W        W50799  16.936   4.369   6.299  0.1538  0.1073  0.1599
42000W        W50800  22.495   5.453  13.508  0.4151 -0.0111  0.0497
42001W        W50801   3.471   2.060  10.601 -0.1802 -0.0820  0.0730
42002W        W50802  17.018   3.518   5.407  0.0288  0.0927 -0.0246
42003W        W50803   8.842   2.210   4.597 -0.0266  0.1301 -0.1087
42004W        W50804   5.344   3.830   1.617  0.0331 -0.1302 -0.2029
42005W        W50805   8.079   1.922  32.516 -0.1034  0.1469  0.0482
42006W        W50806   3.199   6.812  23.152 -0.0737 -0.1544  0.1210
42007W        W50807  14.908   4.258  22.728  0.1101  0.1275 -0.1450
42008W        W50808  24.761   5.166  29.688  0.0939  0.0259 -0.0749
42009W        W50809  17.830   7.338   6.928  0.0428 -0.2165 -0.1803
42010W        W50810  15.122   2.087   8.370 -0.2852  0.0142  0.1253
42011W        W50811   7.918   5.955   4.174  0.2620  0.1127  0.1224
42012W        W50812  21.648   1.506  15.971  0.3952  0.2156 -0.1537
42013W        W50813  16.365   2.632  26.727 -0.0637  0.1206  0.1220
42014W        W50814  22.671   4.058  31.520  0.1465 -0.0616 -0.1453
42015W        W50815  18.547   4.907  10.562 -0.1976 -0.1203  0.1845
42016W        W50816   0.896   2.202  30.634  0.0293 -0.0504 -0.2063
42017W        W50817  21.113   0.419  29.393  0.0493  0.0924  0.1721
42018W        W50818  16.327   6.764  32.118 -0.2532  0.0115  0.1399
42019W        W50819  19.326   1.112  13.940  0.2967  0.2695 -0.0208
42020W        W50820   5.921   4.223  19.850  0.1616  0.0893 -0.2064
42021W        W50821  17.698   4.738   0.206 -0.1456 -0.1942  0.0533
42022W        W50822  14.856   7.374  23.589 -0.1674  0.1677 -0.0409
42023W        W50823  20.744   3.341   1.976  0.2040 -0.0612 -0.0840
42024W        W50824   5.355   7.267   1.175  0.0118 -0.0866 -0.5361
42025W        W50825  21.984   5.911  10.698 -0.1588 -0.0522 -0.1460
42026W        W50826  20.550   5.484  14.098  0.0125  0.2974  0.1520
42027W        W50827  21.115   3.672   0.258 -0.0997  0.1373  0.0182
42028W        W50828  12.439   4.839  28.231 -0.2883  0.0034 -0.2308
42029W        W50829   9.321   5.087   9.058  0.4320 -0.0495 -0.1103
42030W        W50830  12.314   5.973   5.328 -0.1702  0.0366  0.1154
42031W        W50831   7.872   3.085  18.822  0.1898 -0.1252  0.0802
42032W        W50832  12.225   5.101   5.249  0.0985  0.2024 -0.2773
42033W        W50833  22.598   3.111  10.459 -0.4373 -0.2227  0.1835
42034W        W50834   0.432   3.739  25.073 -0.1624  0.0554  0.0783
42035W        W50835  22.044   2.822   1.035 -0.0941 -0.1460 -0.1878
42036W        W50836  17.986   6.524   6.033  0.3495 -0.0621  0.1566
42037W        W50837  25.069   2.561   4.773 -0.0535  0.0454  0.2289
42038W        W50838   9.976   7.354   9.534  0.2170  0.2388  0.1744
42039W        W50839   7.859   4.459  25.745 -0.4184  0.2304  0.0930
42040W        W50840  19.618   6.187  26.886  0.4015  0.2780 -0.0983
42041W        W50841  21.294   4.471  25.351  0.0104  0.1541 -0.0900
42042W        W50842  20.491   3.360  15.662 -0.0990 -0.0093 -0.0764
42043W        W50843  22.814   2.580   7.591 -0.3339 -0.3337 -0.0239
42044W        W50844  23.995   3.770   5.655  0.1391 -0.0586  0.1470
42045W        W50845  11.419   2.294   1.439 -0.1847 -0.1806  0.2789
42046W        W50846  16.795   0.748  32.179  0.0351  0.0518 -0.1450
42047W        W50847   9.567   2.008  31.358  0.3750  0.0629  0.0329
42048W        W50848   0.336   2.399   9.645 -0.1373  0.2264  0.2685
42049W        W50849   9.823   2.065  21.105 -0.0772 -0.0111 -0.1423
42050W        W50850  11.129   4.748  22.184 -0.0172  0.1048 -0.0262
42051W        W50851   9.242   0.846   2.880  0.1123 -0.0378 -0.0208
42052W        W50852  13.326   4.451  26.878  0.1628 -0.1274 -0.0657
42053W        W50853   2.304   6.061  32.197  0.1602 -0.0820  0.0420
42054W        W50854  19.432   7.436  11.443 -0.1027 -0.1668  0.0843
42055W        W50855   9.193   1.983  17.768  0.2726 -0.1709 -0.0846
42056W        W50856  22.822   0.354   2.344 -0.1077  0.1465  0.1563
42057W        W50857  23.460   1.453  23.553 -0.0592 -0.1563  0.1963
42058W        W50858  15.218   0.724  32.038 -0.4373 -0.1639 -0.2890
42059W        W50859   4.319   3.237  22.329 -0.1650  0.1079 -0.2575
42060W        W50860  21.544   1.025  24.711 -0.1172 -0.2096 -0.1990
42061W        W50861  16.473   5.497   8.109 -0.1795  0.2597  0.1771
42062W        W50862  13.511   1.350  26.354  0.3330  0.0899  0.1554
42063W        W50863  24.628   1.998  23.254  0.0771 -0.1234 -0.0897
42064W        W50864  11.209   2.081  25.322 -0.1839 -0.3618 -0.5087
42065W        W50865  23.479   0.613  10.402  0.3285  0.1061  0.0022
42066W        W50866  17.842   3.097  17.443  0.1355 -0.1763 -0.0273
42067W        W50867  21.536   5.239  12.409  0.1944 -0.2518 -0.1537
42068W        W50868   2.812   5.790   7.990 -0.0546  0.3123  0.2762
42069W        W50869  18.749   7.105  26.419 -0.0545 -0.3436 -0.2905
42070W        W50870   4.143   5.214  29.520  0.2546 -0.0301 -0.3741
42071W        W50871   9.278   7.477   0.356  0.0263  0.3542 -0.0122
42072W        W50872  15.621   1.257  11.392 -0.1320  0.0878 -0.1939
42073W        W50873   4.752   2.407   8.880 -0.1369  0.1080  0.1396
42074W        W50874  19.151   5.816  12.140  0.4348  0.2641  0.0424
42075W        W50875   0.157   0.422   0.061 -0.0990 -0.0114 -0.0476
42076W        W50876  16.088   5.959  31.843 -0.3803  0.4349 -0.0043
42077W        W50877  16.946   3.430  30.102 -0.3495 -0.0013  0.0649
42078W        W50878  15.550   3.191  28.679  0.1691  0.0941  0.0435
42079W        W50879  19.861   7.418  32.477  0.1074  0.0767  0.0502
42080W        W50880  20.154   0.980  15.074  0.0036  0.0375  0.1613
42081W        W50881   1.577   3.622  30.751 -0.0569  0.0171  0.0356
42082W        W50882   9.834   0.618  10.322 -0.0376  0.0408  0.0515
42083W        W50883  13.355   6.076  10.240 -0.0823  0.1249 -0.0826
42084W        W50884   1.208   4.639   7.337 -0.0409 -0.3058 -0.0159
42085W        W50885   8.140   3.644   2.806  0.0373 -0.0926 -0.1724
42086W        W50886  16.138   1.852  16.297 -0.1296 -0.1560 -0.1549
42087W        W50887  25.122   0.051  29.330  0.2957  0.0219 -0.1079
42088W        W50888   1.073   2.604  30.199 -0.1005  0.2875  0.0358
42089W        W50889  15.056   4.347   9.941 -0.0676 -0.0734  0.0449
42090W        W50890  13.454   2.613  23.870 -0.2239 -0.2836  0.0296
42091W        W50891  24.267   5.784  12.660  0.1397 -0.0791  0.0478
42092W        W50892   1.995   6.004  26.353 -0.2210 -0.0436 -0.0192
42093W        W50893  11.730   2.996  29.432  0.1674  0.0147 -0.0634
42094W        W50894   2.307   6.577  23.690  0.3385  0.1357  0.1117
42095W        W50895   2.506   6.517   6.129 -0.1285 -0.1720  0.0749
42096W        W50896  16.505   4.185   0.646  0.0366 -0.1326 -0.2149
42097W        W50897   9.653   4.285   4.520  0.0250  0.1458 -0.4305
42098W        W50898  21.210   5.665   4.452  0.0052  0.3593  0.2453
42099W        W50899   1.859   7.016  20.834  0.3776 -0.1502 -0.1910
42100W        W50900  15.782   1.700  11.127 -0.0761  0.0637 -0.2206
42101W        W50901  10.137   0.996  24.830 -0.0869  0.1791  0.1969
42102W        W50902  18.714   2.132  15.504 -0.0278  0.2425 -0.2543
42103W        W50903   4.149   2.614   6.886  0.1106 -0.1618  0.0831
42104W        W50904  10.532   4.278   1.670  0.0000 -0.1111  0.0310
42105W        W50905   7.211   4.237   9.814  0.2517 -0.2483 -0.0033
42106W        W50906  10.401   2.440  30.220 -0.1430 -0.1324 -0.1181
42107W        W50907   1.128   1.482  17.912  0.0893  0.0286  0.0609
42108W        W50908   4.289   3.684  10.604  0.1002 -0.2191 -0.1418
42109W        W50909  14.978   0.459  12.002  0.0492 -0.0200  0.0889
42110W        W50910  12.911   5.543  31.976  0.0489  0.0183 -0.2347
42111W        W50911  21.474   5.898   5.807  0.2825 -0.1821  0.1579
42112W        W50912  24.954   6.119   2.482  0.3052  0.0194 -0.1135
42113W        W50913  17.608   7.529  32.023  0.2396 -0.2124  0.1230
42114W        W50914   9.852   2.416  19.287 -0.0110  0.3131  0.2368
42115W        W50915  19.350   4.030   8.284 -0.2467 -0.0396 -0.2123
42116W        W50916   7.080   2.031  27.410 -0.0507  0.2501 -0.1282
42117W        W50917   1.359   0.611   1.852  0.0106  0.1224  0.0312
42118W        W50918   6.442   2.685   8.371  0.0442  0.3332 -0.0400
42119W        W50919   1.168   4.473   6.851 -0.0242  0.0647  0.1693
42120W        W50920   7.607   4.548  20.296 -0.0402 -0.1408  0.2478
42121W        W50921   7.670   5.443  32.346  0.4388  0.0968  0.0382
42122W        W50922  24.514   7.578  31.058 -0.0234  0.0057  0.0611
42123W        W50923  18.287   6.720  15.197 -0.1962 -0.2608  0.1336
42124W        W50924   5.502   3.150  20.168 -0.0526  0.0255 -0.1182
42125W        W50925  21.316   6.904   7.951  0.1331  0.0843 -0.2841
42126W        W50926  19.357   7.310   1.995 -0.2326  0.2498 -0.0005
42127W        W50927  17.186   4.079  26.623 -0.1887  0.0570  0.2610
42128W        W50928  10.442   5.232  29.976 -0.0624  0.1787 -0.1200
42129W        W50929  14.080   1.269  23.178 -0.2647 -0.0014  0.1764
42130W        W50930   7.178   0.765   5.806 -0.0999  0.1511 -0.0633
42131W        W50931  18.265   2.099  31.550  0.2687  0.2910  0.1878
42132W        W50932   2.765   5.090  28.743  0.1946  0.3183  0.2397
42133W        W50933  22.406   3.733  23.494  0.0099  0.0480  0.1681
42134W        W50934  14.634   1.994  25.765 -0.1915 -0.1232  0.3541
42135W        W50935  19.693   7.089  16.699 -0.1288 -0.0106  0.0872
42136W        W50936  18.624   0.504   1.205 -0.0772 -0.2415 -0.1789
42137W        W50937   3.943   6.148  24.169  0.3623  0.2142 -0.3113
42138W        W50938  10.353   0.481   8.558 -0.1766  0.0525  0.1514
42139W        W50939  23.108   6.142  31.509  0.0768  0.1001  0.2076
42140W        W50940   1.864   5.431   5.553 -0.0815  0.2552  0.0075
42141W        W50941  17.095   2.356  10.762 -0.2005  0.2139 -0.0682
42142W        W50942   3.787   1.955  30.445  0.0485 -0.0373  0.1151
42143W        W50943  10.103   1.266  26.805  0.2042 -0.0035 -0.0633
42144W        W50944  14.805   5.467  13.608  0.0776  0.1180 -0.0041
42145W        W50945  22.280   6.941   9.841 -0.0390 -0.3349  0.3237
42146W        W50946  12.154   7.807  11.072 -0.1258  0.0964  0.3358
42147W        W50947   2.030   3.251   3.005  0.2452  0.2684 -0.1360
42148W        W50948   9.915   5.620  19.351 -0.2648 -0.1584  0.0067
42149W        W50949  19.702   0.786  26.608 -0.2645  0.1335 -0.1895
42150W        W50950  21.269   4.276  29.193 -0.3539  0.0873  0.0090
42151W        W50951  12.373   2.234  31.396  0.2816  0.0009  0.6018
42152W        W50952  12.851   3.216   1.680 -0.1417  0.2230 -0.0501
42153W        W50953  19.604   0.460   8.649 -0.2807  0.2458  0.0665
42154W        W50954  15.993   2.794  17.208  0.3342  0.2806 -0.0066
42155W        W50955   9.364   3.196  21.663 -0.2645  0.0858  0.0948
42156W        W50956   4.307   5.492  31.375  0.0948 -0.0527 -0.1619
42157W        W50957  15.884   4.829  26.428  0.1985 -0.1023  0.1848
42158W        W50958  17.756   2.284  16.272  0.1845 -0.3539  0.2642
42159W        W50959  24.072   3.984   9.544 -0.1531  0.2030  0.0896
42160W        W50960   3.312   1.148  26.256 -0.3402 -0.0717  0.0805
42161W        W50961   1.266   0.936  26.436  0.0159 -0.0445  0.0413
42162W        W50962  12.582   1.054  21.557  0.1389 -0.2464 -0.1201
42163W        W50963   0.326   6.556  26.977  0.1345 -0.1329 -0.1688
42164W        W50964  17.559   0.234  17.164  0.1056 -0.0889  0.1103
42165W        W50965  22.112   4.750  16.496  0.1269 -0.0301  0.3063
42166W        W50966  15.925   1.666  22.738  0.1367 -0.0879  0.0958
42167W        W50967   8.661   6.432   8.188  0.2763 -0.4254  0.3149
42168W        W50968   5.433   3.099  22.672  0.0399  0.0447 -0.0756
42169W        W50969   4.084   1.000  10.063 -0.3057  0.0540 -0.2349
42170W        W50970  20.117   0.087  24.947  0.0385 -0.0724 -0.0097
42171W        W50971  15.440   4.175   9.335 -0.0829  0.0926 -0.2788
42172W        W50972   9.998   6.455  20.693 -0.0276  0.1464 -0.1882
42173W        W50973  14.586   2.504  29.746  0.0808  0.0818 -0.2638
42174W        W50974  18.343   3.298   6.398  0.2108  0.1034  0.2493
42175W        W50975   3.472   5.156  17.249 -0.0431 -0.2594 -0.0903
42176W        W50976   3.967   7.110   5.209 -0.2933 -0.1394  0.1650
42177W        W50977  15.090   0.643   4.325  0.1057 -0.0536  0.1033
42178W        W50978  24.827   0.102  20.585 -0.1250  0.0530  0.1021
42179W        W50979   4.893   1.611  22.000  0.2600 -0.0895 -0.1923
42180W        W50980   8.935   7.761   9.898 -0.0765  0.3693 -0.1219
42181W        W50981  21.919   7.474  24.943  0.2682 -0.1931  0.1845
42182W        W50982  18.674   7.257   6.448 -0.0267  0.2846  0.0495
42183W        W50983  10.272   6.879   6.820  0.4038 -0.3481 -0.0181
42184W        W50984  23.862   3.653  25.598  0.0836 -0.1435  0.1013
42185W        W50985  11.600   4.916   2.943  0.1832  0.1425  0.2741
42186W        W50986  19.745   1.252  27.380 -0.0955  0.0126  0.2661
42187W        W50987  15.200   3.229  26.940 -0.0633 -0.1447  0.0205
42188W        W50988  10.208   2.134  22.513 -0.0794  0.1051  0.1473
42189W        W50989  21.698   1.427   1.464  0.2157 -0.0110  0.0388
42190W        W50990  14.163   5.780   3.591 -0.2441  0.0260 -0.0848
42191W        W50991   5.680   1.657  32.365  0.2350  0.0103 -0.0235
42192W        W50992  23.757   1.979  27.708 -0.0971  0.4777 -0.4381
42193W        W50993   4.560   5.011   8.004  0.1595  0.2788 -0.0394
42194W        W50994  14.436   2.896  25.061 -0.2046 -0.1876 -0.0333
42195W        W50995   4.532   0.203  25.566  0.0847  0.0848 -0.0096
42196W        W50996  13.758   5.313  27.259 -0.3433  0.2051 -0.0076
42197W        W50997   5.777   7.037   0.960  0.1136 -0.0578  0.3032
42198W        W50998   9.050   0.520  15.857  0.2307  0.1538  0.0557
42199W        W50999  23.012   1.586  28.705 -0.1184 -0.0994  0.4587
42200W        W51000  10.827   7.155   1.747  0.3152 -0.1065 -0.1238
42201W        W51001  18.850   0.331  31.256 -0.2703  0.0126  0.1875
42202W        W51002   4.894   3.198  21.708 -0.3130  0.1668  0.0469
42203W        W51003  19.099   1.221  23.892 -0.0055 -0.2008 -0.0052
42204W        W51004   4.268   2.941  15.831 -0.1440 -0.1243  0.1854
42205W        W51005  15.810   1.771  26.534  0.1531  0.0662  0.3657
42206W        W51006  15.423   0.725  25.891 -0.0462  0.0718 -0.2198
42207W        W51007  15.289   5.590   9.011 -0.1370 -0.1098 -0.0057
42208W        W51008  13.107   2.013   1.911 -0.0208 -0.2426  0.0346
42209W        W51009  19.420   7.223  27.555  0.1685 -0.2476 -0.1732
42210W        W51010  23.420   7.666  30.003 -0.1256 -0.0118 -0.0247
42211W        W51011  14.455   6.287   1.457  0.4001  0.2065 -0.2466
42212W        W51012   9.475   0.629  31.874 -0.2030 -0.0049 -0.2654
42213W        W51013  21.779   7.253   3.229 -0.1387 -0.1008 -0.2386
42214W        W51014   0.580   7.695  19.797  0.2480  0.2319 -0.3666
42215W        W51015  23.245   3.271   1.668  0.2116 -0.2964 -0.1031
42216W        W51016  15.854   0.258   6.487  0.1972  0.1387 -0.1994
42217W        W51017  21.669   6.927  27.975  0.4333 -0.1248  0.0066
42218W        W51018  15.208   2.519  26.304 -0.0416 -0.3576 -0.0437
42219W        W51019  13.778   5.278   4.466  0.3225  0.1552 -0.1451
42220W        W51020  11.056   1.165  20.890  0.0690 -0.1179  0.0875
42221W        W51021  21.932   5.618   7.541  0.1065 -0.1421  0.0974
42222W        W51022  19.334   0.416  23.054 -0.3682 -0.1123 -0.0010
42223W        W51023   1.532   2.366  11.841  0.0743 -0.2717 -0.1302
42224W        W51024  23.766   4.698  20.725  0.0916  0.0201 -0.0122
42225W        W51025   9.944   2.464  31.009  0.0327  0.2664  0.0639
42226W        W51026  13.590   3.026   2.091  0.0416  0.1452 -0.0728
42227W        W51027  15.848   5.264  12.616  0.4943 -0.0178 -0.0088
42228W        W51028   9.114   6.283  32.055  0.2411  0.2228 -0.0335
42229W        W51029  11.108   3.976  10.744  0.0213  0.2357  0.0692
42230W        W51030  21.832   2.959  17.556  0.3136  0.1834  0.1033
42231W        W51031   6.699   2.208  15.193 -0.3024 -0.1122  0.0229
42232W        W51032   9.790   1.067  10.012 -0.1198  0.0298  0.1028
42233W        W51033   6.992   2.851  32.522  0.1907  0.2638  0.1777
42234W        W51034   5.254   1.513   7.244  0.1456  0.0499  0.1078
42235W        W51035  10.271   3.612  29.503  0.2409  0.1159 -0.2502
42236W        W51036   7.414   0.364  17.302  0.0421 -0.1717 -0.1122
42237W        W51037   7.015   3.491   7.314  0.0541  0.3497  0.0091
42238W        W51038   7.459   3.506   6.152  0.1214  0.3856 -0.2050
42239W        W51039   7.399   4.954  31.532 -0.0574  0.1654 -0.0721
42240W        W51040  20.122   4.475   9.247 -0.2230  0.0311  0.0310
42241W        W51041  15.756   5.360   9.366  0.0658  0.1764 -0.0309
42242W        W51042  22.243   4.377  31.873 -0.1706 -0.0993  0.0826
42243W        W51043  24.188   1.210  26.809 -0.3444 -0.0847  0.1458
42244W        W51044  13.369   4.579  21.787  0.1558  0.1479 -0.0365
42245W        W51045  21.901   2.867  12.129 -0.0763 -0.0818  0.0347
42246W        W51046  22.165   0.575  31.564  0.1844  0.0071 -0.2448
42247W        W51047  18.017   0.464   9.787  0.3084 -0.1268  0.0765
42248W        W51048   9.431   6.051   0.949  0.2120 -0.1885  0.0335
42249W        W51049   4.427   6.945   2.473  0.1616  0.3230  0.1963
42250W        W51050  18.426   2.724  26.619 -0.0142 -0.0442  0.0740
42251W        W51051  10.026   5.509   0.057 -0.0998 -0.0952  0.0265
42252W        W51052   6.453   7.752  16.775  0.0375  0.1111 -0.0559
42253W        W51053  15.749   5.995   8.337  0.0401 -0.0454 -0.1959
42254W        W51054  24.260   3.368  25.561 -0.0827  0.4075 -0.1629
42255W        W51055  12.518   0.253  24.309  0.2144 -0.1745  0.2678
42256W        W51056   8.549   5.635   6.700  0.2588 -0.2358 -0.0616
42257W        W51057  24.463   0.728  29.560 -0.0079 -0.2028 -0.1219
42258W        W51058  20.945   6.053  26.857 -0.0803  0.3579 -0.3510
42259W        W51059  10.663   7.007   9.980  0.1235 -0.1674  0.1642
42260W        W51060   2.322   1.884  10.926 -0.1756  0.1913  0.0607
42261W        W51061   4.727   1.039  31.782  0.0830  0.0064  0.1871
42262W        W51062  24.118   2.996   2.273  0.0054  0.3352  0.1820
42263W        W51063   8.503   7.634  26.837  0.0780  0.0637  0.0549
42264W        W51064  16.389   2.745  31.556  0.0402  0.1190 -0.1900
42265W        W51065  12.879   7.591   0.659 -0.1552 -0.0974  0.1189
42266W        W51066  20.796   0.755   3.915 -0.0692  0.0627 -0.4271
42267W        W51067   1.587   0.032  21.221  0.2721  0.1046  0.0579
42268W        W51068  19.790   0.064  10.034 -0.0909  0.2829 -0.0780
42269W        W51069  19.028   7.546  27.520  0.1849 -0.2910  0.1618
42270W        W51070  12.730   0.395  27.359  0.0585  0.0359 -0.0507
42271W        W51071   6.287   1.547  25.765 -0.0911 -0.0218 -0.0080
42272W        W51072  16.034   1.494  27.974  0.3703 -0.0391 -0.2286
42273W        W51073  12.649   1.005  23.763 -0.0478 -0.2180 -0.2060
42274W        W51074  19.711   7.298   2.634  0.1150  0.2963 -0.2461
42275W        W51075   9.053   5.274  24.010 -0.1414  0.1845 -0.1065
42276W        W51076   0.628   7.362  22.031  0.1524 -0.4437  0.2023
42277W        W51077  24.282   0.646  14.393  0.1619 -0.1605 -0.2698
42278W        W51078  23.235   6.394   3.143  0.0411  0.3293 -0.0336
42279W        W51079  20.108   0.546   5.583  0.4090 -0.1531 -0.2258
42280W        W51080  12.150   3.610  25.807 -0.0395 -0.0561  0.0528
42281W        W51081   7.541   2.777  20.861  0.0759  0.2201 -0.1100
42282W        W51082   5.866   7.527   1.164  0.2576 -0.2262 -0.1740
42283W        W51083   3.942   2.845  11.041 -0.1191 -0.0655  0.0174
42284W        W51084  20.383   0.089   5.651 -0.2817  0.0661 -0.0738
42285W        W51085  22.639   2.718   7.104  0.1023  0.1965 -0.2986
42286W        W51086  16.449   4.019  24.464 -0.0894 -0.0716  0.0371
42287W        W51087  20.753   6.846  10.015 -0.1968  0.0676 -0.0597
42288W        W51088   8.717   1.201  25.665 -0.1877  0.2344 -0.3110
42289W        W51089  23.090   4.747   5.454  0.3419 -0.1252 -0.1003
42290W        W51090  12.009   2.280  27.277 -0.0147  0.1021 -0.1884
42291W        W51091   7.317   1.245  28.586  0.1935 -0.2372  0.2901
42292W        W51092   3.747   2.933  19.885  0.2126  0.4163  0.0711
42293W        W51093  20.091   2.923  17.902  0.0404 -0.2541 -0.2279
42294W        W51094   7.437   2.798  19.363  0.0491  0.2406  0.0189
42295W        W51095   9.608   3.628   3.303  0.2534  0.0006  0.2118
42296W        W51096  11.330   6.604   2.973 -0.0788 -0.1740  0.2636
42297W        W51097   0.537   2.324   4.977  0.1571  0.1632 -0.1026
42298W        W51098  20.370   0.781  16.472  0.1378  0.1011  0.0978
42299W        W51099  10.373   2.361   1.155 -0.1537  0.0517 -0.0523
42300W        W51100   3.036   5.136  16.959  0.1017 -0.1497  0.0816
42301W        W51101   8.234   4.141  32.204 -0.1422 -0.1072 -0.0155
42302W        W51102   9.897   6.940  27.251 -0.0231 -0.0598  0.0354
42303W        W51103   8.886   6.557  18.049 -0.0938 -0.2413 -0.0857
42304W        W51104   3.870   7.347  19.122  0.0838 -0.0615  0.1497
42305W        W51105   9.036   7.779  29.813  0.0738 -0.0173 -0.0519
42306W        W51106   5.629   6.474  27.924 -0.0124  0.0844  0.0987
42307W        W51107  24.258   3.026   4.090  0.0683 -0.1675 -0.2024
42308W        W51108  14.473   0.167   2.778 -0.0177 -0.1814 -0.3101
42309W        W51109   5.387   0.515  16.247  0.2046  0.0379  0.1351
42310W        W51110  20.105   2.561  22.589  0.1252 -0.1191  0.0716
42311W        W51111   9.922   2.940  17.039 -0.1944  0.2848 -0.4074
42312W        W51112  11.101   0.472  27.868  0.1511  0.0986 -0.0585
42313W        W51113   6.203   4.582   6.588  0.1023  0.0025 -0.1253
42314W        W51114   1.589   4.111  21.763  0.1141 -0.1924  0.1432
42315W        W51115   5.554   4.124   7.892  0.0068 -0.2683  0.0205
42316W        W51116   9.491   6.771  10.225 -0.1892 -0.3266 -0.0106
42317W        W51117  13.628   0.486  26.753  0.2029  0.3803  0.0402
42318W        W51118  23.347   3.422  25.494  0.1510 -0.0563  0.2444
42319W        W51119  16.484   1.175  14.578  0.0593 -0.1541  0.1441
42320W        W51120   1.437   1.217  22.709  0.0277  0.0396 -0.0543
42321W        W51121  20.469   3.482  10.688  0.1004  0.0082 -0.1090
42322W        W51122  14.412   4.519   5.980 -0.0926 -0.0471 -0.0654
42323W        W51123   7.744   0.716  28.481 -0.2282  0.0628 -0.0699
42324W        W51124   4.158   6.500   1.761  0.1524  0.1750  0.1816
42325W        W51125   1.906   4.838  31.664  0.0672  0.1194 -0.0961
42326W        W51126  21.280   3.740   6.715  0.1576  0.1405 -0.0961
42327W        W51127  14.269   7.821  28.571 -0.0723  0.0416  0.0641
42328W        W51128  11.099   2.554  25.304  0.0956 -0.0509  0.1238
42329W        W51129   4.267   0.498  21.478 -0.2244  0.2191 -0.0070
42330W        W51130  10.596   7.068  32.145  0.1629 -0.1339  0.0465
42331W        W51131   1.608   0.237  11.037 -0.0889 -0.1474 -0.0748
42332W        W51132   2.188   4.775  26.318  0.1158  0.2060  0.0560
42333W        W51133  13.162   0.792   4.248 -0.2962  0.1109 -0.0365
42334W        W51134  19.212   6.351   2.451  0.2670  0.3412 -0.0922
42335W        W51135  10.632   7.009   1.246 -0.2305 -0.1868  0.1077
42336W        W51136  16.937   0.114  30.970 -0.2494 -0.3134  0.1293
42337W        W51137   9.524   3.878  30.753  0.0730  0.1932  0.0131
42338W        W51138  19.133   6.307  11.949  0.1049  0.2182 -0.2849
42339W        W51139  16.921   6.384   4.609 -0.1128 -0.1901 -0.0059
42340W        W51140   7.646   6.691  16.028 -0.1685  0.2041  0.1950
42341W        W51141  18.761   6.894  16.780  0.2777  0.0865 -0.0422
42342W        W51142   2.758   2.091   3.499 -0.2120  0.0590 -0.0269
42343W        W51143   8.646   7.327  30.717  0.2161 -0.1640  0.1317
42344W        W51144  12.484   7.341   9.501 -0.0441 -0.0088  0.3521
42345W        W51145   2.829   6.476   4.741  0.0010 -0.0631  0.0538
42346W        W51146  16.629   6.995  22.272  0.1024  0.1656 -0.0550
42347W        W51147   6.603   5.103  22.896  0.0864 -0.1025 -0.2159
42348W        W51148   3.115   2.323   7.162 -0.1016 -0.0563  0.1437
42349W        W51149   1.190   7.671  32.128  0.2407 -0.2314  0.3667
42350W        W51150   9.714   6.109  23.628  0.0849 -0.1372  0.1803
42351W        W51151  11.547   2.913  26.949 -0.0354 -0.0141  0.0669
42352W        W51152   2.187   3.976  23.547 -0.1833 -0.0724  0.0359
42353W        W51153  14.774   6.328  23.911  0.4171  0.0082 -0.3233
42354W        W51154  19.470   5.188   8.086 -0.3576 -0.0488 -0.1394
42355W        W51155  20.699   5.685  32.172  0.2641 -0.0184 -0.0245
42356W        W51156  10.708   7.231   3.298  0.1782  0.0691 -0.0296
42357W        W51157   9.490   0.809   4.832  0.1262 -0.0592  0.0524
42358W        W51158   6.906   0.102   2.579  0.3367 -0.2071 -0.1446
42359W        W51159  11.063   3.637  17.632 -0.0297 -0.2348  0.2142
42360W        W51160  10.738   2.223   6.495  0.2370 -0.0762 -0.0212
42361W        W51161   4.309   1.645  31.177 -0.0573  0.2519  0.0349
42362W        W51162  21.192   1.632  13.824  0.2063  0.1556  0.1974
42363W        W51163  22.132   0.355  11.766  0.1579 -0.0306 -0.2687
42364W        W51164   6.271   3.062  16.967  0.0050 -0.0710 -0.0130
42365W        W51165  21.507   2.504  12.136 -0.1350  0.2146  0.2196
42366W        W51166  12.773   7.363  10.627 -0.1532  0.1524 -0.5896
42367W        W51167  12.477   7.010   2.816 -0.0097 -0.2541  0.4181
42368W        W51168   5.842   6.927  24.961 -0.0595 -0.0713  0.2410
42369W        W51169  17.123   4.536  31.594  0.2647  0.0448 -0.0766
42370W        W51170   4.102   6.368  31.972 -0.0611 -0.0439 -0.0795
42371W        W51171   8.406   0.265  25.721 -0.0028 -0.0801  0.1817
42372W        W51172  11.014   5.725  25.319  0.0946  0.1612  0.0062
42373W        W51173  17.219   0.066   7.347 -0.0731  0.2635  0.3197
42374W        W51174   8.061   5.946   2.536  0.0821  0.1804 -0.0886
42375W        W51175  16.270   2.504  16.940  0.0274  0.0509 -0.0641
42376W        W51176   1.306   2.022   4.420 -0.0305  0.0622  0.0136
42377W        W51177  15.813   3.320   8.005  0.1122 -0.0295  0.1061
42378W        W51178   9.189   5.558  19.830 -0.0362 -0.1517  0.5119
42379W        W51179  22.778   2.602  22.280  0.0734  0.0841  0.1366
42380W        W51180  12.729   5.190  24.777  0.1890 -0.0446 -0.0711
42381W        W51181  11.461   0.780  17.214 -0.2478  0.0229  0.2209
42382W        W51182   0.283   5.422  11.819  0.0658 -0.3691  0.3166
42383W        W51183  10.083   5.628   3.403  0.2120  0.1735  0.0535
42384W        W51184   8.050   1.245   8.426  0.1665 -0.0116  0.2979
42385W        W51185  18.620   6.550  15.533  0.1362  0.5114 -0.0396
42386W        W51186  10.869   4.393  22.675  0.3106 -0.4127  0.1589
42387W        W51187  18.096   4.008  11.364  0.1371 -0.0019  0.2874
42388W        W51188   5.434   2.678   1.004 -0.2219  0.1144  0.2368
42389W        W51189  14.905   0.460  28.621  0.1655 -0.2334  0.0276
42390W        W51190   0.439   5.272  29.964  0.0740 -0.2347 -0.1412
42391W        W51191  22.561   3.998   1.680  0.0402  0.1131 -0.3153
42392W        W51192  11.398   3.139  18.115  0.0619  0.0036 -0.1413
42393W        W51193   1.388   6.583   4.787  0.2056  0.0704 -0.3994
42394W        W51194  12.889   1.082   8.425 -0.1436  0.1329 -0.0955
42395W        W51195  12.527   7.674  20.998 -0.0571 -0.1677  0.0471
42396W        W51196  18.699   1.579   6.773  0.0993  0.0685 -0.0865
42397W        W51197   6.324   6.054  26.731  0.0107  0.2461  0.3691
42398W        W51198  17.760   4.905  14.077  0.1177 -0.0349 -0.2930
42399W        W51199  10.809   3.381  27.632 -0.0370 -0.0548  0.0942
42400W        W51200  23.999   0.822  25.389 -0.2471 -0.0571  0.2760
42401W        W51201  19.962   2.390  15.408  0.1505  0.0494 -0.0565
42402W        W51202  17.838   4.098  22.626 -0.4053  0.0239  0.1514
42403W        W51203  23.942   7.209   1.355 -0.0376  0.1103 -0.0984
42404W        W51204  17.226   3.063  16.261 -0.1982 -0.4325  0.0244
42405W        W51205   3.683   4.404  32.018  0.1017 -0.2914 -0.1384
42406W        W51206  13.174   1.615  10.011  0.0799  0.0785 -0.0346
42407W        W51207  18.513   6.791   9.582 -0.0015  0.1878 -0.0611
42408W        W51208  21.104   6.175  24.927 -0.2560 -0.2599 -0.0050
42409W        W51209   3.278   6.613  15.799 -0.5104  0.3909  0.1015
42410W        W51210  18.233   1.959   0.732 -0.1318 -0.2143 -0.0059
42411W        W51211  18.733   5.921  28.452 -0.0473 -0.0505  0.1834
42412W        W51212   3.898   3.611  25.548 -0.3281 -0.0803  0.1344
42413W        W51213   5.800   1.751  29.228 -0.0452 -0.1018  0.0072
42414W        W51214   5.717   6.360   5.478 -0.1755 -0.2393 -0.4245
42415W        W51215   9.916   3.574  26.296  0.1223  0.0623  0.1715
42416W        W51216   6.717   1.880  16.177  0.2187  0.3014  0.0442
42417W        W51217  10.200   2.588  29.064  0.0373  0.2399 -0.1113
42418W        W51218  20.708   3.394  11.608  0.0275 -0.0224  0.1980
42419W        W51219   4.972   1.772   8.016  0.0127  0.0530  0.1085
42420W        W51220   1.678   2.572  10.913 -0.0647  0.1751  0.1494
42421W        W51221   7.359   6.322  14.424 -0.1393  0.0231 -0.3948
42422W        W51222   9.869   1.133   1.414 -0.2358  0.2491  0.0390
42423W        W51223   6.035   1.055  15.694  0.1309 -0.0178  0.1201
42424W        W51224   8.840   1.779   3.808 -0.1780 -0.0301  0.2156
42425W        W51225  21.630   2.066  11.904  0.2353 -0.1781  0.1067
42426W        W51226  23.965   3.579   9.275 -0.0537  0.0106 -0.2596
42427W        W51227   1.565   6.847  28.940  0.1119 -0.0021  0.2710
42428W        W51228  14.917   4.975   0.959  0.0336  0.3381 -0.2544
42429W        W51229  12.236   2.297   5.120  0.0449 -0.0698 -0.1804
42430W        W51230   9.407   0.749   6.866  0.4429 -0.1364  0.0456
42431W        W51231   8.130   5.942   7.485  0.3580 -0.1444 -0.2059
42432W        W51232  24.771   6.278   4.818  0.1041 -0.0913  0.1348
42433W        W51233  17.560   7.762  31.518 -0.0792  0.1448  0.3763
42434W        W51234  19.762   1.931  30.736  0.1914 -0.0560  0.1187
42435W        W51235  12.601   2.660   7.841 -0.1314 -0.0368  0.0520
42436W        W51236  24.405   3.896  24.639  0.0005 -0.1535  0.3044
42437W        W51237  20.830   2.613   1.380 -0.0554  0.1306  0.1742
42438W        W51238  13.265   6.510   0.123 -0.0965 -0.0689 -0.0790
42439W        W51239  14.369   4.102  29.035  0.1213  0.0446  0.0881
42440W        W51240  12.035   0.534  11.617 -0.1636  0.0743 -0.0595
42441W        W51241   6.171   1.821  31.120  0.3922  0.0537 -0.1782
42442W        W51242   8.980   7.682   7.947 -0.0703 -0.2754 -0.1572
42443W        W51243  21.439   2.760   1.912 -0.2937  0.1384  0.3066
42444W        W51244  21.368   7.834   0.414  0.0667  0.1768 -0.0608
42445W        W51245  19.510   5.215  29.418 -0.4787  0.1014  0.0491
42446W        W51246   2.341   5.363  21.706 -0.1327 -0.0974 -0.2564
42447W        W51247  11.206   7.404   3.014  0.2713  0.4212  0.0431
42448W        W51248  23.388   2.909  31.082  0.4564  0.0529  0.3041
42449W        W51249   0.034   6.770  23.919 -0.3073  0.1278  0.0421
42450W        W51250  13.567   2.598  29.622 -0.0237 -0.2286 -0.0972
42451W        W51251  14.668   1.862   1.953 -0.3069 -0.0326  0.0074
42452W        W51252  22.434   3.141  25.259  0.0013  0.0088  0.2892
42453W        W51253  17.341   1.496  14.077  0.0404 -0.0165 -0.3575
42454W        W51254   7.586   2.019  22.417  0.0713 -0.2574 -0.2025
42455W        W51255   5.448   2.102  16.628  0.0382 -0.3114  0.0799
42456W        W51256   4.770   0.238  31.405  0.1837 -0.2144 -0.1986
42457W        W51257  23.031   6.898   0.301  0.0564 -0.0347  0.1484
42458W        W51258  17.577   0.696   5.703 -0.1126 -0.0252  0.0479
42459W        W51259   6.994   7.752  27.860 -0.3595 -0.0352 -0.1306
42460W        W51260  19.048   7.823   3.036  0.0717  0.1602 -0.2659
42461W        W51261  25.143   2.999  11.194  0.0432 -0.2162  0.1294
42462W        W51262   3.585   0.185   5.803 -0.0605  0.2207 -0.0100
42463W        W51263  14.054   6.975   0.221 -0.0222 -0.2972 -0.2431
42464W        W51264   4.707   5.683  25.767 -0.1160  0.0782 -0.2199
42465W        W51265  11.308   3.254   2.614  0.0265  0.1935  0.1035
42466W        W51266   7.202   2.581  27.993  0.1053 -0.1298  0.1538
42467W        W51267  17.536   5.301  13.095  0.3079 -0.0468 -0.0382
42468W        W51268   2.245   4.430  27.622 -0.3082 -0.0347  0.0394
42469W        W51269   5.313   1.652  29.351 -0.3053 -0.0225  0.0359
42470W        W51270   1.008   2.133  11.145  0.0653 -0.0370  0.1755
42471W        W51271   8.920   5.160  18.921  0.1225 -0.2246  0.0852
42472W        W51272  23.684   7.597   4.440 -0.0351  0.0668 -0.0611
42473W        W51273   3.607   3.113   0.032  0.1286 -0.0899  0.0544
42474W        W51274   0.722   1.488  27.130 -0.1745  0.0141  0.0338
42475W        W51275   4.982   7.668  26.165 -0.1101  0.0628 -0.0295
42476W        W51276   3.260   7.583   1.306  0.0254 -0.2493  0.0833
42477W        W51277  19.837   1.187  23.121  0.0107  0.1281 -0.1657
42478W        W51278  15.545   3.640   1.301 -0.0316  0.0690 -0.0698
42479W        W51279   7.503   3.278  26.125 -0.0774 -0.1890  0.2150
42480W        W51280   3.508   1.815  23.511  0.1780  0.0255 -0.0941
42481W        W51281  11.672   4.138  21.317  0.2911  0.0192 -0.0432
42482W        W51282  22.651   4.903   5.227  0.1290 -0.0314 -0.0324
42483W        W51283  12.614   1.335   2.910  0.2248  0.1655  0.0961
42484W        W51284   7.014   0.802   1.698 -0.0758 -0.1491 -0.3493
42485W        W51285  22.365   2.847   9.183 -0.1898 -0.2322 -0.2320
42486W        W51286  17.309   4.388  23.892  0.0395  0.0493  0.0218
42487W        W51287  24.068   3.299  27.172  0.0132 -0.4559  0.0902
42488W        W51288  13.408   1.949  27.051  0.0180 -0.0082 -0.1696
42489W        W51289   7.931   0.625  27.580 -0.2368  0.2821 -0.3227
42490W        W51290  24.832   4.063  26.331 -0.2137 -0.0511  0.0272
42491W        W51291  17.505   2.931  22.031 -0.1453 -0.1610 -0.2515
42492W        W51292  17.422   5.484  16.750  0.0741  0.1295 -0.1594
42493W        W51293  14.642   0.901   5.678 -0.0002 -0.1818 -0.0349
42494W        W51294   6.513   0.308  27.499  0.1894 -0.0203 -0.1877
42495W        W51295  22.866   5.857  25.488  0.3483  0.0868  0.1234
42496W        W51296  20.160   1.684  23.769  0.1132 -0.0546 -0.2932
42497W        W51297  23.882   2.514  11.816 -0.0738 -0.1035 -0.0923
42498W        W51298  16.274   2.859   9.380 -0.1957  0.1552  0.2337
42499W        W51299  11.483   5.932  24.583 -0.1496 -0.0371  0.2294
42500W        W51300  14.918   2.401  25.646  0.0974  0.2291 -0.2954
42501W        W51301  17.110   5.210  13.348 -0.2433  0.0054 -0.0941
42502W        W51302  25.096   5.836  31.627 -0.3200 -0.0022 -0.3932
42503W        W51303  14.283   7.555  21.537  0.0995  0.1970 -0.0117
42504W        W51304  15.880   0.231  26.405  0.1226  0.0129 -0.1598
42505W        W51305  18.661   4.403  23.850  0.0192  0.1480  0.1386
42506W        W51306  22.477   6.805  27.386 -0.2319 -0.2197  0.0209
42507W        W51307   4.029   0.843  27.987 -0.3248  0.1899 -0.1847
42508W        W51308   5.627   3.027  28.849  0.1372  0.1250 -0.0977
42509W        W51309  11.574   1.732   1.494  0.0999 -0.0386 -0.0646
42510W        W51310   1.763   4.798   0.007 -0.0332  0.2581  0.0576
42511W        W51311  20.671   5.639  10.341  0.0006  0.2229  0.1666
42512W        W51312   7.178   0.318  23.159  0.0259  0.1234 -0.1000
42513W        W51313   9.473   0.621   9.066 -0.0314 -0.0475 -0.0067
42514W        W51314  21.174   4.542   8.928 -0.0581  0.4941  0.0458
42515W        W51315  13.087   2.842  20.279 -0.0420 -0.0106  0.0114
42516W        W51316  16.072   7.070   7.283 -0.1280 -0.0090  0.1550
42517W        W51317  10.792   6.624  17.275  0.0077 -0.0823 -0.2187
42518W        W51318   7.898   3.412  18.084 -0.0399  0.5635  0.1318
42519W        W51319  20.101   4.149  29.810  0.0180  0.4496 -0.2506
42520W        W51320  23.469   3.726   2.020  0.0668  0.1684 -0.1393
42521W        W51321   4.329   2.895   4.326 -0.2757  0.1955 -0.1765
42522W        W51322   3.312   0.109  21.578 -0.3469  0.0664 -0.0855
42523W        W51323  12.449   4.375  10.507  0.2434 -0.1024  0.2557
42524W        W51324  17.583   3.579  13.759  0.0552  0.5130  0.0612
42525W        W51325   3.934   2.672  19.093  0.3517 -0.1848 -0.2971
42526W        W51326  11.864   3.588  27.924  0.0940 -0.3223  0.0936
42527W        W51327  22.044   4.982  24.237 -0.1632 -0.0220  0.1547
42528W        W51328  19.101   5.493   9.665 -0.0563  0.1432 -0.0269
42529W        W51329   3.918   4.578   4.799 -0.1535 -0.1565 -0.0900
42530W        W51330  22.047   7.486   2.815 -0.2026  0.0117  0.1760
42531W        W51331   5.255   4.062  10.484  0.1927  0.0531  0.5082
42532W        W51332   5.587   3.952   2.091  0.0650 -0.0384 -0.1741
42533W        W51333  16.274   3.158   3.963 -0.1785  0.0348 -0.1788
42534W        W51334   2.929   7.506  31.547 -0.0487 -0.3163  0.0524
42535W        W51335  15.416   6.791  14.221  0.2862 -0.0921 -0.1864
42536W        W51336  16.725   7.515  16.129  0.1773  0.0017 -0.1807
42537W        W51337  15.596   5.189  24.333  0.0300 -0.2469 -0.2099
42538W        W51338  13.165   5.259   2.197  0.1352 -0.3780  0.1034
42539W        W51339  15.433   2.814  14.752 -0.0433  0.0405 -0.1623
42540W        W51340  24.419   2.932   1.384  0.0232 -0.1486 -0.0116
42541W        W51341  18.690   1.871  31.498  0.0679 -0.0892 -0.0097
42542W        W51342   4.173   6.511   3.138 -0.2774  0.2010 -0.0725
42543W        W51343  21.361   3.137   2.238 -0.2928 -0.0831 -0.0586
42544W        W51344  10.022   7.230   2.704  0.0716 -0.0878 -0.2287
42545W        W51345  14.014   5.114   4.042  0.0770 -0.0102 -0.0098
42546W        W51346  16.571   5.939  22.898 -0.0370  0.1432  0.2180
42547W        W51347  25.144   6.326  21.340 -0.1223 -0.3120  0.3461
42548W        W51348   1.051   6.026  11.998 -0.0406  0.2736 -0.2516
42549W        W51349   2.370   5.646  18.496 -0.0609 -0.1994  0.3159
42550W        W51350   5.231   4.820  30.573 -0.1310 -0.3070 -0.0892
42551W        W51351  17.815   6.977  29.890  0.1213 -0.0392  0.1019
42552W        W51352   1.802   1.315   7.748  0.0200 -0.2352  0.0388
42553W        W51353  15.411   2.199  23.358 -0.1760 -0.0877  0.2309
42554W        W51354   5.191   0.091  15.977  0.1124 -0.0479 -0.2197
42555W        W51355  10.581   2.026   2.624 -0.1502 -0.1230 -0.0087
42556W        W51356   0.652   6.497   4.277  0.0782  0.0666  0.2189
42557W        W51357   0.253   2.970   4.857  0.1740  0.1931 -0.1343
42558W        W51358  15.772   3.088  15.071 -0.0360  0.3264 -0.1108
42559W        W51359   3.978   5.105   4.600  0.2092 -0.2774 -0.0747
42560W        W51360  11.997   4.888   1.907  0.2404 -0.1737 -0.1276
42561W        W51361  20.509   7.775  16.564  0.2696  0.2678  0.1710
42562W        W51362   3.454   7.104   4.474  0.1831 -0.0024 -0.1009
42563W        W51363  14.876   1.530  10.368 -0.2870  0.0512 -0.0963
42564W        W51364  10.638   6.431  20.895  0.0373  0.1062 -0.4562
42565W        W51365  12.475   4.431  27.124  0.2299  0.3755 -0.0618
42566W        W51366  10.294   0.550  30.059  0.1648 -0.0495 -0.0918
42567W        W51367   9.735   1.475   5.784  0.1343  0.4425 -0.0052
42568W        W51368   5.192   2.958   2.773  0.6269 -0.0809 -0.1062
42569W        W51369  22.208   1.968  27.184 -0.2972  0.1365  0.2512
42570W        W51370  11.323   6.242  31.615 -0.4209  0.0444  0.0070
42571W        W51371   2.502   3.013   0.115 -0.0497  0.0422 -0.1420
42572W        W51372   3.212   7.770  27.979 -0.0312  0.0690 -0.1356
42573W        W51373   3.079   6.278  27.518 -0.0013  0.1225 -0.2450
42574W        W51374  18.018   3.858   0.108  0.0286 -0.1491  0.3413
42575W        W51375  14.463   1.457  25.332  0.1359 -0.0128  0.0200
42576W        W51376  10.410   2.735   8.086 -0.1362  0.1772  0.0643
42577W        W51377  15.546   5.520  25.426 -0.2955  0.1733 -0.1442
42578W        W51378  16.356   5.388  26.665 -0.1108 -0.2049 -0.0185
42579W        W51379  13.447   1.178  29.955 -0.1379 -0.1443  0.0507
42580W        W51380   7.498   6.722  23.086 -0.0258  0.1723 -0.0520
42581W        W51381   4.749   6.591  19.528  0.0611 -0.0201 -0.0770
42582W        W51382  19.647   5.466   5.103  0.0576 -0.0087  0.1914
42583W        W51383   2.504   4.133   5.480 -0.1483  0.1568 -0.0826
42584W        W51384   8.977   2.216  28.059  0.1663 -0.2550 -0.2672
42585W        W51385   2.240   3.690   5.736  0.4042 -0.2672  0.0722
42586W        W51386  15.087   4.584   5.499  0.1066 -0.2173  0.1747
42587W        W51387  21.478   3.878  15.181 -0.3337 -0.2059  0.4555
42588W        W51388  11.547   4.631   1.570 -0.2237 -0.0676 -0.3297
42589W        W51389  13.743   5.239   9.722  0.1607 -0.0492  0.1051
42590W        W51390   7.883   1.381  17.547 -0.2093  0.2247 -0.0134
42591W        W51391  19.677   0.630   0.976 -0.1101 -0.0463 -0.1688
42592W        W51392  11.685   3.088  19.335  0.3047  0.3602 -0.1249
42593W        W51393  10.920   5.243  24.660 -0.1444  0.0427 -0.1100
42594W        W51394  12.265   6.188  32.438 -0.1332  0.1753 -0.0071
42595W        W51395   2.645   6.377   5.649 -0.1031 -0.1639 -0.1687
42596W        W51396  17.235   3.496  32.122 -0.0894 -0.2593  0.1188
42597W        W51397  19.691   7.186   9.375 -0.0622 -0.1532  0.3429
42598W        W51398   7.194   5.139  25.491 -0.0841  0.0986  0.1329
42599W        W51399   4.808   5.895   9.482  0.1207 -0.2338 -0.1743
42600W        W51400  23.938   6.231   6.507  0.1070 -0.1097 -0.0450
42601W        W51401  17.718   7.074  22.133 -0.0252 -0.2261 -0.1331
42602W        W51402  16.148   5.215  29.968  0.2216 -0.1279 -0.0270
42603W        W51403   9.606   7.455  18.834 -0.3349 -0.1095 -0.0126
42604W        W51404   0.880   2.089  27.231  0.1784 -0.0324  0.4059
42605W        W51405  20.328   1.817   2.689 -0.1400  0.2235 -0.1622
42606W        W51406   5.415   1.146  18.647  0.0046 -0.1493 -0.0748
42607W        W51407  23.241   2.276   9.382  0.0028  0.0798 -0.1472
42608W        W51408  24.763   7.755   3.417  0.1906 -0.0975 -0.0072
42609W        W51409   0.243   2.041  22.936  0.0523  0.1148  0.4002
42610W        W51410  18.744   3.594  17.717  0.2796 -0.1077 -0.1828
42611W        W51411  20.721   3.723  26.376  0.1308  0.1813 -0.0070
42612W        W51412  14.176   1.813   2.684 -0.0430  0.4072 -0.4116
42613W        W51413   0.806   7.772   8.488  0.0748 -0.0122 -0.2226
42614W        W51414   3.426   3.462  10.317  0.1696  0.1102 -0.1287
42615W        W51415   5.202   5.715  21.464  0.2556  0.1635  0.4524
42616W        W51416   8.343   0.134  26.551 -0.0168  0.0394 -0.4185
42617W        W51417   8.850   1.579   4.969 -0.2317 -0.0836 -0.0435
42618W        W51418   6.794   5.328  26.607  0.2107 -0.1582 -0.1154
42619W        W51419   4.757   0.784  17.404  0.0811  0.1306 -0.0237
42620W        W51420  23.843   0.105   3.669  0.0730 -0.2508 -0.2061
42621W        W51421  17.684   7.716  27.933 -0.0678 -0.1942  0.0111
42622W        W51422  11.310   3.104   9.982  0.1076 -0.1278 -0.3082
42623W        W51423   0.466   2.844  27.709  0.0588  0.2093  0.0779
42624W        W51424   5.297   3.142  20.797  0.0511  0.0028  0.0455
42625W        W51425   4.549   7.454  29.998  0.3513 -0.1389  0.1039
42626W        W51426   4.305   0.056   5.890 -0.1452 -0.3842 -0.1366
42627W        W51427   3.873   6.331  21.270  0.0061  0.0331  0.0374
42628W        W51428   2.928   2.657  20.925 -0.1836  0.1152  0.2184
42629W        W51429   6.484   6.717  20.158  0.2442  0.1480 -0.0813
42630W        W51430  14.563   2.378   9.424  0.1345 -0.2526  0.1627
42631W        W51431   2.219   6.420  19.272  0.1269  0.2009 -0.3020
42632W        W51432   6.383   4.905  26.543  0.0524 -0.1062  0.2042
42633W        W51433   6.559   6.386  23.282  0.0497 -0.0353  0.1532
42634W        W51434   9.649   4.920   1.743 -0.0293 -0.1578 -0.2340
42635W        W51435  12.182   0.864  20.125  0.0752 -0.0329  0.0338
42636W        W51436   2.860   3.215   0.580  0.3379 -0.0322 -0.0668
42637W        W51437  13.495   5.369  22.396 -0.1738  0.1436  0.3411
42638W        W51438  18.183   3.353  29.752  0.3521  0.0893  0.1284
42639W        W51439  16.922   3.320  16.558  0.2134  0.3406  0.1978
42640W        W51440  17.742   0.513  25.681  0.3287  0.1362 -0.0332
42641W        W51441  20.372   4.970  25.966 -0.3275  0.0406  0.0227
42642W        W51442  12.672   3.107  20.180 -0.0970  0.0105 -0.1197
42643W        W51443   0.735   5.287  11.720  0.0567  0.1355 -0.0198
42644W        W51444  14.458   0.016  13.893  0.0564  0.1475 -0.0434
42645W        W51445  18.300   5.635  12.598 -0.0865  0.0402 -0.0658
42646W        W51446  12.277   4.728   4.408  0.1486 -0.0194 -0.0317
42647W        W51447  14.083   2.558  29.642  0.0358  0.0467 -0.0072
42648W        W51448  20.936   2.651  11.067 -0.0186 -0.1036 -0.2151
42649W        W51449  23.874   6.118   5.006 -0.0766  0.0575 -0.2150
42650W        W51450  15.428   6.727  12.532  0.0023 -0.1646 -0.1987
42651W        W51451  14.886   6.911  31.917 -0.0767 -0.3363 -0.2649
42652W        W51452   1.474   5.605  21.768  0.2101  0.1204  0.0463
42653W        W51453  18.737   7.513   6.902  0.1066  0.0107  0.2136
42654W        W51454   0.052   0.589   4.894 -0.1160  0.0976  0.0864
42655W        W51455  20.208   4.209  16.560  0.1117  0.1476  0.1157
42656W        W51456   4.170   1.498  19.202 -0.2109  0.2153 -0.2597
42657W        W51457  24.129   1.746   3.712 -0.1031 -0.2423  0.1230
42658W        W51458  24.756   3.290  31.006  0.0086 -0.1327 -0.0162
42659W        W51459  16.432   3.019   8.726 -0.0915 -0.1509 -0.1841
42660W        W51460  13.641   2.293  30.089  0.2792 -0.0455 -0.1063
42661W        W51461   8.800   7.465  22.901 -0.3505  0.1353 -0.1772
42662W        W51462   8.386   4.930  26.055 -0.1857  0.0205  0.0965
42663W        W51463  10.408   2.671   9.186 -0.1808  0.0500 -0.0180
42664W        W51464   4.691   0.230   3.496 -0.0926 -0.1460 -0.1765
42665W        W51465  13.606   4.338  22.595 -0.4170  0.1429 -0.0162
42666W        W51466  18.810   3.085   1.741 -0.2801 -0.1393 -0.0890
42667W        W51467  20.139   0.955   6.489  0.0471  0.0723 -0.0575
42668W        W51468  24.534   2.187  20.622  0.1926  0.0689  0.3435
42669W        W51469  14.620   7.153  21.429  0.0967 -0.1636 -0.1532
42670W        W51470  22.108   1.551  14.081 -0.0466  0.1629  0.0984
42671W        W51471  17.927   6.059  25.777 -0.1188 -0.4595  0.0702
42672W        W51472   1.305   2.571   9.762 -0.1098 -0.1280 -0.1203
42673W        W51473  19.154   5.246  16.681  0.1113  0.0384 -0.0560
42674W        W51474  23.267   3.409  12.506 -0.0041  0.1173 -0.1333
42675W        W51475   0.984   6.709   7.162  0.0971  0.2379 -0.1240
42676W        W51476   0.064   0.044   1.530  0.1260  0.0341 -0.1535
42677W        W51477  23.705   0.970  15.096 -0.0019 -0.0555  0.0344
42678W        W51478  11.840   7.279  24.423  0.0388  0.4402 -0.0514
42679W        W51479   0.352   1.783  20.326  0.0127  0.1115  0.0247
42680W        W51480   3.644   4.262  27.829  0.0183  0.1967  0.0225
42681W        W51481   2.470   1.146  26.238 -0.2251 -0.0477 -0.2278
42682W        W51482  20.208   6.166  23.747 -0.1459  0.2419 -0.0707
42683W        W51483  11.554   7.324  31.061  0.2095 -0.2010 -0.1169
42684W        W51484  18.844   7.045  13.626 -0.0438 -0.1282  0.1464
42685W        W51485   5.991   5.695  29.357  0.3253 -0.2698  0.2283
42686W        W51486   7.803   5.317  18.971 -0.2318  0.0532  0.1688
42687W        W51487   3.689   7.418  18.146  0.0082 -0.2663  0.0140
42688W        W51488  18.039   4.924  30.249  0.1044 -0.2951  0.3095
42689W        W51489  20.046   3.745  30.159 -0.0635  0.1669  0.2970
42690W        W51490  12.496   6.219  22.364  0.0160 -0.1150 -0.2390
42691W        W51491   2.611   3.469   8.866 -0.0785  0.2151  0.2288
42692W        W51492   5.156   7.392  22.398  0.2066  0.2745 -0.0331
42693W        W51493  23.650   6.744  13.891  0.1319  0.0720 -0.1952
42694W        W51494   6.816   4.368   2.726  0.1776 -0.0196 -0.1869
42695W        W51495   7.037   0.491  25.133  0.1086 -0.4491  0.3338
42696W        W51496   2.797   2.398  18.200 -0.2113  0.1324 -0.1736
42697W        W51497  13.109   5.007  22.843  0.1670  0.1766  0.3076
42698W        W51498  21.315   5.764   1.580  0.0378  0.0361  0.2781
42699W        W51499  10.484   1.863   9.767  0.2154 -0.2623 -0.0461
42700W        W51500  23.131   4.569  30.487  0.2600 -0.2301  0.0600
42701W        W51501  21.383   4.611   3.930  0.0398 -0.0313 -0.2598
42702W        W51502  15.071   4.925  12.207 -0.0661  0.0519 -0.1410
42703W        W51503  20.819   3.022  27.985  0.0011 -0.2237  0.1167
42704W        W51504   8.606   4.895   9.802 -0.0660 -0.1289 -0.1719
42705W        W51505   2.738   3.220  26.257  0.2932  0.1341 -0.4352
42706W        W51506   5.354   3.603   0.146  0.0011 -0.2248 -0.2391
42707W        W51507  23.532   4.173  23.259  0.1413  0.0756  0.0299
42708W        W51508  15.114   4.227  28.528 -0.0001 -0.0700 -0.0726
42709W        W51509   4.057   2.539   5.985 -0.0850  0.0223 -0.1220
42710W        W51510  12.595   1.226   3.423  0.0735 -0.1435 -0.2311
42711W        W51511   9.640   4.327  21.116 -0.4660 -0.3411  0.0400
42712W        W51512   2.703   4.287  27.355  0.2767  0.1078  0.3488
42713W        W51513  18.654   7.482  11.924 -0.0728  0.0652 -0.3245
42714W        W51514   2.509   7.446   6.500  0.1297  0.1464  0.1210
42715W        W51515   6.451   0.236   9.097 -0.1835  0.0129  0.2413
42716W        W51516  22.887   6.656   2.242  0.1272  0.2411  0.5683
42717W        W51517  19.675   5.299   6.026  0.0574  0.1622  0.2658
42718W        W51518  14.117   0.673   3.281  0.0820 -0.1297 -0.3997
42719W        W51519   9.213   1.954   4.866 -0.0300 -0.3594 -0.0441
42720W        W51520   5.710   4.283   7.457  0.1018  0.1553  0.4555
42721W        W51521  16.206   0.876  15.416  0.2501  0.0629  0.1519
42722W        W51522  18.927   0.116  26.058 -0.1660 -0.0924 -0.1420
42723W        W51523  24.156   1.649  21.106 -0.2454 -0.0835 -0.1556
42724W        W51524  23.526   6.795   8.961 -0.0422 -0.2460 -0.3925
42725W        W51525   7.559   0.127   5.992 -0.2841  0.0966 -0.1583
42726W        W51526  23.324   2.659  14.370  0.2936  0.2060  0.3776
42727W        W51527   0.425   1.497   1.628  0.1131  0.2698  0.1250
42728W        W51528  12.803   0.936  11.907 -0.0989 -0.1633  0.0831
42729W        W51529  21.736   4.095  32.559 -0.3196 -0.1352  0.3348
42730W        W51530   1.467   4.409   7.692 -0.0826 -0.2219  0.1021
42731W        W51531  11.698   3.854  25.756 -0.4488 -0.0929 -0.0119
42732W        W51532  11.529   1.017  31.571  0.1508 -0.0488  0.0653
42733W        W51533   1.029   3.544  28.172 -0.0291 -0.2590  0.0414
42734W        W51534   6.245   0.921  24.791 -0.1989  0.0559 -0.0242
42735W        W51535   0.703   2.562   9.289 -0.2315 -0.0046  0.2327
42736W        W51536   1.589   5.384   7.175 -0.0596 -0.2179 -0.2505
42737W        W51537  20.028   5.484   0.719  0.2781  0.1152  0.0319
42738W        W51538   9.563   7.448  25.364  0.1552  0.1167  0.1586
42739W        W51539  11.096   2.315   7.561  0.0352 -0.2169 -0.1591
42740W        W51540  20.655   4.140  29.785 -0.0306  0.2338 -0.1833
42741W        W51541  11.509   0.502  24.021  0.1690 -0.1230  0.0412
42742W        W51542  10.542   7.314  29.689  0.2144 -0.0023  0.0428
42743W        W51543   5.696   5.803  19.724  0.1790 -0.2849 -0.1372
42744W        W51544  19.835   1.834   7.292  0.0819 -0.2119 -0.1889
42745W        W51545  19.350   6.856   0.603  0.2100 -0.3126  0.0140
42746W        W51546   3.426   4.910   1.074  0.1945  0.2394 -0.1316
42747W        W51547  17.837   2.521   0.065 -0.0639  0.1401  0.1021
42748W        W51548   7.221   1.613  18.800  0.3270 -0.1551  0.0177
42749W        W51549   3.635   1.454  26.555  0.0877 -0.1860  0.3168
42750W        W51550  20.500   4.712  31.027 -0.0198  0.2109 -0.1286
42751W        W51551  23.738   3.036  31.990 -0.0603 -0.1718 -0.0894
42752W        W51552  16.800   0.659  21.728 -0.1163  0.0218 -0.0525
42753W        W51553  14.802   1.993  25.295 -0.0000 -0.1067  0.1626
42754W        W51554  17.847   0.139  26.645 -0.0128 -0.0810 -0.0173
42755W        W51555   0.154   1.598  10.148 -0.1991 -0.0830 -0.0705
42756W        W51556  23.798   0.489   7.718  0.3350 -0.4899 -0.0034
42757W        W51557   9.451   5.634  20.979  0.0027 -0.4048  0.1138
42758W        W51558  10.128   3.993   0.110  0.0800  0.0273  0.2055
42759W        W51559  11.657   1.842  24.032  0.0164  0.0095 -0.1988
42760W        W51560  13.524   5.396   6.198 -0.0269  0.2189 -0.0218
42761W        W51561  12.515   5.711  10.331  0.0069  0.0144  0.1334
42762W        W51562  11.863   5.848  10.706  0.1179  0.0318  0.1923
42763W        W51563  20.816   5.386  22.586  0.1071 -0.1915  0.0432
42764W        W51564   6.542   0.086  29.339  0.0337  0.0223 -0.1314
42765W        W51565   5.357   2.720  30.610  0.2480  0.0011 -0.0661
42766W        W51566  22.616   2.814   5.804  0.1648  0.3118  0.0655
42767W        W51567   7.139   6.250  32.558  0.0425  0.3665  0.0884
42768W        W51568   3.607   1.322  16.489  0.0955 -0.2788  0.0766
42769W        W51569  18.005   2.773  10.917 -0.1530  0.0007 -0.3908
42770W        W51570  24.785   0.776  10.878 -0.1543 -0.0291  0.0884
42771W        W51571   2.755   3.526   3.975  0.0649 -0.0962  0.0534
42772W        W51572  19.328   7.490  13.977 -0.4989 -0.1896 -0.0775
42773W        W51573   9.113   4.817  30.708 -0.0606  0.1018  0.0009
42774W        W51574   9.737   2.676   4.410  0.1162  0.0681 -0.2973
42775W        W51575   1.041   0.249   2.048 -0.2024  0.0653 -0.1023
42776W        W51576  17.520   7.420   3.923 -0.0880 -0.1326 -0.0874
42777W        W51577  19.162   5.718  26.148 -0.1374 -0.2032 -0.2284
42778W        W51578   1.542   4.630   4.967 -0.1840 -0.0762  0.0475
42779W        W51579  14.080   3.347  10.927 -0.0834  0.1297  0.1327
42780W        W51580   7.968   0.328  26.182  0.0941 -0.2815  0.1543
42781W        W51581  22.378   2.666  30.924  0.2100  0.1300  0.0189
42782W        W51582  22.592   4.808  29.790  0.1295  0.1442 -0.2705
42783W        W51583  15.901   5.732   6.665  0.1298  0.0847  0.1514
42784W        W51584   8.610   5.011  23.797 -0.0159 -0.3027  0.0090
42785W        W51585  20.783   3.103  12.541 -0.1380  0.0663 -0.3139
42786W        W51586   6.352   0.676  30.131 -0.1825  0.0161  0.0748
42787W        W51587   5.651   6.712  22.696 -0.2489 -0.1777 -0.1733
42788W        W51588   7.531   5.062  25.052 -0.1201  0.0919  0.1098
42789W        W51589  12.123   4.264  22.600  0.1636 -0.4238  0.1988
42790W        W51590  16.728   5.215  29.889 -0.0113 -0.0488 -0.0870
42791W        W51591  18.688   4.495   4.868  0.2278  0.0194  0.0615
42792W        W51592   7.052   0.713  18.796  0.0603  0.1437 -0.1330
42793W        W51593   1.457   2.257   6.506  0.5038  0.3244  0.0217
42794W        W51594  13.755   5.494  21.978  0.1411 -0.2868  0.2252
42795W        W51595  24.976   6.486  24.811 -0.2716  0.0655 -0.1770
42796W        W51596   3.628   5.774   3.318 -0.1606  0.0875 -0.0563
42797W        W51597  11.684   4.981   9.709  0.5192 -0.0417  0.0015
42798W        W51598   8.683   0.249  31.811 -0.1120 -0.0802 -0.1570
42799W        W51599  15.523   7.550  15.239 -0.1049  0.2977 -0.1209
42800W        W51600  14.298   6.198   2.271 -0.2052 -0.1213 -0.0527
42801W        W51601   0.648   0.821  29.857  0.0552  0.2559  0.0573
42802W        W51602   8.533   2.166   0.790  0.2146 -0.0213 -0.3512
42803W        W51603  25.133   3.035  12.075  0.1046 -0.2463 -0.2988
42804W        W51604  21.220   0.517  27.555 -0.1599 -0.1022 -0.1393
42805W        W51605   1.464   2.975   9.978  0.1975 -0.2790  0.1661
42806W        W51606  22.795   5.971  29.503  0.0354 -0.0679 -0.1885
42807W        W51607  17.117   7.084  15.354  0.0820  0.0403 -0.1930
42808W        W51608  22.228   2.099  29.102 -0.1434 -0.1194 -0.3127
42809W        W51609   1.074   7.214  31.906  0.0095  0.1752 -0.0611
42810W        W51610  17.309   2.578  25.767 -0.1069 -0.1394  0.2352
42811W        W51611  23.872   2.001   6.412  0.1244  0.1210  0.1675
42812W        W51612  14.233   0.425   8.020  0.1817 -0.1090 -0.0561
42813W        W51613  24.411   0.715  30.065  0.1740 -0.0975  0.0815
42814W        W51614  23.170   3.099  25.134  0.2011 -0.2731 -0.1504
42815W        W51615  15.970   6.152  26.803 -0.0037  0.1215  0.1395
42816W        W51616   4.099   0.429  22.933  0.1254  0.2290 -0.3162
42817W        W51617  17.167   3.087   8.585  0.1628 -0.1388 -0.1394
42818W        W51618  10.743   5.726  10.404 -0.2451 -0.3369 -0.4980
42819W        W51619   3.112   3.634  23.281  0.0540  0.1044  0.0242
42820W        W51620   3.920   3.895   9.063  0.1512 -0.0335  0.4993
42821W        W51621   0.045   4.022  27.088  0.3090  0.1367 -0.2493
42822W        W51622  22.999   5.380   6.696 -0.0850  0.1493  0.0739
42823W        W51623  14.924   2.550  32.472  0.0561  0.1246  0.0953
42824W        W51624  23.946   3.268  21.322  0.0706  0.1084 -0.0340
42825W        W51625  17.430   7.008  27.567  0.0997 -0.1462  0.2167
42826W        W51626  15.463   5.306   4.083 -0.0019  0.0651 -0.1394
42827W        W51627  10.359   5.754   8.155 -0.2590  0.0574 -0.3730
42828W        W51628  13.423   4.172  32.265 -0.1796 -0.0307  0.1510
42829W        W51629   2.423   2.121  25.639  0.2382  0.0309  0.1752
42830W        W51630   0.918   1.528  10.286  0.2870 -0.1750  0.1220
42831W        W51631   6.771   0.154  21.285 -0.0455  0.0974  0.5930
42832W        W51632  24.574   7.220   7.898  0.1803 -0.1427 -0.1599
42833W        W51633  17.261   6.850  15.778  0.1253 -0.1177 -0.0465
42834W        W51634  16.109   1.067  13.691 -0.4408  0.2224  0.0032
42835W        W51635  21.974   6.812  14.509 -0.2448  0.2384  0.1041
42836W        W51636   0.256   1.755  19.609  0.0493 -0.1220  0.3204
42837W        W51637  13.724   2.132  14.285  0.0768  0.2639 -0.3680
42838W        W51638   5.095   6.309   3.228 -0.0450 -0.1340  0.1012
42839W        W51639   6.438   2.419  30.354  0.0224 -0.1245 -0.0647
42840W        W51640  18.849   1.885  11.697  0.1943  0.1628 -0.1242
42841W        W51641  13.810   7.003  28.006  0.1715  0.0499 -0.0043
42842W        W51642   3.673   3.213  27.253  0.2772  0.1574 -0.1558
42843W        W51643  23.077   0.989   9.212 -0.0937  0.0962  0.5488
42844W        W51644  21.404   6.535   4.904  0.1452 -0.3116  0.1927
42845W        W51645  11.733   0.883  23.768 -0.0287  0.0067 -0.0625
42846W        W51646   8.311   7.624   6.851  0.0334 -0.0719 -0.0432
42847W        W51647   8.160   3.427  22.012  0.2714  0.1774  0.2158
42848W        W51648   9.233   5.974  23.588  0.2964 -0.0014  0.1111
42849W        W51649   4.643   2.826   9.787 -0.1760  0.0514  0.1226
42850W        W51650   5.460   0.449  20.879 -0.4749 -0.2637  0.1772
42851W        W51651   3.875   2.354  28.847  0.0154 -0.1191 -0.3361
42852W        W51652  13.727   0.345   1.549  0.3803 -0.1216  0.0586
42853W        W51653  11.190   4.690  26.742  0.3524 -0.2350 -0.1338
42854W        W51654  17.951   7.542  31.690 -0.0014 -0.2321  0.2407
42855W        W51655   6.652   5.592  10.395 -0.0111  0.0506  0.2415
42856W        W51656   8.802   7.155  28.000  0.0037  0.2623 -0.1252
42857W        W51657  12.064   2.995   5.652  0.1067  0.1782  0.2036
42858W        W51658   8.338   2.884  29.213 -0.4341 -0.1271  0.1575
42859W        W51659   5.816   2.168  27.683 -0.0956 -0.0359  0.1025
42860W        W51660   6.124   0.423  28.529  0.0103  0.0096 -0.1793
42861W        W51661  13.030   3.470   3.820 -0.1222  0.0627 -0.0576
42862W        W51662  16.259   2.341  11.775 -0.2529  0.1964 -0.1392
42863W        W51663  14.534   5.426  25.106  0.1797 -0.0847 -0.2214
42864W        W51664   0.721   1.883  12.376 -0.0501 -0.0916 -0.0469
42865W        W51665  21.575   7.626  12.358 -0.4676  0.4448 -0.0963
42866W        W51666  14.159   0.762   7.667 -0.1539  0.0915 -0.0213
42867W        W51667  11.229   6.063  23.174  0.1857  0.0994 -0.2344
42868W        W51668   1.708   1.811  26.695  0.2557 -0.1717 -0.0120
42869W        W51669  19.850   7.396   7.187  0.1023  0.0838  0.0447
42870W        W51670  24.385   4.933  31.220  0.0137  0.0503 -0.1641
42871W        W51671  20.335   1.074   3.447 -0.1925  0.1703 -0.2892
42872W        W51672   2.452   7.542  18.741  0.0628 -0.1241  0.0768
42873W        W51673   7.817   3.224   4.989 -0.2799 -0.3764 -0.0558
42874W        W51674  24.019   0.627   8.258 -0.0262 -0.2088 -0.1993
42875W        W51675   7.465   6.014  20.050 -0.0296 -0.0344  0.0015
42876W        W51676  24.790   1.093   2.073  0.0945  0.3876 -0.2133
42877W        W51677  21.010   2.331  12.047  0.2641 -0.0247  0.1872
42878W        W51678  10.312   4.782   2.894 -0.1583 -0.1441 -0.2152
42879W        W51679  13.177   2.320  24.723 -0.0393  0.1698 -0.0492
42880W        W51680  14.568   0.123  11.974 -0.0192 -0.0626 -0.1985
42881W        W51681  18.111   7.062  28.198 -0.0227  0.2468 -0.2778
42882W        W51682  23.131   0.395  29.301  0.1872  0.2126 -0.1015
42883W        W51683  19.822   3.926  31.507  0.3287  0.2090 -0.2522
42884W        W51684   9.566   6.144  18.108  0.2196  0.6104  0.1719
42885W        W51685  13.620   5.396  24.779 -0.0372 -0.2016  0.0003
42886W        W51686  20.688   1.374  27.829 -0.3768 -0.0581 -0.0398
42887W        W51687  20.070   0.394  11.189  0.0459 -0.0845  0.1934
42888W        W51688   7.268   7.734  19.617  0.0648 -0.0444  0.0461
42889W        W51689  10.534   5.456   0.172  0.0920 -0.2413  0.0103
42890W        W51690  11.758   5.434  19.414 -0.1247  0.0354 -0.0993
42891W        W51691  16.728   5.516   9.177  0.0598  0.0280  0.0525
42892W        W51692   9.694   7.204   9.883 -0.0076 -0.2530  0.1917
42893W        W51693   6.770   5.797  22.007  0.2161  0.1106  0.2560
42894W        W51694   7.256   3.780   4.456  0.2230 -0.0264  0.2432
42895W        W51695  10.893   3.635  20.908 -0.2099  0.2895 -0.1236
42896W        W51696   1.114   1.863  21.053  0.3589 -0.1328 -0.1698
42897W        W51697  14.226   3.517  30.033 -0.3125 -0.0164  0.2100
42898W        W51698   0.929   7.022  29.168 -0.2392 -0.3488  0.1418
42899W        W51699  14.035   1.710  13.067 -0.1055 -0.0273  0.1569
42900W        W51700  20.606   7.234  16.190  0.0420 -0.0358 -0.0240
42901W        W51701  12.723   7.850   8.180  0.0857 -0.1814  0.0301
42902W        W51702  12.139   7.521  31.561 -0.2626 -0.0462  0.0533
42903W        W51703  20.921   0.970   1.116  0.0015  0.3128 -0.0606
42904W        W51704  22.170   0.388  30.400  0.0371 -0.2783  0.1154
42905W        W51705  19.965   4.507   5.134 -0.1232  0.0861 -0.0832
42906W        W51706   2.571   6.153  24.123 -0.3389 -0.2486  0.2408
42907W        W51707   1.752   7.123  10.561  0.0995  0.0874 -0.1480
42908W        W51708   6.347   7.537  14.785  0.1920  0.0315 -0.2166
42909W        W51709  22.906   6.551  26.721  0.0683  0.1099  0.1140
42910W        W51710  23.661   1.864   2.653 -0.0222 -0.3199 -0.1810
42911W        W51711   5.750   0.104  27.410 -0.0374 -0.0781  0.3510
42912W        W51712  24.612   4.173  23.794  0.2607  0.1586 -0.2703
42913W        W51713   8.555   7.767  27.398 -0.1386  0.2759 -0.2653
42914W        W51714  15.461   4.046   3.177 -0.1045  0.2102 -0.0439
42915W        W51715  15.562   3.529  31.064  0.1459 -0.0635  0.0277
42916W        W51716   4.420   4.716   3.324  0.0822  0.2804  0.0235
42917W        W51717   6.296   6.224   8.751 -0.0551  0.1592  0.1427
42918W        W51718   0.831   3.303  25.868  0.0746  0.1892 -0.2128
42919W        W51719  21.783   2.489   8.615  0.1173 -0.0733  0.3735
42920W        W51720  12.960   0.183   9.187 -0.0470  0.0213 -0.1274
42921W        W51721  10.659   4.725  18.506  0.0745 -0.2194 -0.0935
42922W        W51722  16.141   2.138  10.709 -0.2650  0.1770 -0.0457
42923W        W51723   2.396   2.006   7.658  0.0945 -0.1113  0.0858
42924W        W51724   2.951   1.587  20.215  0.0601  0.0727  0.0354
42925W        W51725   1.334   2.216  30.877  0.1941 -0.1210  0.1507
42926W        W51726  11.916   3.602  32.012  0.0361 -0.2304  0.0659
42927W        W51727  14.314   0.030  15.221 -0.0896 -0.0518 -0.0188
42928W        W51728  10.551   5.916   2.254 -0.1702  0.0389 -0.1126
42929W        W51729  21.825   1.597  24.000  0.0856 -0.0784  0.2621
42930W        W51730  23.796   2.300  29.038 -0.0731 -0.0327  0.0852
42931W        W51731  18.413   2.729  12.052  0.0486 -0.1082 -0.2080
42932W        W51732   2.685   0.269  17.590  0.1007 -0.1882  0.1113
42933W        W51733  10.373   2.866  24.216  0.1044  0.1312 -0.1329
42934W        W51734   5.826   0.169  24.928 -0.0037  0.0132  0.3076
42935W        W51735  21.220   6.629   4.392  0.0313 -0.0116  0.2217
42936W        W51736  15.852   4.839  27.555 -0.3242 -0.2415  0.3809
42937W        W51737  22.263   6.674  24.594 -0.2337 -0.0152 -0.0478
42938W        W51738   7.764   5.013  31.950  0.1806 -0.1202 -0.3063
42939W        W51739   9.227   3.560  21.243  0.1296  0.1178 -0.0196
42940W        W51740   5.042   3.458   8.904 -0.0230  0.1328  0.0557
42941W        W51741  18.992   0.066  11.617 -0.0486  0.1292 -0.2901
42942W        W51742   6.852   4.685  20.503 -0.0089  0.1955  0.1314
42943W        W51743  21.611   0.030  29.806  0.3162  0.1369 -0.2289
42944W        W51744  12.831   7.445   6.288  0.0224  0.1190 -0.3300
42945W        W51745  10.268   3.869  24.579  0.2447  0.2237  0.0586
42946W        W51746   9.564   3.655  27.179  0.2306 -0.1169 -0.0300
42947W        W51747   3.614   0.144   6.467  0.2476 -0.5704  0.0713
42948W        W51748  18.359   2.625   5.239  0.2321  0.2382 -0.1431
42949W        W51749  19.027   4.428   3.122  0.0079 -0.0797  0.1349
42950W        W51750  17.309   3.631  23.129  0.1933  0.2233 -0.0551
42951W        W51751   6.761   1.427   7.876 -0.1884  0.0561 -0.0834
42952W        W51752  15.476   3.782  27.722  0.1409 -0.0818 -0.0416
42953W        W51753  16.396   0.464  12.149  0.0477  0.0911 -0.0714
42954W        W51754  13.407   6.418  30.600  0.3246  0.1321 -0.0559
42955W        W51755   3.418   4.413  10.103 -0.0900  0.1831 -0.1062
42956W        W51756   7.249   5.186  23.252 -0.1363  0.3410 -0.0803
42957W        W51757  21.577   4.068  23.227  0.2590  0.4549  0.3147
42958W        W51758  19.788   1.009   2.617  0.0084  0.0297 -0.0773
42959W        W51759  15.480   4.543  28.397  0.0497  0.0976 -0.1677
42960W        W51760  15.770   6.662  21.938  0.0054  0.0747  0.6278
42961W        W51761   1.267   2.605  25.566  0.3061  0.1669 -0.0714
42962W        W51762  19.687   4.637  13.345 -0.1420 -0.2187 -0.0628
42963W        W51763  14.832   2.266  26.089 -0.0310 -0.0530 -0.0596
42964W        W51764  20.570   6.004  10.011  0.1951 -0.0333  0.1751
42965W        W51765   4.636   2.751   6.814 -0.1682 -0.0592  0.1029
42966W        W51766   6.424   5.332  16.297  0.2708 -0.0062 -0.1129
42967W        W51767   1.790   1.470   1.178  0.2837  0.0321  0.0204
42968W        W51768  22.172   5.297  32.005 -0.0263 -0.0487  0.2893
42969W        W51769  11.079   1.544   6.886 -0.1093  0.0682  0.4323
42970W        W51770  22.859   7.365   5.838  0.3581  0.0582  0.0107
42971W        W51771   3.922   5.232   2.542 -0.0175 -0.0703 -0.2290
42972W        W51772  14.412   6.416   4.452  0.0393 -0.0275 -0.3582
42973W        W51773  15.930   5.755  26.528 -0.0148 -0.1416  0.0025
42974W        W51774  12.962   1.864  27.740  0.2187 -0.1062  0.0665
42975W        W51775  16.811   5.966  16.854 -0.1124  0.0364  0.1348
42976W        W51776  17.472   6.804  31.034  0.0799 -0.2739  0.3756
42977W        W51777  23.565   1.993  25.524  0.0944  0.0659  0.1384
42978W        W51778  15.200   0.923  28.428  0.1956  0.1280 -0.1075
42979W        W51779  24.746   5.382   0.123 -0.2279 -0.0626  0.0624
42980W        W51780  13.660   4.878  28.986 -0.0903 -0.0354  0.2275
42981W        W51781   4.861   6.100   8.536  0.1851 -0.0835 -0.2823
42982W        W51782  13.231   5.496  21.772  0.1962 -0.1394 -0.2398
42983W        W51783  13.391   4.123  21.660  0.6248 -0.3431  0.0954
42984W        W51784   9.547   7.124  23.365  0.1606  0.2146  0.0669
42985W        W51785   9.488   2.461  31.606  0.0497 -0.1592  0.1548
42986W        W51786  16.748   3.266   0.273  0.2264 -0.1281  0.1225
42987W        W51787   2.309   1.531   3.829  0.2070 -0.1077  0.2855
42988W        W51788   0.440   2.270   5.602  0.1362  0.0305  0.1573
42989W        W51789   9.004   2.037   3.434 -0.1644 -0.3352  0.1400
42990W        W51790  12.347   2.142   1.323  0.1752  0.0289  0.1195
42991W        W51791   2.993   6.661  26.270 -0.0251 -0.1356 -0.0648
42992W        W51792  22.232   7.358  25.750 -0.6911 -0.1206  0.6531
42993W        W51793  12.150   6.620   4.902  0.0065 -0.1101 -0.2002
42994W        W51794   7.369   0.597  22.225  0.0858 -0.0233  0.0499
42995W        W51795  16.040   3.733   1.528  0.2694 -0.0676  0.0866
42996W        W51796  18.162   5.355   4.574 -0.3434  0.0012  0.1430
42997W        W51797  22.593   0.408   8.659  0.0633  0.1375 -0.0090
42998W        W51798  20.995   4.498  26.598 -0.1377 -0.0336 -0.1879
42999W        W51799   2.255   4.598   3.690 -0.1226  0.1519 -0.2483
43000W        W51800  15.915   1.483  16.024  0.0210  0.0425  0.1589
43001W        W51801  14.596   5.244   4.339  0.0221  0.0277  0.0100
43002W        W51802   1.365   0.754  19.183 -0.0749  0.2202  0.1566
43003W        W51803   3.626   0.651   2.623  0.1715 -0.1919  0.2796
43004W        W51804   3.297   3.174  29.250 -0.1693 -0.0934 -0.0803
43005W        W51805  22.011   6.802   6.185 -0.0846 -0.0671 -0.0127
43006W        W51806   0.352   1.585   4.788  0.0920  0.0300  0.0126
43007W        W51807  13.997   6.318  32.208 -0.0551 -0.1073 -0.2040
43008W        W51808  13.959   5.683  14.242  0.1979  0.0391  0.2918
43009W        W51809  18.194   7.841  22.143 -0.0412  0.0819 -0.2143
43010W        W51810  21.157   2.895  31.508  0.1228 -0.1438  0.3857
43011W        W51811  15.629   0.091   5.533 -0.0692  0.1733  0.0388
43012W        W51812  17.838   0.051  24.266  0.3394 -0.2070 -0.0453
43013W        W51813   9.035   4.405  31.269  0.1895  0.0917 -0.2528
43014W        W51814  17.109   7.571  23.840  0.1250  0.2512  0.2719
43015W        W51815   4.627   1.214  10.226 -0.1603 -0.1043 -0.2028
43016W        W51816  17.467   5.245   5.094 -0.3960  0.0800  0.0467
43017W        W51817   2.625   4.529  32.127  0.0673  0.0121  0.0991
43018W        W51818   7.676   1.332  27.012 -0.1145  0.2937 -0.1320
43019W        W51819  17.121   2.154   4.130  0.0224 -0.1213 -0.0492
43020W        W51820  12.107   1.689  19.486  0.0895 -0.1832  0.1303
43021W        W51821  11.765   6.117   5.786  0.1059 -0.0957 -0.1877
43022W        W51822   3.666   0.097  28.135 -0.2006 -0.0723 -0.1294
43023W        W51823   8.897   4.518  17.480 -0.2831 -0.0254 -0.1523
43024W        W51824   9.333   4.587   1.623  0.0244  0.2189 -0.1337
43025W        W51825   1.313   2.492   6.018 -0.3104 -0.0750  0.1620
43026W        W51826   2.931   1.924  19.336  0.0063  0.0383 -0.0889
43027W        W51827   3.759   6.738   3.118  0.2033 -0.2495 -0.2440
43028W        W51828  17.304   7.437   1.871  0.1095  0.2494  0.0550
43029W        W51829  15.974   0.677  13.965 -0.1411 -0.1617  0.1511
43030W        W51830  23.010   0.381   4.184  0.3433 -0.1527 -0.2563
43031W        W51831   0.358   7.741  28.957 -0.1859 -0.0952 -0.0699
43032W        W51832   4.982   6.689  15.251 -0.1657  0.3477  0.0147
43033W        W51833   5.603   4.665  17.352  0.0813 -0.1438 -0.1115
43034W        W51834  16.445   7.486   8.861  0.0003 -0.1258  0.1164
43035W        W51835  25.117   6.442  23.534 -0.0453 -0.0538  0.2293
43036W        W51836   5.898   1.684  28.759 -0.1967 -0.0912  0.0633
43037W        W51837  15.119   3.696  26.992  0.2677 -0.0937  0.1942
43038W        W51838  14.636   1.440  26.406 -0.1314 -0.1552 -0.1571
43039W        W51839  21.462   7.235  15.614 -0.1838  0.0629  0.2855
43040W        W51840   7.675   4.739  17.887  0.1350  0.2773  0.1223
43041W        W51841   1.383   5.783  24.533  0.0717 -0.2618 -0.0796
43042W        W51842  11.450   1.774  28.284 -0.0374 -0.2483  0.0217
43043W        W51843   8.219   4.223   2.871 -0.3642 -0.0950 -0.0128
43044W        W51844  20.996   4.037  26.807 -0.0231 -0.2810 -0.2167
43045W        W51845   3.808   4.614  17.102  0.1789  0.0012  0.0529
43046W        W51846  15.076   6.985   4.543 -0.0102 -0.0710  0.0733
43047W        W51847  20.250   0.425  17.704  0.0735 -0.0587  0.1799
43048W        W51848  17.833   2.120  16.750 -0.1390  0.1171 -0.1596
43049W        W51849   8.502   1.544  16.716 -0.0559 -0.2196 -0.0792
43050W        W51850   4.108   5.880  18.727 -0.0440  0.1179 -0.0813
43051W        W51851   8.959   0.950  31.038 -0.1969  0.0760 -0.0364
43052W        W51852  17.656   0.320   5.398  0.1208  0.1298 -0.3529
43053W        W51853  19.538   4.407   6.359 -0.1233  0.0582 -0.0288
43054W        W51854   2.588   5.579  24.572  0.0185  0.0381  0.0959
43055W        W51855  23.014   0.030  30.174  0.0653 -0.3939 -0.0527
43056W        W51856   8.461   3.021  24.019 -0.0292  0.2824 -0.1060
43057W        W51857  10.288   5.405   5.727 -0.2137 -0.0360 -0.0075
43058W        W51858  21.307   5.755  13.101  0.1070 -0.0443  0.0570
43059W        W51859  14.264   1.161  30.369 -0.1148 -0.3195  0.1494
43060W        W51860   2.775   6.091  23.097 -0.1864  0.2845  0.0086
43061W        W51861   6.064   2.585   7.056  0.1357  0.1922  0.0142
43062W        W51862   1.666   2.046   7.301 -0.0012 -0.0380  0.0892
43063W        W51863  11.755   5.106  21.391 -0.0409 -0.0221 -0.0262
43064W        W51864  11.955   7.535  20.402  0.1077 -0.3546 -0.1366
43065W        W51865   8.818   3.250   4.994 -0.0859  0.4234  0.0668
43066W        W51866   2.340   1.149  21.018 -0.0108  0.3025 -0.0660
43067W        W51867   0.069   3.606  19.741 -0.3097  0.2400  0.0377
43068W        W51868   7.755   6.161  25.286 -0.0573  0.1146 -0.0362
43069W        W51869  16.963   4.634   3.017  0.1609 -0.0948  0.2856
43070W        W51870  21.228   1.491   3.748  0.1541 -0.0482 -0.2437
43071W        W51871   1.753   4.241  19.891 -0.1403  0.0105  0.0762
43072W        W51872  20.538   7.308  23.514 -0.0247 -0.0090  0.2014
43073W        W51873   7.421   1.936  14.594 -0.0681  0.0371  0.1399
43074W        W51874  11.795   2.526   3.095  0.0568 -0.1240 -0.2387
43075W        W51875   9.915   3.650   8.464 -0.0478 -0.0259  0.0372
43076W        W51876  16.390   1.007   7.751 -0.0357 -0.1409  0.2811
43077W        W51877   1.486   4.181  21.269 -0.1084 -0.1737 -0.2117
43078W        W51878  22.606   3.418  27.837 -0.0680  0.3190  0.0425
43079W        W51879  12.905   0.057  12.307  0.0019  0.1160  0.2125
43080W        W51880  14.271   0.491  27.388  0.1170 -0.1376  0.2712
43081W        W51881  16.362   1.449  24.191 -0.3544  0.0571 -0.2287
43082W        W51882  11.817   6.787  30.986 -0.0451  0.0626  0.0818
43083W        W51883  10.359   4.957  18.934 -0.1362 -0.0323 -0.0200
43084W        W51884   7.446   6.937  20.609 -0.1059 -0.1961  0.1108
43085W        W51885   0.494   0.467  25.345 -0.2721 -0.2134  0.1387
43086W        W51886  22.999   4.045   1.426  0.1863  0.4228 -0.0889
43087W        W51887  21.468   5.782  30.153  0.0841  0.2480 -0.0205
43088W        W51888  13.510   0.766  29.049  0.1359 -0.0649  0.1361
43089W        W51889  19.091   7.328   1.534  0.3091  0.0942 -0.2074
43090W        W51890   7.328   1.786  29.849  0.2144 -0.2126  0.0731
43091W        W51891   8.534   5.636  21.849 -0.1821 -0.2157 -0.0815
43092W        W51892   3.236   0.042   4.852  0.3147  0.0692  0.0382
43093W        W51893   2.227   4.138   4.047  0.1210 -0.0801 -0.2179
43094W        W51894  20.759   4.515  17.058 -0.1706 -0.2018 -0.0585
43095W        W51895  23.516   7.469  31.014 -0.4957  0.0012  0.0750
43096W        W51896   7.515   1.558  15.703 -0.0958 -0.2465 -0.2723
43097W        W51897  21.690   4.020  13.083  0.0211 -0.0165 -0.1311
43098W        W51898   5.065   3.919  27.830  0.3968 -0.0395  0.3419
43099W        W51899   8.626   7.620   7.518 -0.0732 -0.1834  0.2906
43100W        W51900  13.208   5.530  25.454  0.1380  0.0221  0.5095
43101W        W51901   8.968   4.973   5.406  0.0807  0.0485  0.0917
43102W        W51902   8.801   0.782   0.634  0.0349  0.0739 -0.1299
43103W        W51903  18.659   4.692  12.280 -0.3301 -0.0344  0.0603
43104W        W51904  14.157   6.030  28.400 -0.1201 -0.2292 -0.0068
43105W        W51905  24.990   5.188   5.349  0.2627 -0.0389  0.1171
43106W        W51906  12.133   0.950   2.313 -0.1111  0.0580  0.1962
43107W        W51907   7.632   3.267   0.589 -0.2184 -0.0719  0.1984
43108W        W51908  16.368   0.738  10.705  0.3229 -0.3578 -0.2893
43109W        W51909  16.566   2.258  24.665  0.0129  0.0436 -0.0732
43110W        W51910  16.863   0.065  12.012 -0.1275  0.1775  0.0592
43111W        W51911  21.352   3.326  24.603 -0.1830 -0.1351  0.0699
43112W        W51912   4.136   2.859  31.917  0.0035  0.3107 -0.1659
43113W        W51913  10.551   3.845  19.458 -0.0554  0.0785 -0.0896
43114W        W51914  15.985   0.702  12.989 -0.0435  0.0985 -0.2328
43115W        W51915   6.440   0.114   8.562  0.0483  0.0046  0.2025
43116W        W51916  22.463   6.599   8.419  0.2011  0.2255 -0.3380
43117W        W51917  14.918   1.796  26.701  0.1392 -0.1555 -0.1646
43118W        W51918  19.007   2.672  10.661  0.0693  0.1599  0.0001
43119W        W51919   6.533   4.564  27.481 -0.1537 -0.0937  0.0528
43120W        W51920  20.958   7.238   9.687  0.0418 -0.2284  0.0612
43121W        W51921  21.363   3.619  17.519 -0.0322 -0.1442  0.1970
43122W        W51922  10.382   2.993  16.717  0.3956 -0.1471  0.2111
43123W        W51923  21.896   3.314   9.846  0.2649 -0.2071 -0.0578
43124W        W51924  16.122   2.961  13.370  0.0023 -0.3619 -0.0794
43125W        W51925   6.904   2.702   8.255 -0.2076  0.0368 -0.0359
43126W        W51926  22.254   0.547  24.327  0.0902  0.1253  0.3289
43127W        W51927  14.709   3.238   4.858 -0.0230 -0.0048  0.0370
43128W        W51928  14.249   1.003  24.451 -0.1571  0.2941  0.1919
43129W        W51929   7.195   6.733  32.501 -0.2301 -0.2295  0.0406
43130W        W51930  11.476   4.589  31.775 -0.2357 -0.2497  0.2337
43131W        W51931  18.392   7.157   3.102  0.0243  0.0524  0.0113
43132W        W51932   7.812   4.097  14.855 -0.0587  0.2541 -0.3596
43133W        W51933   0.173   3.216  26.589 -0.1002 -0.1821 -0.0356
43134W        W51934   3.001   3.881  25.666 -0.0078  0.2421 -0.0297
43135W        W51935  16.044   6.260  31.392 -0.2871  0.1922 -0.2066
43136W        W51936   8.420   6.125  21.878 -0.0376  0.1097 -0.2672
43137W        W51937   1.053   7.562   1.544 -0.1508  0.0543 -0.1298
43138W        W51938  12.464   1.484   1.730 -0.1004 -0.3125  0.0659
43139W        W51939  18.240   0.550  10.706 -0.2307 -0.0595  0.2160
43140W        W51940   5.123   5.933  17.746  0.2788  0.1874  0.0186
43141W        W51941  20.514   7.373  29.499 -0.0924  0.0281  0.0491
43142W        W51942   9.297   2.733   5.488  0.0843  0.1424 -0.1628
43143W        W51943   2.239   5.794  21.197 -0.1525  0.1177 -0.0816
43144W        W51944   1.527   7.824  18.622  0.0369 -0.2218  0.0463
43145W        W51945  23.231   0.013  23.782 -0.0525 -0.0231  0.2140
43146W        W51946  20.379   6.893   1.750 -0.0668 -0.2304 -0.0071
43147W        W51947   2.352   5.933  11.840  0.1609  0.2502 -0.3509
43148W        W51948   1.885   3.089   0.566 -0.0433  0.1785 -0.0498
43149W        W51949   2.073   2.907   4.261  0.1386 -0.1670 -0.1024
43150W        W51950  18.972   4.397  29.280 -0.0485 -0.1835  0.0574
43151W        W51951   7.167   5.534  16.827 -0.2959  0.0646  0.0613
43152W        W51952  23.167   4.158  21.487  0.1754  0.1251 -0.0544
43153W        W51953   8.153   2.262  19.369 -0.0244 -0.0837  0.0599
43154W        W51954  15.189   1.774  22.596 -0.0782  0.0528  0.0114
43155W        W51955  19.569   3.647  17.631  0.0392  0.1827 -0.0718
43156W        W51956  20.647   0.917  11.881 -0.2768 -0.0526 -0.0510
43157W        W51957  24.101   2.761  28.014  0.0399  0.0374 -0.1139
43158W        W51958   5.620   2.449  19.511  0.2024  0.0468  0.2856
43159W        W51959  19.048   6.672  11.016 -0.2407  0.1007  0.0317
43160W        W51960  21.188   1.249  13.527 -0.0748  0.0222  0.1287
43161W        W51961   9.703   1.742  18.160 -0.1309 -0.0804  0.1227
43162W        W51962   0.610   5.341  24.238  0.1055 -0.1028 -0.1477
43163W        W51963  15.871   0.457   5.734  0.0154 -0.0419 -0.1250
43164W        W51964   3.333   7.703  26.998  0.1711  0.0636 -0.2829
43165W        W51965   4.221   3.291  19.754 -0.1746  0.0327  0.0507
43166W        W51966  24.099   2.643  24.985 -0.2878 -0.0380 -0.2167
43167W        W51967   5.114   4.950  22.139  0.0569  0.0866 -0.2567
43168W        W51968   1.725   4.495  27.582 -0.1110 -0.0311 -0.2620
43169W        W51969  17.046   3.611   1.207 -0.3340 -0.1109  0.4602
43170W        W51970  14.670   2.068  23.289 -0.3582  0.2132  0.3282
43171W        W51971  17.355   0.620  32.086 -0.0015  0.0019  0.3553
43172W        W51972  14.845   1.264   6.433 -0.3846  0.1952 -0.2950
43173W        W51973  19.011   5.617  10.636  0.0547 -0.1382 -0.1524
43174W        W51974   9.185   3.746   6.873 -0.2216  0.1291  0.1293
43175W        W51975  21.102   7.286   1.759 -0.1241 -0.2893 -0.2037
43176W        W51976   0.787   7.025  10.552  0.0683  0.0594  0.1306
43177W        W51977   3.335   6.358  25.326 -0.1073 -0.0143  0.1219
43178W        W51978   4.971   5.810  29.477  0.5354 -0.1582  0.1115
43179W        W51979  14.498   3.415   6.529  0.1680  0.0892  0.0116
43180W        W51980  20.594   1.896  25.060  0.0683  0.5227 -0.2875
43181W        W51981  15.550   7.490  13.724 -0.0379  0.0656  0.1958
43182W        W51982  12.672   2.372  19.514  0.1724 -0.0218 -0.0146
43183W        W51983  16.165   1.065  16.587 -0.6672 -0.0681 -0.0591
43184W        W51984  13.185   6.640  23.141 -0.0433 -0.0456 -0.0188
43185W        W51985  11.970   0.334   5.134 -0.0058  0.4433  0.2372
43186W        W51986  24.433   4.062  20.367 -0.0038  0.2191 -0.0604
43187W        W51987  24.546   2.463  28.574  0.1282 -0.1413 -0.0675
43188W        W51988   6.349   3.718  29.136 -0.1790  0.3162  0.0074
43189W        W51989   4.574   4.803   8.674  0.1097 -0.2066 -0.0050
43190W        W51990  22.835   7.205  11.460 -0.0713  0.0969 -0.0664
43191W        W51991  16.905   3.072  31.824  0.0437  0.1669 -0.0173
43192W        W51992  11.994   5.720   3.379 -0.2042  0.0009  0.1589
43193W        W51993   7.544   3.648   0.042  0.0064 -0.0803 -0.2348
43194W        W51994  17.062   7.197  13.489 -0.3120 -0.0610  0.0131
43195W        W51995   9.832   3.019   9.669 -0.0095 -0.0221 -0.1962
43196W        W51996   4.913   4.536  20.623  0.0983  0.0704  0.3540
43197W        W51997   6.218   1.405  14.885  0.5453  0.3059  0.2077
43198W        W51998   1.719   3.958  26.632 -0.2395 -0.2781  0.0832
43199W        W51999   6.752   3.537  25.397  0.0447 -0.0263 -0.1657
43200W        W52000   8.148   5.248   1.635  0.2806  0.3675  0.0137
43201W        W52001  12.623   2.556   5.260  0.3014 -0.3712 -0.0508
43202W        W52002   0.959   0.810   0.534  0.2991 -0.2662 -0.1407
43203W        W52003  13.341   2.501  26.971  0.0940  0.0755  0.2237
43204W        W52004   8.100   3.521   4.110 -0.1477  0.0442 -0.1743
43205W        W52005   3.482   1.811  21.978  0.0457  0.0135  0.2172
43206W        W52006  17.673   2.574  14.999 -0.0860  0.0781 -0.0998
43207W        W52007   0.196   5.354   3.923  0.0977  0.0686 -0.0963
43208W        W52008   7.151   4.777  23.589 -0.0552 -0.1035  0.2649
43209W        W52009  10.459   4.922  19.618  0.1094  0.3756 -0.4763
43210W        W52010  12.476   3.440  27.439  0.0969  0.2284  0.4012
43211W        W52011  18.883   1.487  22.942 -0.0052  0.1874  0.1185
43212W        W52012   6.232   0.438  24.949 -0.2347  0.3163 -0.0556
43213W        W52013  23.843   7.682   6.901  0.0343  0.0541 -0.0694
43214W        W52014  21.972   3.373   8.848 -0.0759 -0.4012 -0.1808
43215W        W52015  24.829   1.903  23.704 -0.1227 -0.0938 -0.0256
43216W        W52016   2.785   2.260   9.934 -0.2748 -0.0130 -0.1237
43217W        W52017   6.188   4.861  25.073 -0.1107 -0.1199  0.0404
43218W        W52018  12.657   0.827  10.152 -0.0900  0.0203  0.3434
43219W        W52019  21.568   7.651  26.240 -0.0690 -0.1011  0.2053
43220W        W52020  19.263   6.994  16.975 -0.1153  0.0618  0.3187
43221W        W52021  22.391   0.762  30.086 -0.1635  0.0081 -0.0754
43222W        W52022  18.977   2.978  29.312 -0.0113  0.1011 -0.0043
43223W        W52023   7.662   3.448  29.912  0.1510  0.0328 -0.1330
43224W        W52024  10.628   2.670  17.511 -0.0521  0.1114  0.0004
43225W        W52025   5.305   0.194  17.392  0.1027  0.2392 -0.1038
43226W        W52026  22.299   5.605  14.577 -0.2121  0.0816 -0.1110
43227W        W52027  23.841   5.988  12.541 -0.2331  0.0992 -0.1948
43228W        W52028  16.340   5.786   2.954 -0.4333 -0.0204 -0.2225
43229W        W52029   5.791   6.528   9.397 -0.0026 -0.0249 -0.0353
43230W        W52030  24.376   6.937  10.845  0.1471 -0.2436  0.1217
43231W        W52031   2.320   5.412   0.088  0.0827  0.0916  0.0197
43232W        W52032   6.732   6.881   1.104  0.0362 -0.2741  0.5558
43233W        W52033  19.205   4.322   4.696 -0.0321 -0.3326  0.0040
43234W        W52034  13.059   7.334  25.378  0.3968 -0.1809  0.0680
43235W        W52035  11.512   0.776  19.368 -0.0048  0.3527 -0.1386
43236W        W52036   2.581   6.935  22.467  0.2072 -0.2213 -0.1133
43237W        W52037  23.746   2.401   0.518 -0.0854  0.0537 -0.0287
43238W        W52038  14.308   2.573  11.171 -0.3173  0.0703  0.2622
43239W        W52039   2.111   4.929   1.892 -0.0117 -0.0906  0.1973
43240W        W52040  11.816   0.941  30.367  0.1104 -0.1141 -0.1011
43241W        W52041   9.499   6.654   9.048  0.2772 -0.1267 -0.1152
43242W        W52042   7.712   0.490  24.097  0.1524  0.4162 -0.1962
43243W        W52043  14.810   6.789  29.295 -0.2444  0.1902 -0.0850
43244W        W52044   0.465   1.344  30.610 -0.0883  0.3875  0.1526
43245W        W52045  17.373   6.153  23.469 -0.0076 -0.0750  0.2738
43246W        W52046  12.709   0.222  21.512  0.1366  0.0326  0.0980
43247W        W52047   6.374   3.710  30.290  0.0968  0.1951 -0.1740
43248W        W52048  10.269   5.655   2.625  0.0451  0.1092 -0.2022
43249W        W52049   9.603   1.175   4.520  0.3115 -0.1071 -0.0489
43250W        W52050  17.530   4.171  29.890 -0.0962 -0.0497  0.0754
43251W        W52051  18.544   7.823   4.455 -0.0421  0.0515 -0.2285
43252W        W52052   8.506   0.137  24.468 -0.1273 -0.0888  0.0083
43253W        W52053   6.145   6.703  18.346 -0.2412  0.0850 -0.0312
43254W        W52054  14.507   3.330   4.306  0.1068 -0.1322  0.1812
43255W        W52055  24.148   2.111  13.580  0.2488  0.0546  0.1178
43256W        W52056  14.144   4.410   6.998  0.0436  0.0512 -0.2636
43257W        W52057  11.748   3.397  26.609 -0.0691  0.3259  0.0119
43258W        W52058  10.165   1.773   2.840 -0.2765 -0.1034  0.0845
43259W        W52059  19.067   0.390  16.298 -0.0819  0.4032 -0.0590
43260W        W52060  11.309   4.439   8.805 -0.3297  0.2626  0.0274
43261W        W52061  22.235   2.087  27.650 -0.1239  0.0892 -0.2051
43262W        W52062  23.684   2.996  26.320 -0.1984  0.2896  0.2300
43263W        W52063  25.002   0.251  11.169  0.1732 -0.0517 -0.2762
43264W        W52064   0.513   7.245   5.432  0.0967 -0.0992  0.0579
43265W        W52065  12.508   3.345   5.680  0.0148 -0.2492 -0.0557
43266W        W52066   5.458   6.801  22.194 -0.0984  0.1247 -0.1037
43267W        W52067  19.581   3.563   5.290  0.0543  0.2381  0.0915
43268W        W52068  11.081   1.635  29.025  0.0466 -0.0007  0.0717
43269W        W52069   4.231   1.668  24.746 -0.1585  0.1353  0.0557
43270W        W52070  24.047   4.206  28.493  0.2005 -0.2385 -0.0218
43271W        W52071  20.536   6.632   7.265  0.2175  0.0736  0.1654
43272W        W52072  20.524   4.530  25.822  0.0584 -0.0936  0.2647
43273W        W52073  16.096   7.690   2.602  0.0333 -0.0372 -0.3455
43274W        W52074  14.173   0.888   6.858 -0.2317 -0.1412 -0.2242
43275W        W52075  13.835   7.021   4.083  0.0794 -0.3238  0.2155
43276W        W52076  15.577   2.300   2.735 -0.1633 -0.1472 -0.2766
43277W        W52077   4.159   1.765  28.927 -0.1596 -0.1192  0.1442
43278W        W52078  22.554   5.794  21.756 -0.0713  0.0454 -0.0378
43279W        W52079   8.794   2.967  17.887  0.0367  0.2183 -0.2562
43280W        W52080  10.523   5.476  26.188  0.0171  0.1542  0.1466
43281W        W52081   5.185   3.636   8.275 -0.3620 -0.2467  0.0450
43282W        W52082  15.471   7.733   9.646 -0.2485 -0.2014 -0.2436
43283W        W52083   1.276   7.620  25.509 -0.0271  0.0713 -0.0052
43284W        W52084  20.848   4.542   5.501  0.0820  0.0769  0.1864
43285W        W52085  22.138   5.690  11.541 -0.0489  0.0952 -0.0486
43286W        W52086  16.743   2.319   0.778  0.0146  0.0342  0.3495
43287W        W52087  10.150   6.213  21.204  0.0627 -0.1178 -0.0742
43288W        W52088   5.606   7.547   9.212 -0.1486 -0.0777  0.1541
43289W        W52089  23.311   3.168   9.034 -0.0623 -0.0972 -0.0226
43290W        W52090  18.124   0.755  28.354  0.0404 -0.1320 -0.3544
43291W        W52091   3.968   5.150   7.707  0.2045 -0.2890 -0.0548
43292W        W52092   4.494   7.208  31.887  0.0491  0.2869 -0.0732
43293W        W52093   7.939   7.448  19.225  0.3539  0.1588  0.3367
43294W        W52094  11.334   3.602  25.377  0.3116  0.0806  0.0608
43295W        W52095  17.327   2.774   8.257 -0.0263 -0.2158  0.1743
43296W        W52096   5.628   0.580  17.503 -0.0993 -0.1021  0.1203
43297W        W52097  21.224   2.256   6.924 -0.1918  0.1294 -0.0332
43298W        W52098  24.843   5.133  12.449  0.1619  0.1647 -0.2130
43299W        W52099  21.821   0.644  28.695 -0.0093  0.1018  0.0099
43300W        W52100  18.938   0.635  12.245  0.1003  0.1358  0.0554
43301W        W52101   1.411   3.940   7.528  0.1910  0.2179  0.0138
43302W        W52102  10.565   4.381   2.857  0.0182  0.2723  0.0383
43303W        W52103   3.914   6.397   7.062  0.1392 -0.3750 -0.0472
43304W        W52104   4.472   7.165  20.233  0.0139 -0.1116 -0.1497
43305W        W52105  23.481   4.456   4.937  0.3533 -0.1434 -0.0091
43306W        W52106  19.651   5.887  32.391  0.0565  0.0104 -0.2750
43307W        W52107   4.974   5.657  18.162 -0.0139  0.0132  0.0651
43308W        W52108   6.360   4.636  29.219  0.0935  0.1520  0.1473
43309W        W52109   4.033   5.762   9.256 -0.1299 -0.2167 -0.4484
43310W        W52110   1.413   1.413   6.433 -0.0247  0.2099  0.1317
43311W        W52111   9.455   6.284   3.889 -0.0316  0.2842 -0.2316
43312W        W52112  10.379   7.601  32.327 -0.0550 -0.1144  0.3285
43313W        W52113   4.201   6.959  15.694  0.2024  0.1209  0.2527
43314W        W52114   8.509   5.025   5.141 -0.2857  0.0138  0.1278
43315W        W52115   2.666   3.931  26.097  0.0464 -0.1946  0.1644
43316W        W52116   4.893   7.510  19.362  0.2036  0.0882  0.1478
43317W        W52117   8.370   0.551   3.917  0.1255  0.0801  0.0701
43318W        W52118   9.472   2.167  19.986 -0.1317  0.0665  0.1647
43319W        W52119  13.581   1.783   2.749 -0.1178  0.0026  0.2312
43320W        W52120  13.157   5.448  23.651  0.0121  0.2429  0.0693
43321W        W52121  12.009   1.278   7.662 -0.0215 -0.1199 -0.1287
43322W        W52122  16.547   0.078  10.709 -0.3614  0.2994 -0.1581
43323W        W52123   0.285   7.291   1.077 -0.0802 -0.0661  0.1157
43324W        W52124   7.883   7.170  24.084  0.1518  0.0037 -0.0806
43325W        W52125   4.737   0.280  29.067 -0.2175  0.3514 -0.1024
43326W        W52126   2.238   0.911   1.916  0.0813 -0.0481  0.0299
43327W        W52127  25.080   6.746  20.756  0.5783 -0.3368 -0.2558
43328W        W52128  12.144   1.422  31.824  0.1306 -0.1731 -0.0638
43329W        W52129  14.070   0.284  23.083  0.0853  0.1156  0.1585
43330W        W52130  15.874   3.148  31.048  0.0319 -0.1406  0.1531
43331W        W52131  22.841   1.129  25.279  0.1213  0.2188 -0.0390
43332W        W52132  19.877   0.120   2.238 -0.1125  0.0188  0.0007
43333W        W52133  18.311   1.902  28.769 -0.0382  0.1156 -0.2558
43334W        W52134  10.536   3.277  30.763 -0.0956  0.1094 -0.3676
43335W        W52135  10.711   3.067  10.969  0.1208 -0.0008  0.1123
43336W        W52136   0.052   3.021  29.689 -0.0107 -0.2882  0.0840
43337W        W52137   8.358   2.546  31.006  0.0887 -0.2519 -0.0767
43338W        W52138   1.672   6.384  26.334  0.1406  0.0960 -0.1474
43339W        W52139   6.280   1.696   0.149  0.1570  0.3130 -0.0390
43340W        W52140   6.570   4.684   9.196  0.0759  0.0584  0.3422
43341W        W52141   9.308   2.099  27.117 -0.0611  0.0901  0.0276
43342W        W52142  10.672   1.387  25.469  0.0743 -0.1407 -0.0129
43343W        W52143   9.094   5.939  16.335  0.1362  0.0629  0.2519
43344W        W52144  17.009   6.913   6.552 -0.0756  0.1281  0.0579
43345W        W52145   8.111   3.274  26.079 -0.0578 -0.4437  0.2336
43346W        W52146  22.469   3.663   3.053 -0.2967  0.4542 -0.1937
43347W        W52147  22.484   5.394   4.668  0.0444  0.0237 -0.0369
43348W        W52148  23.525   3.355   0.366  0.1273  0.0129 -0.3962
43349W        W52149   2.982   0.213  30.691  0.3719 -0.2057  0.1506
43350W        W52150  24.875   4.711   6.566  0.0701  0.3250  0.1272
43351W        W52151  13.896   7.234  11.852  0.0901  0.1075  0.3536
43352W        W52152   3.410   5.799   5.906  0.0960 -0.0541 -0.0476
43353W        W52153  23.488   1.896  31.915  0.0573 -0.1375 -0.0579
43354W        W52154   6.017   2.575  15.760  0.1362 -0.0056  0.2176
43355W        W52155   4.945   2.944  30.486 -0.2740  0.0717 -0.1527
43356W        W52156   1.315   2.412   8.650 -0.0442 -0.0259  0.0046
43357W        W52157   5.820   3.564  31.804  0.1594  0.2137 -0.1754
43358W        W52158   4.953   5.559  24.082  0.1455  0.1733 -0.0194
43359W        W52159  17.177   3.391   9.517 -0.0385  0.0201 -0.3641
43360W        W52160  19.322   7.816   6.606 -0.2876 -0.1594  0.0277
43361W        W52161  11.738   3.374   0.164  0.0886 -0.1715  0.0517
43362W        W52162   1.442   6.623   2.099  0.0978 -0.3158  0.2526
43363W        W52163   6.219   4.570   2.506  0.0081 -0.2006 -0.4321
43364W        W52164  22.295   6.071   6.710  0.1798  0.0646 -0.3933
43365W        W52165   9.537   3.328  30.876  0.0533 -0.0772  0.2001
43366W        W52166   8.069   4.529  23.822 -0.0474  0.0115  0.2221
43367W        W52167   3.167   1.034  21.473  0.1217  0.0785 -0.1982
43368W        W52168  13.629   7.183  31.780 -0.2541  0.1274 -0.0473
43369W        W52169   7.317   4.769  26.269 -0.0086  0.1556 -0.0632
43370W        W52170  24.879   2.696   2.159 -0.1032 -0.1673  0.2014
43371W        W52171   1.863   3.966  32.166 -0.1687 -0.0704 -0.0927
43372W        W52172   9.342   3.232  17.262  0.0033 -0.0123 -0.0729
43373W        W52173  14.859   1.479   0.966  0.0349 -0.0932  0.0421
43374W        W52174  15.533   7.106  12.108  0.2193 -0.2697  0.1655
43375W        W52175   1.818   6.473   1.816  0.1086 -0.2371  0.0122
43376W        W52176   1.425   7.671  20.063  0.4125 -0.0167 -0.1381
43377W        W52177   7.798   3.965  32.324 -0.0455 -0.0088  0.0467
43378W        W52178   7.735   3.071  22.635  0.1751 -0.2328 -0.0483
43379W        W52179  12.264   6.960  24.328 -0.0536  0.2945 -0.0326
43380W        W52180  17.865   6.457  11.586  0.2212  0.0025  0.0165
43381W        W52181  16.174   0.985   0.784  0.1460 -0.0389  0.2432
43382W        W52182   7.416   1.188  18.602 -0.0612  0.2007 -0.1902
43383W        W52183  21.921   3.244   6.393  0.0448 -0.0249 -0.0263
43384W        W52184  13.341   0.204  32.102  0.0111 -0.3807 -0.0163
43385W        W52185   3.537   1.467  21.504  0.1352 -0.2598  0.1327
43386W        W52186  15.987   3.871  22.766 -0.2215  0.0384 -0.1087
43387W        W52187  18.931   3.052  30.209  0.0696 -0.0706 -0.2750
43388W        W52188  20.607   1.949  15.086 -0.1266 -0.1006 -0.0096
43389W        W52189   8.466   7.241  16.468  0.0390  0.0702  0.4545
43390W        W52190   7.973   3.160   3.145  0.1686 -0.0132  0.0312
43391W        W52191   0.160   4.820  25.069 -0.2825 -0.0143 -0.0793
43392W        W52192  11.875   0.885  26.722  0.0731 -0.0726  0.3155
43393W        W52193  17.228   3.156   1.336 -0.1105  0.1151 -0.0542
43394W        W52194  18.108   4.214   9.371  0.2101 -0.1703  0.1008
43395W        W52195   1.878   1.195  26.387 -0.1615 -0.1429 -0.0533
43396W        W52196  19.144   6.479  16.857  0.1811  0.1114 -0.5670
43397W        W52197   8.323   4.615   4.757 -0.0072  0.4574  0.2702
43398W        W52198  11.512   0.442  29.599 -0.1452 -0.0888 -0.0038
43399W        W52199  16.216   7.796   6.854  0.2301 -0.0391 -0.1428
43400W        W52200  20.793   4.845  22.478 -0.0363 -0.0593 -0.3236
43401W        W52201  11.281   6.379   9.710 -0.3491 -0.2218 -0.2193
43402W        W52202  13.248   3.112  25.489 -0.0632  0.0131 -0.1897
43403W        W52203  10.884   5.821  22.806 -0.0934  0.1677 -0.2287
43404W        W52204  23.269   0.385  22.014  0.0237  0.0730 -0.3938
43405W        W52205  24.864   5.358  10.353  0.1608  0.0875 -0.2857
43406W        W52206  22.208   5.247  16.532  0.1150  0.0643  0.0566
43407W        W52207  19.633   6.284  12.311  0.2079  0.1061  0.0529
43408W        W52208   2.605   0.490   6.514  0.1339  0.0498 -0.0884
43409W        W52209  17.649   1.069   4.935  0.0759  0.0712  0.1566
43410W        W52210   1.866   0.794  20.359 -0.0001 -0.4049 -0.0742
43411W        W52211  15.471   3.522  11.945 -0.1420  0.2923  0.0918
43412W        W52212   4.005   3.347   3.516 -0.0663 -0.0861  0.1911
43413W        W52213  22.318   3.380  12.869 -0.1739 -0.1649 -0.1237
43414W        W52214  16.351   4.670  31.248  0.4295  0.2394  0.1364
43415W        W52215  11.540   7.632  12.145 -0.0377 -0.0923 -0.0968
43416W        W52216   9.574   1.421  27.817 -0.1922 -0.2437 -0.2684
43417W        W52217  12.462   6.233  21.447  0.1568 -0.0546  0.1451
43418W        W52218  24.266   6.418   1.586  0.0219 -0.3424 -0.0690
43419W        W52219   5.825   3.765   7.610  0.0937 -0.2633  0.0899
43420W        W52220  22.792   7.259   0.063 -0.3094  0.2754 -0.0114
43421W        W52221  15.526   1.476   3.955 -0.2149 -0.0126  0.0804
43422W        W52222  22.903   1.075  11.919  0.1269  0.1850  0.3879
43423W        W52223   0.740   0.052   1.731 -0.0626 -0.0186  0.0958
43424W        W52224  13.203   6.087   3.443  0.0466 -0.1229  0.2845
43425W        W52225   6.755   5.176  24.629  0.3225  0.1322  0.0066
43426W        W52226   6.883   2.644  26.063 -0.1677 -0.0580  0.1471
43427W        W52227  22.729   3.796   8.714  0.2507 -0.0397  0.2801
43428W        W52228   0.225   0.583  23.624  0.0791  0.1396 -0.2188
43429W        W52229   4.467   3.059  28.015  0.0457 -0.1665 -0.0661
43430W        W52230  21.047   0.979   7.274 -0.0515 -0.0480  0.3860
43431W        W52231   7.063   2.229  32.255 -0.2288  0.1311  0.0054
43432W        W52232  18.385   0.887  18.009 -0.2443  0.0131 -0.0595
43433W        W52233  13.394   1.992  30.664  0.0023 -0.0215 -0.1930
43434W        W52234   1.433   5.793  20.657 -0.0068 -0.2605 -0.2393
43435W        W52235   5.199   5.047   2.516  0.0234  0.0282  0.0779
43436W        W52236  16.908   1.870  14.225 -0.0594  0.1162  0.0328
43437W        W52237   1.530   3.002  22.588  0.0103  0.1344 -0.2168
43438W        W52238  21.850   4.274  12.660 -0.1782  0.2891  0.1824
43439W        W52239  14.877   1.259  29.415  0.1659 -0.1712  0.0523
43440W        W52240  22.580   3.261  24.669 -0.1510  0.4692  0.0219
43441W        W52241  13.357   6.469  26.187  0.3340  0.0800 -0.0403
43442W        W52242  15.532   2.421   3.981  0.4219  0.2183 -0.1145
43443W        W52243  22.888   4.648  27.610  0.0700 -0.1096 -0.1611
43444W        W52244   9.710   6.186   5.501 -0.0614 -0.0572  0.0270
43445W        W52245  21.409   4.060   1.245  0.0078  0.3523 -0.1004
43446W        W52246  20.795   1.420   0.969 -0.0642 -0.0794  0.0997
43447W        W52247  17.637   4.372   4.200 -0.2798 -0.0367 -0.1100
43448W        W52248  15.062   1.064  25.669  0.2102 -0.1600  0.3429
43449W        W52249   5.775   7.154   1.475 -0.0242 -0.0832  0.1220
43450W        W52250  13.024   2.896  27.994 -0.2482  0.2549  0.0357
43451W        W52251  24.936   2.069  21.365  0.0477 -0.0290 -0.0298
43452W        W52252  14.538   0.828   8.344  0.2214 -0.1013 -0.0148
43453W        W52253   6.068   1.478   7.872 -0.2812 -0.1135 -0.0713
43454W        W52254   0.761   2.247  10.160 -0.1806  0.1806 -0.3118
43455W        W52255  22.247   4.580   1.071 -0.0916 -0.1188 -0.2323
43456W        W52256  14.989   1.126   7.386  0.3220 -0.1075  0.0653
43457W        W52257   2.700   3.417  32.465  0.1937  0.1204 -0.1445
43458W        W52258  22.026   4.462  15.458  0.0069 -0.1483 -0.1556
43459W        W52259  12.705   5.041  32.566  0.1013  0.2079  0.1724
43460W        W52260  16.553   6.512  16.216 -0.0488  0.1701  0.3261
43461W        W52261  12.214   5.290  21.144  0.0180 -0.1436  0.0646
43462W        W52262   6.670   1.481  15.744  0.1670  0.0610 -0.1646
43463W        W52263  14.531   2.819   0.225  0.0522  0.1312 -0.1726
43464W        W52264  12.860   0.114  23.979 -0.0554 -0.2489  0.0999
43465W        W52265   7.577   2.731   9.317 -0.0453 -0.0964  0.1457
43466W        W52266  18.415   4.756  11.860  0.1607 -0.1157  0.1479
43467W        W52267  23.282   5.147  29.191  0.1230  0.0284 -0.2795
43468W        W52268  20.459   1.317  26.903  0.1926  0.0237 -0.0429
43469W        W52269  21.196   1.015  31.107 -0.0676 -0.1861 -0.0906
43470W        W52270  11.035   2.790  20.010  0.2438 -0.1795 -0.1470
43471W        W52271   5.464   5.054   8.129 -0.1334  0.2919  0.0580
43472W        W52272   7.530   5.255  22.113  0.0888 -0.2219 -0.2103
43473W        W52273  22.389   5.035  25.844  0.2043 -0.0520  0.2455
43474W        W52274   8.180   4.860   0.204 -0.0233 -0.0126  0.0521
43475W        W52275  17.023   2.130  28.634 -0.1064  0.1862 -0.1093
43476W        W52276  21.381   7.481  23.763 -0.0724 -0.1303  0.0334
43477W        W52277  17.466   6.957  12.536 -0.1934 -0.1110  0.2595
43478W        W52278   0.737   3.700   6.493 -0.3607  0.1726  0.0337
43479W        W52279  23.708   3.451  27.560  0.1233  0.1076 -0.0569
43480W        W52280  17.929   2.728   0.826 -0.0971  0.0269  0.0119
43481W        W52281   7.044   6.001   5.178 -0.2298  0.1246  0.0864
43482W        W52282  10.496   4.248  18.362 -0.0899  0.0794  0.1537
43483W        W52283  21.404   4.201  13.888  0.0397 -0.2072  0.0787
43484W        W52284  23.780   4.323   5.742 -0.0911 -0.0669 -0.0176
43485W        W52285   6.311   2.004   7.208 -0.0875  0.2309 -0.3094
43486W        W52286   2.076   3.321  30.819 -0.5783  0.1100 -0.1006
43487W        W52287  13.673   1.097   8.476 -0.0838  0.0500 -0.1246
43488W        W52288   3.253   0.800  20.092 -0.2324  0.1603 -0.0996
43489W        W52289   8.431   5.496  22.403  0.1362 -0.1765 -0.0042
43490W        W52290  19.675   1.283  25.945  0.0013  0.4015  0.0852
43491W        W52291   1.749   4.036  22.695  0.1575 -0.1102 -0.2155
43492W        W52292   4.405   4.604  20.127 -0.2754  0.3299  0.3204
43493W        W52293   0.956   2.915  18.976  0.0036 -0.1144  0.2483
43494W        W52294  16.369   2.999  14.906  0.1316  0.0651  0.1793
43495W        W52295   6.543   0.765   0.351 -0.1649  0.0501 -0.0124
43496W        W52296   5.599   6.156  21.562 -0.0021 -0.0101 -0.1661
43497W        W52297   4.170   1.422  32.072  0.0285 -0.1475 -0.0069
43498W        W52298  21.172   1.513  26.347 -0.0082 -0.1346  0.0349
43499W        W52299   4.275   7.585  20.511  0.2319 -0.0141 -0.0613
43500W        W52300   0.594   4.253   5.104 -0.0147  0.1903  0.1647
43501W        W52301  18.235   0.424   0.401  0.0337  0.1805  0.1491
43502W        W52302   9.741   5.315   2.065  0.0798  0.0056 -0.1919
43503W        W52303  13.235   5.853  21.165  0.1688 -0.0902  0.0189
43504W        W52304  11.185   0.310  32.237 -0.1299  0.0009  0.2790
43505W        W52305  13.196   5.826  12.403 -0.2386 -0.0904 -0.0513
43506W        W52306  14.085   0.041   4.217  0.2901 -0.1977 -0.2032
43507W        W52307   7.965   5.555   4.520  0.0399  0.1013  0.1833
43508W        W52308  21.090   6.526  28.897  0.2081 -0.2726  0.0508
43509W        W52309  18.989   4.011  28.309 -0.0896  0.0494  0.0468
43510W        W52310   4.042   2.048   9.314  0.0062  0.0806 -0.3122
43511W        W52311   3.458   5.007   5.895 -0.1668 -0.2148  0.0388
43512W        W52312  12.894   0.260  31.874 -0.0550  0.1189 -0.1086
43513W        W52313  24.196   0.734  26.611 -0.1722 -0.0753  0.1770
43514W        W52314  19.119   5.355  12.303  0.1621  0.0610  0.0362
43515W        W52315  13.779   3.470  23.892 -0.0718 -0.2081  0.0219
43516W        W52316   3.659   1.056  28.573 -0.0558  0.0260 -0.0478
43517W        W52317   0.901   2.261   9.647 -0.0026 -0.0283 -0.0989
43518W        W52318  17.008   6.259  17.204 -0.0208  0.1570  0.0984
43519W        W52319   4.826   6.745   0.854  0.0766 -0.0368 -0.0721
43520W        W52320  16.123   3.071  21.909  0.1096 -0.1238 -0.1685
43521W        W52321   2.225   0.305  17.916  0.2002 -0.1451  0.0703
43522W        W52322  17.027   7.664  10.697  0.3890  0.0441 -0.0358
43523W        W52323   0.016   3.877  20.191  0.0150 -0.3528  0.0311
43524W        W52324  13.411   5.716   9.905 -0.0718 -0.0604  0.1086
43525W        W52325  16.293   1.574  12.185  0.2089  0.3373  0.2251
43526W        W52326   0.134   0.944  29.816  0.2044 -0.0072  0.1592
43527W        W52327   7.032   7.052   3.638 -0.1611 -0.0158  0.2025
43528W        W52328  14.345   4.679  32.290  0.2460  0.2692  0.3905
43529W        W52329  14.570   5.012  30.844 -0.0953 -0.0279 -0.1204
43530W        W52330  21.584   4.025   6.949 -0.0559 -0.2918 -0.3691
43531W        W52331   6.888   3.902  16.503 -0.1126 -0.0526  0.4768
43532W        W52332  20.834   2.098   3.557  0.0134  0.1292  0.2026
43533W        W52333   9.321   7.459   5.348  0.0564 -0.1164 -0.1541
43534W        W52334  11.772   0.038   9.746  0.0849  0.1317  0.0834
43535W        W52335   1.496   1.138  23.567  0.3688  0.0040 -0.0505
43536W        W52336  19.972   6.447  16.406 -0.1676 -0.3258  0.1240
43537W        W52337   6.114   6.282  28.510 -0.3469 -0.2252  0.2437
43538W        W52338   4.909   3.574  20.859 -0.1994 -0.0958 -0.1722
43539W        W52339  23.378   4.628  23.356  0.0149  0.4196  0.0090
43540W        W52340  17.081   6.125   3.119  0.1095  0.4393  0.0156
43541W        W52341  17.998   0.996  13.585 -0.1338  0.0342  0.0787
43542W        W52342  22.405   2.830  32.239  0.0482 -0.0794 -0.2826
43543W        W52343  22.343   5.331   5.183 -0.2582  0.0537 -0.1728
43544W        W52344   6.448   3.072  23.410  0.0289 -0.0421  0.0717
43545W        W52345   8.476   5.812  31.267  0.0309  0.0329 -0.1546
43546W        W52346  17.973   1.806  14.648 -0.2240  0.0875  0.0735
43547W        W52347  21.218   4.939  26.445 -0.0350  0.3296 -0.0532
43548W        W52348   5.368   6.448   2.109  0.1086  0.0190 -0.0720
43549W        W52349  12.513   5.759  21.044  0.0771  0.0067  0.3680
43550W        W52350  23.977   4.300  10.821  0.0359  0.0323 -0.0596
43551W        W52351   1.957   5.751  22.047 -0.1083  0.5197 -0.3474
43552W        W52352  16.208   3.206   6.065 -0.3002 -0.2049 -0.1955
43553W        W52353   2.204   1.151  19.140  0.1000 -0.1842 -0.1557
43554W        W52354   5.019   7.502  29.157 -0.3151 -0.1893 -0.1612
43555W        W52355   9.276   3.589   8.982 -0.0478 -0.1615 -0.0194
43556W        W52356  18.807   5.915  27.861  0.0281  0.0404 -0.1281
43557W        W52357   9.101   6.956  23.343 -0.1648 -0.2234  0.1014
43558W        W52358   8.276   3.281  30.832 -0.1084  0.1327 -0.0768
43559W        W52359   2.806   0.857   1.552 -0.0905 -0.2048 -0.0330
43560W        W52360   2.983   3.020   0.162 -0.3087 -0.1803 -0.0232
43561W        W52361   7.726   7.278  30.382 -0.0774 -0.4062 -0.0422
43562W        W52362   9.191   5.528   2.474 -0.0320 -0.0504  0.1905
43563W        W52363   0.104   4.445  11.645 -0.0486 -0.0220 -0.0989
43564W        W52364   3.447   0.022   7.052  0.2233  0.0441 -0.0825
43565W        W52365   9.968   4.746  16.804  0.1647 -0.0626 -0.1237
43566W        W52366  17.138   2.684   3.991 -0.0780 -0.0350  0.0371
43567W        W52367   4.009   1.003   6.554 -0.1457 -0.2263 -0.0634
43568W        W52368   6.485   1.683  23.142 -0.3261  0.1439 -0.1786
43569W        W52369  12.825   3.922  30.316  0.1072 -0.0743 -0.2007
43570W        W52370  22.339   7.497  22.784  0.0340  0.1706  0.0145
43571W        W52371  23.025   6.141  13.555 -0.1760 -0.1684 -0.0473
43572W        W52372   4.989   4.025  29.700  0.0397  0.0222 -0.1180
43573W        W52373  19.359   7.091   7.344 -0.0225  0.2232 -0.0409
43574W        W52374  16.999   6.696   2.915  0.1072 -0.1190  0.0350
43575W        W52375  13.925   7.229  29.034 -0.2146 -0.2207 -0.0562
43576W        W52376  14.012   6.507   5.226 -0.0509  0.1656  0.4074
43577W        W52377   1.117   0.553  31.225  0.2095  0.2417 -0.0994
43578W        W52378   7.736   0.252  30.908  0.4338  0.0085  0.0685
43579W        W52379   4.547   1.534  16.388 -0.1053 -0.1043  0.1951
43580W        W52380  22.371   0.075   2.686  0.1343  0.0119  0.1509
43581W        W52381   5.510   2.192   2.424  0.1456  0.0150 -0.1559
43582W        W52382  12.933   2.653   2.443  0.1989  0.2063  0.3710
43583W        W52383  13.889   5.054  28.159  0.1430 -0.0351 -0.2545
43584W        W52384   8.185   4.896   9.468 -0.1609 -0.0772 -0.2015
43585W        W52385  19.563   6.150  10.185 -0.0365  0.0538 -0.1344
43586W        W52386   3.708   0.397   7.338  0.2790 -0.0410  0.0779
43587W        W52387  15.763   1.893  17.095  0.0682 -0.2407 -0.1478
43588W        W52388  10.763   0.713   7.325 -0.1884  0.0726 -0.1516
43589W        W52389   5.191   0.859  31.262  0.0689  0.2154  0.0406
43590W        W52390   5.986   1.754   8.667 -0.0507  0.1678 -0.1223
43591W        W52391  16.708   0.622   3.397  0.2411 -0.0284  0.0606
43592W        W52392  16.178   0.466  23.278 -0.0608  0.0474 -0.1196
43593W        W52393  17.409   4.783  11.228 -0.0474 -0.2905 -0.2128
43594W        W52394  14.883   0.547  29.181  0.2029  0.0033 -0.0586
43595W        W52395  22.704   1.363   3.571 -0.1697 -0.1425 -0.1021
43596W        W52396   6.442   3.699  27.054  0.0193 -0.0998  0.0859
43597W        W52397  20.042   7.089  24.847 -0.1054 -0.1530 -0.0111
43598W        W52398  12.283   4.528   5.569 -0.0537  0.1377  0.0573
43599W        W52399  19.140   5.359  22.779  0.2358  0.1418 -0.1451
43600W        W52400  22.775   5.587  10.291 -0.1302  0.0859 -0.0287
43601W        W52401  17.131   5.744  15.972  0.1856  0.1370  0.0553
43602W        W52402  23.170   2.971  24.143 -0.2017  0.0039  0.0901
43603W        W52403   5.805   2.414  28.158 -0.0637  0.0234 -0.2660
43604W        W52404  12.553   0.194  31.426 -0.1749 -0.4947 -0.2330
43605W        W52405  11.046   4.222   6.952  0.2240  0.0598 -0.1030
43606W        W52406   6.879   2.014   6.330 -0.0943  0.2102  0.2844
43607W        W52407  19.585   0.951  16.342  0.0871 -0.0170 -0.1360
43608W        W52408   5.299   6.342  25.687  0.0889 -0.0266  0.1004
43609W        W52409  20.025   1.729  16.454  0.1867 -0.0604  0.1791
43610W        W52410  19.887   5.475   8.372 -0.1963  0.2730 -0.0145
43611W        W52411   6.653   3.268  27.328  0.0024  0.1248 -0.1964
43612W        W52412  19.716   7.859  28.403 -0.2474  0.2767  0.0874
43613W        W52413   9.411   0.816   2.396  0.0941  0.3681  0.0317
43614W        W52414  18.517   1.779  24.515  0.0532  0.0444 -0.0003
43615W        W52415   8.889   3.422  20.120 -0.1411 -0.1617 -0.1465
43616W        W52416  19.032   1.226   3.070 -0.0749  0.3356  0.0531
43617W        W52417  21.962   5.080  17.058 -0.0208 -0.2342  0.1751
43618W        W52418   2.608   6.539  29.910  0.0101 -0.0140 -0.0652
43619W        W52419  22.669   0.993   4.515  0.4841  0.1505 -0.1964
43620W        W52420  17.634   7.118  32.359  0.0751  0.4773  0.2468
43621W        W52421  11.108   3.497  10.426 -0.1169 -0.0776 -0.0261
43622W        W52422  13.051   7.441  30.514 -0.1900 -0.1515 -0.0589
43623W        W52423  12.517   3.515  12.362 -0.1200 -0.1376  0.3901
43624W        W52424  24.321   2.463  14.321 -0.1544  0.1418  0.0285
43625W        W52425   2.108   4.466   3.200 -0.1556 -0.2452 -0.1169
43626W        W52426   7.113   3.222  19.622 -0.0311  0.2351  0.0526
43627W        W52427   0.859   4.465  23.731 -0.2334  0.1743 -0.0815
43628W        W52428  17.890   2.253  24.789  0.1071  0.1980 -0.0420
43629W        W52429  14.584   6.147  23.076 -0.1742 -0.1338 -0.3203
43630W        W52430  12.694   4.736  23.124  0.2378  0.2479  0.1709
43631W        W52431  13.626   0.887   1.163  0.1697 -0.1456 -0.1161
43632W        W52432  15.349   4.614  25.564  0.1843 -0.1634  0.1122
43633W        W52433  16.201   0.496   6.973  0.1361  0.1964 -0.0983
43634W        W52434  19.447   2.931   3.451  0.1653  0.5342 -0.2871
43635W        W52435  10.446   2.652   5.224  0.1996  0.1914 -0.2206
43636W        W52436  21.702   5.568  31.244 -0.0381 -0.3444  0.0062
43637W        W52437  20.212   3.217   8.879  0.0530 -0.4915 -0.0504
43638W        W52438  21.707   2.988   8.594  0.1815 -0.0121  0.1939
43639W        W52439  24.502   5.416   2.349 -0.0175  0.2172  0.0316
43640W        W52440   6.275   6.685   0.898  0.2807 -0.0511 -0.3856
43641W        W52441  14.895   2.863  23.269  0.0075  0.0531 -0.0334
43642W        W52442  13.817   3.509  22.063 -0.0809 -0.1742  0.2735
43643W        W52443  18.359   3.265   8.622  0.1481  0.0035 -0.0978
43644W        W52444   7.890   7.367  20.551 -0.1862  0.3118  0.1409
43645W        W52445  19.980   6.553  23.043 -0.1056  0.0747 -0.1942
43646W        W52446   0.974   3.169  25.360 -0.2075  0.1803  0.2576
43647W        W52447  10.765   5.757   0.489  0.1474 -0.0841 -0.0202
43648W        W52448  12.576   0.848   3.121 -0.0691 -0.0694 -0.0590
43649W        W52449   4.969   5.575   9.086 -0.1377  0.0085 -0.0347
43650W        W52450   3.136   2.844  19.501 -0.2383  0.0380  0.0145
43651W        W52451  17.271   2.775  26.237  0.0167 -0.2368  0.2306
43652W        W52452   3.243   6.867   2.941 -0.1689 -0.1925 -0.0762
43653W        W52453  17.446   4.818   7.707 -0.1805  0.0034 -0.2414
43654W        W52454   3.122   1.786  27.073  0.2500 -0.0104  0.1468
43655W        W52455   2.386   7.071   3.045 -0.1992  0.0107  0.1195
43656W        W52456  17.390   2.497  15.790  0.1892  0.2057  0.0844
43657W        W52457  21.323   0.551   1.446  0.0298 -0.1842  0.4051
43658W        W52458   9.138   5.031  17.553 -0.2670  0.3312  0.0290
43659W        W52459  22.643   1.269  28.502 -0.0714  0.1896  0.1387
43660W        W52460   8.172   5.062  20.561 -0.0170  0.1259  0.0669
43661W        W52461  16.227   7.775   3.107 -0.2871 -0.0481  0.2306
43662W        W52462  18.933   0.891  17.944  0.3011  0.1867 -0.0861
43663W        W52463  18.677   6.174   0.763  0.2110  0.1149  0.2184
43664W        W52464   7.507   1.915  21.146  0.2870  0.0392  0.0571
43665W        W52465  11.129   0.023   9.070 -0.1014  0.2759  0.1629
43666W        W52466   3.542   1.032  11.198 -0.1274 -0.2126 -0.0664
43667W        W52467   2.376   5.711  27.264  0.1250 -0.1112  0.0313
43668W        W52468  23.830   4.993   2.721 -0.2682  0.1282 -0.0169
43669W        W52469   6.319   7.118  22.068  0.1225  0.1517  0.2702
43670W        W52470   2.684   4.496  24.331  0.0201 -0.2066  0.0778
43671W        W52471  15.541   3.282  31.562  0.1559  0.0724 -0.2608
43672W        W52472  10.704   6.116   1.411  0.0959 -0.0851  0.0918
43673W        W52473   6.839   1.554   6.741  0.1402  0.1149 -0.1440
43674W        W52474  10.934   3.759  19.804  0.1300  0.0091 -0.3172
43675W        W52475  15.162   4.433  11.137  0.1439 -0.0464  0.1302
43676W        W52476  24.524   2.082   9.841  0.0702  0.1031 -0.0272
43677W        W52477   7.929   7.673  25.828  0.1099  0.1119 -0.4208
43678W        W52478  18.746   6.758   2.920 -0.3219  0.0161  0.3293
43679W        W52479  14.630   0.357  22.339  0.1051 -0.2142 -0.1815
43680W        W52480   8.573   4.339   8.252 -0.1753 -0.1562  0.1256
43681W        W52481  21.423   1.130   9.945 -0.0705 -0.1111 -0.0248
43682W        W52482   4.255   4.587  10.146 -0.0373 -0.3375  0.2520
43683W        W52483  24.469   5.568   4.057 -0.3888  0.0319  0.0682
43684W        W52484  16.457   2.438   0.360 -0.0545 -0.2378 -0.0120
43685W        W52485  13.404   7.476  11.226  0.1569 -0.1977  0.2772
43686W        W52486  16.922   3.937  23.780  0.1859  0.0309 -0.1992
43687W        W52487   7.217   6.758  15.123  0.4051  0.0281  0.0053
43688W        W52488  21.846   2.701   9.095  0.1448 -0.0905  0.0835
43689W        W52489   3.776   6.551   0.761 -0.0650  0.2525  0.2655
43690W        W52490   1.659   3.900  10.049 -0.3801  0.2181  0.0160
43691W        W52491   4.598   3.232  27.505 -0.0246  0.1251  0.0387
43692W        W52492  10.438   5.773   9.816 -0.0485  0.2718 -0.2068
43693W        W52493  22.137   1.840  23.579  0.0234  0.1943  0.1078
43694W        W52494  17.285   2.733  23.043 -0.1119  0.1369  0.1207
43695W        W52495  24.435   3.548  20.584  0.0859  0.1878 -0.2484
43696W        W52496   9.131   3.132   5.965 -0.0761  0.1814 -0.0471
43697W        W52497   2.315   2.045   6.335  0.2242 -0.0661 -0.2837
43698W        W52498  18.144   6.031  14.996 -0.1303 -0.1729  0.1022
43699W        W52499   6.355   2.972  19.558 -0.1485 -0.3006  0.2431
43700W        W52500  20.814   5.817   4.742 -0.0759  0.1047  0.2240
43701W        W52501  23.796   6.418   8.439 -0.0623 -0.0544  0.0162
43702W        W52502  21.278   6.814   5.918 -0.1220  0.0594 -0.1591
43703W        W52503  13.539   2.806   6.838  0.1834  0.1698  0.2314
43704W        W52504   7.083   6.586  14.049  0.2218 -0.0574 -0.1776
43705W        W52505   9.521   3.928  19.917  0.1749 -0.3882  0.1334
43706W        W52506  14.544   3.987  11.642 -0.0057 -0.2107 -0.1767
43707W        W52507  13.980   6.875  11.455 -0.4064  0.0374  0.0813
43708W        W52508  10.693   1.576  30.721  0.0665  0.0592  0.2252
43709W        W52509   4.135   7.000  25.801 -0.2538  0.1342  0.0240
43710W        W52510   3.682   4.935   2.876  0.1332 -0.1043  0.0283
43711W        W52511  21.897   6.186  15.672  0.1707  0.0371  0.2444
43712W        W52512  15.475   6.253  25.164  0.1535  0.1434  0.2417
43713W        W52513  23.189   4.017   8.872  0.1717  0.1214 -0.3185
43714W        W52514   0.615   3.914  11.901  0.0360  0.1770  0.1307
43715W        W52515   3.502   4.379  16.604 -0.1629 -0.0986 -0.1316
43716W        W52516  11.872   7.707   7.808  0.0837 -0.1250 -0.1215
43717W        W52517   1.234   3.958  26.722 -0.0013  0.0649  0.3003
43718W        W52518  15.894   0.622  12.073 -0.0179  0.0224  0.1609
43719W        W52519  18.675   0.519  27.779  0.0718  0.1591 -0.0085
43720W        W52520  23.666   3.420   5.736  0.0398  0.3381  0.0107
43721W        W52521  22.492   1.525  28.978 -0.0855  0.0168 -0.0199
43722W        W52522   1.185   1.836   6.291  0.0533  0.1520  0.2990
43723W        W52523  24.688   5.972  11.583  0.3995 -0.1192  0.0658
43724W        W52524  12.255   6.385   9.708  0.1194  0.0834 -0.0664
43725W        W52525  13.433   5.621  22.864  0.1104  0.1091 -0.0946
43726W        W52526   0.294   1.491  23.554  0.0626 -0.0007 -0.0281
43727W        W52527  22.889   2.609  32.374  0.0657 -0.3553 -0.2393
43728W        W52528  18.318   7.677  28.574  0.0532 -0.0610  0.0507
43729W        W52529  15.733   4.255  22.979  0.0300 -0.4122  0.1993
43730W        W52530  20.316   1.955   5.125 -0.2094  0.0868 -0.0095
43731W        W52531   0.142   5.586  27.106  0.0546  0.0561  0.2736
43732W        W52532   6.627   2.719   2.148 -0.0305  0.0887 -0.1491
43733W        W52533  19.130   5.553  29.764  0.1382  0.2304 -0.2076
43734W        W52534   4.687   4.151  18.066 -0.2474  0.1547  0.1106
43735W        W52535   5.767   0.562   4.901  0.1815  0.1105  0.0405
43736W        W52536   1.259   5.957  23.652 -0.0230  0.2159  0.0709
43737W        W52537   6.583   4.507   3.817  0.0196  0.0551 -0.1778
43738W        W52538  11.378   5.472  31.822 -0.0935 -0.1385 -0.0482
43739W        W52539   6.887   5.508  25.552  0.0954  0.2150  0.1344
43740W        W52540  21.785   2.405   1.923 -0.1886 -0.1300  0.2792
43741W        W52541  11.005   1.581  31.673  0.0071  0.3027  0.1178
43742W        W52542   4.983   1.797  23.435 -0.0366  0.0243 -0.0527
43743W        W52543  16.151   3.335   8.993 -0.3245  0.1715  0.1905
43744W        W52544   3.018   1.074  28.527 -0.0313 -0.0098  0.2974
43745W        W52545  21.258   1.498  12.320  0.4553 -0.3118 -0.0674
43746W        W52546  22.106   6.318   6.237  0.0765  0.2398  0.0269
43747W        W52547  17.231   0.478  25.622  0.0478 -0.0451  0.0668
43748W        W52548  19.510   0.284   1.902  0.0013 -0.4447 -0.0159
43749W        W52549  18.717   0.399  23.009  0.2469  0.0495 -0.0560
43750W        W52550   1.887   6.723   7.912  0.0074 -0.1797  0.1474
43751W        W52551  20.946   0.038  11.223  0.0115  0.3512 -0.0496
43752W        W52552  10.602   6.674   1.652  0.0184 -0.0134 -0.1139
43753W        W52553  14.492   6.295  25.559  0.1716 -0.2312  0.0838
43754W        W52554  21.143   5.509  24.355  0.0648 -0.2711  0.1961
43755W        W52555  14.048   1.441   7.924 -0.1194 -0.2077  0.0055
43756W        W52556   7.616   6.854   4.699 -0.2825  0.4143  0.1209
43757W        W52557   8.365   3.427   3.230 -0.2266  0.0627  0.0495
43758W        W52558   7.459   4.703  17.441  0.4501 -0.4593 -0.0468
43759W        W52559   4.503   4.534  30.990 -0.0656 -0.2126 -0.1176
43760W        W52560  12.666   0.043  30.209  0.1188  0.0436 -0.0954
43761W        W52561   7.432   1.731  27.141 -0.1657  0.2120 -0.2961
43762W        W52562  10.958   1.716   4.353  0.4005  0.1867 -0.0966
43763W        W52563   0.020   4.755   4.389 -0.1654 -0.1994 -0.0735
43764W        W52564   8.559   0.373  18.781  0.2558  0.0012 -0.0241
43765W        W52565  17.172   6.554  12.700 -0.1115 -0.2034  0.0471
43766W        W52566   0.462   4.696  12.428 -0.2558  0.2572 -0.3228
43767W        W52567  20.192   1.592  25.272  0.0874 -0.1275  0.2998
43768W        W52568   2.121   5.027  20.627  0.0074  0.0502  0.1003
43769W        W52569  17.033   2.636   1.806  0.0440 -0.0699 -0.3921
43770W        W52570  20.280   5.099   3.104  0.1528 -0.1425 -0.2922
43771W        W52571  19.764   1.640  13.522  0.1247 -0.1506 -0.1629
43772W        W52572  16.990   5.081   7.176 -0.2231 -0.1392  0.2336
43773W        W52573  13.694   0.440  29.401  0.0102 -0.0778  0.1420
43774W        W52574  19.949   1.324  24.236  0.0281  0.1455  0.1487
43775W        W52575  11.433   2.046  21.190  0.0366 -0.0895  0.2750
43776W        W52576  10.763   4.229  25.580 -0.1678 -0.0113  0.0067
43777W        W52577  10.375   2.291   8.888  0.2032  0.0001  0.0353
43778W        W52578  24.796   7.820  25.367 -0.3767 -0.1570  0.1249
43779W        W52579  11.770   0.978  10.514 -0.0367  0.1324 -0.0214
43780W        W52580  22.694   6.594   9.367 -0.1052  0.1107 -0.0473
43781W        W52581  13.861   1.053   0.129 -0.1743 -0.0075  0.0497
43782W        W52582   4.525   5.434  15.635 -0.2106  0.0877  0.0895
43783W        W52583  19.815   5.253  23.968  0.0741 -0.0914 -0.0883
43784W        W52584   1.846   7.835   9.498  0.0052  0.2443 -0.4604
43785W        W52585   0.800   0.315   5.046 -0.1239  0.0037 -0.0884
43786W        W52586   9.099   3.131  25.887 -0.1652 -0.1719 -0.0903
43787W        W52587  24.211   5.342  30.471  0.0309 -0.0336 -0.0249
43788W        W52588  15.359   2.573   4.461 -0.2144  0.1959 -0.1638
43789W        W52589  23.088   0.618  32.019  0.2544 -0.0968 -0.1992
43790W        W52590   5.963   0.238  30.122  0.0126  0.0720 -0.1869
43791W        W52591  20.649   0.313  29.266 -0.2892 -0.1595 -0.0135
43792W        W52592  12.813   5.854   1.050  0.1325  0.1859 -0.1536
43793W        W52593   5.833   6.516  25.693  0.1385 -0.0297 -0.0933
43794W        W52594   8.319   7.691  32.126 -0.2574 -0.1475 -0.0102
43795W        W52595  19.851   2.027   3.658  0.2124  0.1323  0.1105
43796W        W52596  16.942   6.140  25.504 -0.0752 -0.2332 -0.2852
43797W        W52597  22.769   2.837  12.316 -0.2056 -0.1200  0.1937
43798W        W52598   2.730   4.365  22.934  0.0998 -0.0310 -0.0846
43799W        W52599  18.318   0.255  23.216  0.0092 -0.3807 -0.0320
43800W        W52600  13.463   6.704   4.282 -0.0203  0.3040  0.0875
43801W        W52601   6.838   4.597  28.378 -0.2496  0.2102  0.1319
43802W        W52602  23.263   1.198  13.561  0.0646  0.2983 -0.1000
43803W        W52603   4.469   3.471   6.058 -0.2762  0.0662  0.1572
43804W        W52604  13.871   1.331   0.572  0.2872  0.2070  0.1634
43805W        W52605  11.432   3.306  27.982  0.1588  0.3901  0.1123
43806W        W52606  18.906   3.673  15.522  0.1905 -0.2621 -0.1350
43807W        W52607   1.957   4.748  29.042  0.0649  0.0004  0.2457
43808W        W52608  18.220   4.264   4.289  0.1562 -0.0713 -0.2284
43809W        W52609  17.738   0.158  11.894 -0.3059  0.2507 -0.2651
43810W        W52610   0.667   7.282  28.338  0.0145  0.1740  0.1508
43811W        W52611  20.126   5.273  24.467  0.0125 -0.0378 -0.0575
43812W        W52612  19.229   6.303  17.952 -0.1381  0.1045  0.1714
43813W        W52613  22.688   5.591  12.035  0.2147  0.1134 -0.1925
43814W        W52614  22.919   6.498   3.587 -0.0796 -0.0141 -0.4308
43815W        W52615   2.740   0.417  29.269 -0.1002  0.1330  0.2635
43816W        W52616  17.428   3.099  29.315 -0.1020 -0.1613  0.1460
43817W        W52617  16.668   2.745  29.833 -0.4305  0.0013 -0.2091
43818W        W52618   6.964   4.362  17.311 -0.3416 -0.0294  0.1922
43819W        W52619   5.080   0.055   1.063 -0.2871 -0.0504 -0.1751
43820W        W52620   6.071   2.904   7.962  0.0141 -0.2017 -0.0140
43821W        W52621  17.270   5.053   4.418 -0.2464 -0.1682  0.0594
43822W        W52622   9.338   7.385  22.033 -0.0828 -0.1654 -0.4410
43823W        W52623  13.365   2.191   8.630 -0.0857 -0.1471 -0.2624
43824W        W52624  12.704   6.610   0.399  0.0286  0.0074 -0.1107
43825W        W52625  14.135   2.459   2.822 -0.1304 -0.1986 -0.0767
43826W        W52626   2.163   6.899  28.653  0.0599  0.2276 -0.0492
43827W        W52627   2.709   5.543  23.035  0.1133  0.1483 -0.1555
43828W        W52628  22.138   6.184  27.283 -0.1969  0.1129  0.3809
43829W        W52629  12.221   7.821  19.835 -0.0276  0.1383 -0.0336
43830W        W52630  13.744   2.750   4.502 -0.0964 -0.5305  0.1142
43831W        W52631  20.829   1.581   6.372  0.2053 -0.2105  0.1443
43832W        W52632  13.334   1.172  20.894 -0.0801  0.1272 -0.0172
43833W        W52633   6.920   2.118  24.984 -0.1182  0.3205  0.0989
43834W        W52634  22.849   0.624  22.096 -0.4997 -0.0338 -0.0525
43835W        W52635  10.869   2.267  17.669  0.0674  0.4917  0.1063
43836W        W52636  15.709   5.251  28.611 -0.1272  0.0859  0.1805
43837W        W52637   1.395   4.065  11.128  0.1189 -0.2452  0.0022
43838W        W52638   1.048   4.775   8.330 -0.0122 -0.3008 -0.1870
43839W        W52639   0.537   6.410  32.549 -0.1164 -0.1297  0.0430
43840W        W52640  21.372   6.733  25.920 -0.0791 -0.1418 -0.0143
43841W        W52641  17.128   5.271   3.147 -0.1195  0.2124  0.1560
43842W        W52642   9.236   0.450  27.607  0.0418 -0.1435 -0.0570
43843W        W52643  13.311   2.023  20.650 -0.1256 -0.0046  0.1215
43844W        W52644  23.028   2.915  21.988  0.2700 -0.0665 -0.3709
43845W        W52645   6.455   7.559  22.801  0.0769 -0.0118  0.3170
43846W        W52646  11.066   4.315  30.095 -0.4468 -0.1331  0.0343
43847W        W52647   5.555   0.793  13.913  0.2489  0.2426  0.0298
43848W        W52648  15.116   5.344  14.965  0.4140 -0.1904  0.1898
43849W        W52649  13.029   0.301  20.274 -0.1643 -0.0324 -0.0383
43850W        W52650   3.929   6.513  17.288 -0.0549 -0.2341 -0.0251
43851W        W52651  24.750   0.449   7.712  0.1412 -0.0362  0.0245
43852W        W52652   0.918   2.843  23.108 -0.0224 -0.0884 -0.0584
43853W        W52653  17.532   4.775   1.333  0.1129  0.1116  0.1756
43854W        W52654   7.988   5.120  22.294 -0.2786 -0.0239  0.1424
43855W        W52655  22.360   4.191  12.630 -0.1036  0.2143 -0.0736
43856W        W52656   5.096   0.622   1.422 -0.0263 -0.1906  0.1281
43857W        W52657   9.100   7.312   3.166  0.0402 -0.0320  0.2803
43858W        W52658   8.285   6.836  22.593 -0.2090 -0.0042 -0.2428
43859W        W52659  15.653   3.490   0.291  0.3814 -0.2069  0.0003
43860W        W52660  14.333   6.503  30.978 -0.2389 -0.2825  0.2399
43861W        W52661  15.829   7.502   6.974 -0.0815  0.2412  0.1249
43862W        W52662   1.891   1.530  10.055 -0.0191 -0.1589 -0.0554
43863W        W52663  18.226   5.443   2.392  0.0345 -0.0349 -0.2725
43864W        W52664   2.945   1.764  26.355 -0.3225  0.2689  0.0918
43865W        W52665  11.171   7.809   0.045  0.0079  0.2138 -0.1455
43866W        W52666  19.728   1.086   0.538  0.4612 -0.1356 -0.0044
43867W        W52667  19.568   6.082   1.237 -0.1887 -0.0882 -0.0547
43868W        W52668  15.260   1.065  12.686 -0.2254 -0.0368 -0.2781
43869W        W52669  10.716   7.269  20.922  0.0677 -0.6139  0.3560
43870W        W52670   8.397   5.091  31.303  0.1623  0.2301 -0.1168
43871W        W52671  12.163   0.184   7.950 -0.0047 -0.0342 -0.1008
43872W        W52672   4.082   7.803  21.367 -0.1419  0.0862 -0.0241
43873W        W52673  10.607   1.279  28.969  0.0310 -0.3168  0.0535
43874W        W52674  21.639   7.195  13.348 -0.0423 -0.0404 -0.0013
43875W        W52675  16.880   3.654  15.598 -0.3521 -0.0942  0.0362
43876W        W52676  13.488   7.736  31.685  0.0194 -0.1068  0.0001
43877W        W52677   5.913   5.660  18.237 -0.1132 -0.0614  0.0694
43878W        W52678  21.012   4.936  30.248 -0.1068  0.0842 -0.0968
43879W        W52679   7.757   3.035  24.715 -0.2001 -0.2347  0.0714
43880W        W52680  16.147   6.604  11.386 -0.1233 -0.0897  0.0905
43881W        W52681  12.852   3.414   2.150  0.2088 -0.3432  0.0902
43882W        W52682   6.254   2.426  20.288  0.2016  0.0351 -0.2439
43883W        W52683  18.671   1.757   8.677 -0.0248  0.1326  0.0049
43884W        W52684  17.495   2.288  28.670  0.1334  0.0357 -0.2884
43885W        W52685   3.101   5.341  20.960  0.0560  0.1333  0.2834
43886W        W52686   4.706   3.627   8.554 -0.2916 -0.1808 -0.2631
43887W        W52687   0.132   4.488   1.403 -0.3291  0.3486  0.1010
43888W        W52688  19.893   1.204  17.397  0.0079  0.1505 -0.0363
43889W        W52689   3.833   4.741   5.662  0.0906 -0.0082 -0.0783
43890W        W52690  23.499   2.427  10.678  0.2761 -0.0327  0.0348
43891W        W52691  15.934   6.289   9.540 -0.2550  0.1099  0.1790
43892W        W52692   5.980   3.929  26.507 -0.0321 -0.1381 -0.0242
43893W        W52693  21.769   7.629  12.852 -0.2591  0.0394  0.1221
43894W        W52694  18.113   6.615   9.162  0.0221 -0.0379 -0.0039
43895W        W52695  11.004   6.269   5.831 -0.1914 -0.0353 -0.3105
43896W        W52696  16.164   6.708   9.944 -0.3253  0.2898  0.1478
43897W        W52697   4.192   4.312  17.342  0.1314 -0.0707  0.0776
43898W        W52698  15.917   2.764   3.847 -0.3070  0.1776 -0.3734
43899W        W52699   0.439   0.871  25.089 -0.1256 -0.1831  0.0689
43900W        W52700  19.551   1.958   0.092  0.0501 -0.2919 -0.3300
43901W        W52701   6.388   1.890  30.540 -0.0090 -0.4597 -0.2373
43902W        W52702  17.644   7.107   9.626  0.0248 -0.0056 -0.1105
43903W        W52703  18.002   2.613  24.262  0.1752  0.2415  0.1967
43904W        W52704  20.718   5.946  11.559  0.2352 -0.1262  0.1015
43905W        W52705  22.160   5.680  13.776 -0.2737  0.3182  0.0307
43906W        W52706  21.877   4.970   6.560  0.1573  0.1434  0.0899
43907W        W52707  17.762   1.604  26.236  0.1150  0.2051  0.0332
43908W        W52708   8.519   0.434  10.417  0.0188  0.0412 -0.2167
43909W        W52709  12.419   5.152  22.995 -0.1323 -0.0207 -0.0509
43910W        W52710   6.550   4.527  17.561 -0.0407  0.0827 -0.1123
43911W        W52711  21.297   5.737   8.476  0.0477 -0.1656 -0.2472
43912W        W52712   4.902   0.651   5.020 -0.0347  0.0054  0.1585
43913W        W52713  15.660   4.823  26.961 -0.0017  0.2003 -0.0834
43914W        W52714  20.782   5.671   1.489 -0.2561 -0.2149  0.0099
43915W        W52715  13.512   1.702   0.284  0.1333 -0.2573 -0.2537
43916W        W52716   0.355   4.271  23.889 -0.1848  0.3525  0.2245
43917W        W52717   7.540   2.592  22.370  0.2138  0.2363  0.1860
43918W        W52718  21.196   2.042  24.662  0.2297  0.0696 -0.1821
43919W        W52719  18.818   7.532  31.370  0.0145 -0.1207 -0.0024
43920W        W52720   3.055   3.166  24.580  0.1201  0.1712  0.0962
43921W        W52721  23.062   7.699  15.419  0.3235  0.0749 -0.0780
43922W        W52722   6.049   3.659  20.419 -0.0087  0.1289  0.3024
43923W        W52723  19.914   4.850  29.243  0.2102  0.0549  0.0424
43924W        W52724  19.785   2.597  14.807  0.1254 -0.0215 -0.0666
43925W        W52725  22.111   3.515  11.450  0.1691 -0.2541 -0.1646
43926W        W52726  23.289   6.676  13.081  0.0019 -0.2152  0.0699
43927W        W52727  20.901   0.750  31.562  0.0121  0.0055  0.2301
43928W        W52728   7.194   0.660  22.752 -0.1677  0.2216 -0.0436
43929W        W52729  16.932   2.261   3.695 -0.2637 -0.0615  0.2908
43930W        W52730   2.659   2.699   1.536  0.2104  0.0729 -0.1191
43931W        W52731   3.157   4.353  16.185  0.1231  0.0530 -0.0131
43932W        W52732  11.879   0.663  21.914  0.0679  0.0712  0.0195
43933W        W52733  17.141   5.170  29.101 -0.1994  0.2101 -0.2367
43934W        W52734  17.725   0.510   9.157  0.3107  0.0893  0.0801
43935W        W52735   8.030   6.158   1.251  0.1531 -0.4875  0.1203
43936W        W52736   0.356   0.565   7.718  0.3802  0.0709 -0.1308
43937W        W52737   5.332   2.310  31.148  0.2815 -0.1668  0.1124
43938W        W52738   7.775   0.797  31.588  0.0975  0.0876 -0.2577
43939W        W52739  12.859   3.501   7.784  0.1672  0.2684  0.1536
43940W        W52740  24.646   6.859   6.956  0.0157 -0.3105  0.0255
43941W        W52741   9.399   7.500  29.966  0.1803 -0.0194 -0.1691
43942W        W52742  22.570   2.030  23.254  0.1752  0.0638  0.1014
43943W        W52743   0.429   2.301   8.007 -0.1167 -0.1425  0.2558
43944W        W52744   2.613   5.127  27.914  0.0418 -0.3909  0.0482
43945W        W52745   3.224   1.005  22.666  0.1449 -0.0292 -0.1974
43946W        W52746  16.674   3.887   8.951 -0.0735  0.0529 -0.0855
43947W        W52747   4.477   7.670  23.653  0.1531  0.0177  0.2266
43948W        W52748  22.812   6.848   6.756  0.0304  0.3962  0.3608
43949W        W52749   0.370   2.950   2.314  0.0494 -0.2216 -0.1472
43950W        W52750  18.959   7.158   0.505 -0.0092 -0.0995  0.0365
43951W        W52751   7.910   6.680  30.462  0.1327  0.0561  0.0399
43952W        W52752  25.056   1.405   2.398  0.1334  0.1342 -0.0787
43953W        W52753  19.538   4.236  24.127  0.0256 -0.1324 -0.1110
43954W        W52754  14.621   2.292  10.248  0.2111  0.1808  0.0990
43955W        W52755  23.425   4.587  14.238  0.1502 -0.0958  0.2403
43956W        W52756   5.687   3.505  16.939  0.0824  0.2544  0.1138
43957W        W52757  19.953   6.611  23.557 -0.1858  0.2987  0.1343
43958W        W52758  11.562   3.274  25.710  0.5375 -0.1270  0.2940
43959W        W52759  24.633   2.277   1.049 -0.0571 -0.0742  0.0610
43960W        W52760  17.311   2.715   2.731  0.1831  0.2291  0.1951
43961W        W52761  21.432   2.511  30.128 -0.2134  0.0764  0.0769
43962W        W52762  23.845   4.224  15.101 -0.1271 -0.1874  0.1426
43963W        W52763  13.138   3.831  29.601 -0.2058 -0.2817  0.1517
43964W        W52764  13.595   3.813   0.942  0.2417 -0.0520  0.2183
43965W        W52765  24.977   3.150  25.798 -0.1711  0.1393  0.0013
43966W        W52766  21.405   4.573  11.912 -0.2453 -0.0688 -0.4488
43967W        W52767  10.600   3.715   1.594 -0.4566 -0.1742  0.4660
43968W        W52768  17.616   2.008   1.236 -0.2483  0.3648  0.0866
43969W        W52769   1.280   2.965  20.300 -0.4799  0.1302 -0.1640
43970W        W52770  13.750   1.386  28.512 -0.0503 -0.0787 -0.1256
43971W        W52771   9.021   7.242  19.509 -0.0732  0.2185 -0.3111
43972W        W52772   8.676   5.237   9.431  0.1342 -0.0773  0.0132
43973W        W52773  19.645   6.568   8.140  0.0377  0.1164 -0.1328
43974W        W52774   4.008   6.587   4.825 -0.3622  0.1625 -0.1249
43975W        W52775  10.928   3.433  28.142  0.1849 -0.1001 -0.3458
43976W        W52776  10.568   3.224  28.776  0.0896 -0.0691 -0.0585
43977W        W52777  14.885   6.651  14.810 -0.2444 -0.3965  0.0567
43978W        W52778  21.694   6.232   2.579  0.0879  0.2477 -0.1616
43979W        W52779  12.132   2.098  18.206  0.0805 -0.0898  0.0889
43980W        W52780   6.580   3.130  32.254 -0.0822 -0.1453 -0.2075
43981W        W52781  14.168   3.305   0.157 -0.2962  0.2753  0.2694
43982W        W52782  14.028   1.353  11.802  0.1737  0.2813  0.2542
43983W        W52783   3.049   0.293  21.950 -0.1977  0.2756 -0.0514
43984W        W52784  22.514   6.117  13.563 -0.1229 -0.0459  0.1776
43985W        W52785  22.398   1.726  13.727 -0.1177  0.4675 -0.1166
43986W        W52786   2.677   2.013  23.200  0.3139  0.1332 -0.1842
43987W        W52787  18.468   6.958   0.422 -0.1642  0.0756 -0.1852
43988W        W52788   0.783   1.794  24.634 -0.2722  0.3179 -0.1244
43989W        W52789  18.166   6.520  27.686 -0.1467 -0.0547 -0.0740
43990W        W52790  23.653   6.551  28.394  0.1004 -0.0314 -0.2677
43991W        W52791   8.772   6.359  21.500  0.0009 -0.0601  0.1809
43992W        W52792  20.652   4.914  10.514 -0.2520 -0.0362 -0.1664
43993W        W52793  21.325   3.131  22.997 -0.2105 -0.1213 -0.1264
43994W        W52794  21.987   1.720  28.924  0.0328 -0.1775 -0.2944
43995W        W52795  12.119   4.991  10.979 -0.4160  0.1908 -0.0267
43996W        W52796  16.904   4.802  23.866  0.1140 -0.0864  0.3403
43997W        W52797   5.742   5.977  14.859 -0.1211 -0.3073 -0.3165
43998W        W52798  15.254   0.141  28.667 -0.1180  0.0605 -0.0222
43999W        W52799  10.261   3.068   8.966 -0.2937 -0.2582 -0.0955
44000W        W52800   7.360   3.044  28.063 -0.1537  0.0641  0.1918
44001W        W52801   5.459   6.607  30.387 -0.3312  0.1912 -0.1814
44002W        W52802  12.715   4.107   8.652  0.1402  0.2227  0.1928
44003W        W52803   4.994   1.823  16.736  0.0692 -0.3032  0.1572
44004W        W52804  13.471   1.632  12.125  0.1973 -0.0460 -0.1277
44005W        W52805  14.544   5.757   2.317 -0.0088  0.1566  0.1077
44006W        W52806   8.949   6.793   5.993 -0.1395 -0.0514 -0.1532
44007W        W52807   5.706   4.897  23.221  0.2246  0.1492  0.3033
44008W        W52808   3.902   3.675  29.224 -0.0020 -0.1365 -0.0666
44009W        W52809   8.677   3.926   7.908  0.0569  0.1261 -0.1776
44010W        W52810  12.779   5.398   7.213  0.0911  0.0135  0.1573
44011W        W52811   0.364   1.528  21.768 -0.0940 -0.1890  0.1779
44012W        W52812   3.186   1.930  22.663 -0.3469  0.1486 -0.0200
44013W        W52813  21.168   4.622   0.165  0.1237  0.1948 -0.1509
44014W        W52814   1.773   2.021  10.015 -0.0842 -0.1148  0.0660
44015W        W52815  24.441   4.876   6.068  0.1315 -0.5782  0.1039
44016W        W52816   0.797   3.877  21.267 -0.2349 -0.2242 -0.1460
44017W        W52817  17.103   7.217  16.021  0.1120 -0.0635 -0.1475
44018W        W52818  16.333   3.111   9.809  0.0981  0.0562 -0.3062
44019W        W52819  16.083   1.589   7.875 -0.2402 -0.2126 -0.1798
44020W        W52820  16.150   0.571   8.011 -0.1070  0.1833  0.2544
44021W        W52821   0.179   3.773  10.949  0.2745  0.1560  0.0008
44022W        W52822   9.532   6.442   3.048 -0.0492 -0.1220 -0.2409
44023W        W52823   5.624   7.764  26.006 -0.3446  0.1920 -0.0287
44024W        W52824  16.550   5.601  10.580 -0.3843  0.0498 -0.0381
44025W        W52825   9.084   7.108  31.479  0.2297  0.0858 -0.0269
44026W        W52826  14.083   5.821  27.756  0.1170 -0.2545 -0.0477
44027W        W52827  11.812   6.645   8.130 -0.1313  0.1313  0.1225
44028W        W52828   1.286   6.955  22.806  0.2336 -0.2655  0.0632
44029W        W52829  21.619   3.179   1.331  0.2619 -0.1092 -0.0705
44030W        W52830  17.687   0.238  24.720 -0.0914  0.0695  0.3066
44031W        W52831   0.061   7.302   6.423  0.1275  0.1189 -0.1062
44032W        W52832   6.760   2.834  21.403  0.0712  0.0400  0.1935
44033W        W52833  21.551   4.982   1.389  0.0019  0.0448  0.0479
44034W        W52834   7.645   3.152  20.456 -0.4181  0.0032 -0.0278
44035W        W52835   5.341   5.694  13.993  0.2350 -0.1662  0.0089
44036W        W52836  17.471   6.966  16.479  0.0433 -0.1830  0.0774
44037W        W52837  11.523   3.407   9.646  0.2918 -0.0202  0.2185
44038W        W52838   9.669   6.357   4.537  0.0091  0.0426  0.3003
44039W        W52839  11.666   3.377   1.232 -0.0816  0.0227 -0.1170
44040W        W52840   8.057   1.443  22.365 -0.0126  0.0639 -0.3999
44041W        W52841   1.172   1.553  28.160 -0.1404  0.0488 -0.0332
44042W        W52842  17.788   3.344  23.331 -0.0962  0.1211  0.0281
44043W        W52843  10.242   3.733   9.821 -0.2680 -0.2616 -0.0462
44044W        W52844  12.065   4.354   0.117  0.5463 -0.0543 -0.2028
44045W        W52845  16.148   4.852  12.502  0.3856 -0.4177  0.0668
44046W        W52846  21.254   0.057  15.131 -0.0845  0.0516  0.1233
44047W        W52847   7.210   7.771  15.086  0.2208  0.2658  0.0093
44048W        W52848  11.889   7.573  12.532  0.1276  0.1389  0.0689
44049W        W52849   1.428   3.506   9.157 -0.0281  0.0917 -0.1623
44050W        W52850  13.090   4.524   6.270 -0.0004  0.0534  0.2233
44051W        W52851  21.865   7.060  26.195 -0.1850 -0.0811  0.3257
44052W        W52852  24.545   1.699   3.986  0.4116 -0.1753 -0.1500
44053W        W52853  24.326   2.399  29.074 -0.1693  0.2412  0.0550
44054W        W52854  21.442   3.915  16.756 -0.0091 -0.0659  0.2970
44055W        W52855  16.703   3.945   8.465  0.1408  0.1491  0.0489
44056W        W52856  17.866   1.703   4.879  0.1913  0.3380  0.2278
44057W        W52857   1.759   4.276   1.439  0.0608 -0.2095 -0.1590
44058W        W52858  13.279   6.229  11.133  0.1438 -0.1101 -0.1948
44059W        W52859  17.929   6.648  10.626  0.3203 -0.0049  0.3070
44060W        W52860   3.818   7.017   7.975  0.1065  0.1124 -0.2125
44061W        W52861   1.398   5.442   8.967 -0.1650  0.1802 -0.2362
44062W        W52862  15.053   1.286  10.762 -0.0282 -0.0252 -0.0338
44063W        W52863   6.962   1.192  18.848  0.3266  0.1721  0.1393
44064W        W52864  21.449   4.654  14.133  0.0467  0.0473 -0.0675
44065W        W52865   4.841   7.710   2.399 -0.0764  0.2559 -0.1295
44066W        W52866  13.813   3.136  23.336 -0.1520  0.1984  0.0670
44067W        W52867  13.802   3.081  22.863  0.1131  0.0794 -0.0895
44068W        W52868   5.345   1.924   0.045  0.1405 -0.0238 -0.2534
44069W        W52869   5.005   3.683   9.727  0.1781  0.3276  0.1355
44070W        W52870   9.719   2.559   6.623  0.2176 -0.2825  0.2855
44071W        W52871  12.503   2.539  21.973 -0.0755  0.2120  0.1097
44072W        W52872   5.005   5.258  21.284  0.1366  0.1619  0.1464
44073W        W52873  24.084   1.239   3.929  0.0019 -0.1091  0.1164
44074W        W52874   4.001   6.737   2.708  0.1744 -0.0059 -0.1755
44075W        W52875   9.083   3.308  28.073 -0.2379 -0.1487 -0.1632
44076W        W52876   6.001   4.266  19.373 -0.3253 -0.2751 -0.1088
44077W        W52877   0.794   7.148  22.885 -0.1689  0.2501  0.0115
44078W        W52878  19.805   6.799   5.896 -0.0537  0.1338  0.0115
44079W        W52879   3.084   4.558   5.011  0.0250 -0.2150 -0.1417
44080W        W52880  16.357   7.856   7.910  0.0847 -0.3552  0.0409
44081W        W52881   9.048   7.844  24.549 -0.1850  0.0741  0.1685
44082W        W52882  10.617   1.468  20.053 -0.2136 -0.1478  0.1132
44083W        W52883  17.368   1.996  26.857  0.0042  0.3011  0.1030
44084W        W52884  22.353   7.857  25.911  0.1211  0.1011 -0.0911
44085W        W52885  10.883   2.673  16.482 -0.1263 -0.1564  0.0385
44086W        W52886  19.535   4.841   4.806  0.0587  0.1099 -0.3396
44087W        W52887  16.631   7.470  10.052  0.1261 -0.0800  0.2114
44088W        W52888   6.798   6.652  29.382 -0.0077  0.0463 -0.2559
44089W        W52889  11.740   0.634   0.513  0.0222  0.0426  0.0864
44090W        W52890  21.281   4.395   7.922 -0.2332 -0.1058 -0.0708
44091W        W52891  16.518   3.040   6.915 -0.0748  0.1370 -0.0936
44092W        W52892   7.537   4.423  31.572 -0.0887  0.0950 -0.2733
44093W        W52893   3.641   7.323  18.673 -0.1448  0.1572 -0.0853
44094W        W52894  19.441   0.475  24.482  0.0023 -0.0352  0.1503
44095W        W52895   3.406   7.696  30.825 -0.0603 -0.2002  0.1854
44096W        W52896   8.671   2.154  30.111  0.0177  0.0814 -0.0109
44097W        W52897   5.611   4.743   2.936  0.0882 -0.0516  0.0969
44098W        W52898   2.343   3.732  11.848 -0.2055 -0.1595 -0.0721
44099W        W52899   1.835   0.923   8.165  0.2478  0.2852 -0.2013
44100W        W52900  13.002   7.445  27.970 -0.1702  0.1839 -0.1101
44101W        W52901   0.938   2.753   3.153  0.0621  0.1765 -0.0349
44102W        W52902   9.073   6.318   1.243  0.5418 -0.0268 -0.0838
44103W        W52903  24.525   2.111  13.228  0.0665 -0.0797 -0.2496
44104W        W52904  18.073   5.740  16.021 -0.1269 -0.2163  0.0702
44105W        W52905   2.915   5.418   7.615  0.2662 -0.2554 -0.1060
44106W        W52906   7.865   6.752   6.419  0.0217  0.2210  0.0553
44107W        W52907   7.196   5.612  19.734 -0.3404  0.0094  0.0096
44108W        W52908  20.041   4.318   4.205 -0.0013  0.1189 -0.3617
44109W        W52909  11.406   1.641   2.484  0.1895 -0.0739  0.0242
44110W        W52910  15.514   6.475  31.392  0.0655  0.0841  0.1535
44111W        W52911  10.721   7.188   6.809 -0.1831 -0.3114  0.1046
44112W        W52912  18.533   6.385   1.262 -0.3502 -0.0121 -0.3618
44113W        W52913  23.467   2.280   3.441 -0.0492 -0.4482  0.5644
44114W        W52914  13.584   1.809  25.480  0.1581 -0.0763 -0.1616
44115W        W52915  19.702   5.439  10.158  0.2108 -0.3887 -0.1290
44116W        W52916  16.505   4.956  10.330 -0.1657  0.0135  0.1371
44117W        W52917  22.437   0.484  22.698  0.1857  0.1262 -0.0301
44118W        W52918   9.609   7.677   4.424  0.0169  0.0131 -0.1743
44119W        W52919  22.157   0.285  11.234  0.2484 -0.2467 -0.2255
44120W        W52920   1.472   6.826  20.582 -0.2223 -0.1045  0.0580
44121W        W52921  20.780   3.773  32.472 -0.0748  0.0859  0.1910
44122W        W52922  21.879   1.711  23.166 -0.1021 -0.2193 -0.3720
44123W        W52923   2.524   1.097  24.082 -0.2514  0.0288  0.3330
44124W        W52924   7.605   3.867  17.358  0.2089  0.1932 -0.2144
44125W        W52925   9.239   2.108   1.990 -0.3529  0.1476  0.1292
44126W        W52926  21.333   4.442  12.499 -0.0866  0.2846  0.1964
44127W        W52927  24.361   0.479  23.174  0.0530 -0.1859 -0.2015
44128W        W52928  21.373   4.866   1.879  0.0928  0.2282  0.0400
44129W        W52929   8.497   3.072  25.927  0.0846 -0.0562 -0.0976
44130W        W52930  10.948   6.507  32.025  0.0558  0.2433 -0.1528
44131W        W52931  11.391   7.747   3.379 -0.0982  0.3084  0.0427
44132W        W52932  24.406   6.011  22.996  0.0951  0.1970 -0.2321
44133W        W52933  13.848   5.427  29.117  0.0978 -0.1903 -0.1899
44134W        W52934  18.122   6.172   7.008 -0.1379  0.0729 -0.1266
44135W        W52935   6.856   4.906  26.367 -0.3003  0.2762  0.2253
44136W        W52936  13.638   2.494   9.280 -0.0365 -0.0150  0.0556
44137W        W52937  22.873   3.056  31.475 -0.1621 -0.2355 -0.1638
44138W        W52938  18.826   0.368   6.734  0.0703 -0.0520 -0.0575
44139W        W52939  24.880   7.223  12.240  0.1064  0.0074 -0.2635
44140W        W52940  18.929   4.548   3.975 -0.0835  0.2893  0.1741
44141W        W52941   5.966   5.870  31.515  0.1287 -0.1791 -0.0781
44142W        W52942   4.901   4.178   7.218  0.3040 -0.1343  0.0114
44143W        W52943   8.068   2.906  25.653 -0.0213 -0.2777  0.0051
44144W        W52944   6.263   5.973  10.402 -0.0903 -0.1700 -0.0530
44145W        W52945   5.018   1.654   8.484 -0.2444 -0.0355  0.2449
44146W        W52946   9.480   0.615  22.646 -0.1379  0.1337 -0.0384
44147W        W52947  16.900   0.664  12.030  0.1655  0.2561  0.1204
44148W        W52948  12.906   3.658  22.438 -0.1670  0.0933 -0.1043
44149W        W52949   5.030   4.618   3.717 -0.0496  0.1337  0.2455
44150W        W52950   3.731   5.935  18.403  0.2455 -0.1541  0.0196
44151W        W52951  21.203   1.275   1.407 -0.0977  0.2312  0.3670
44152W        W52952  12.914   6.557   3.541  0.0079  0.2511 -0.0553
44153W        W52953   4.014   4.194  29.518 -0.0791  0.1942  0.2606
44154W        W52954   0.595   6.947  20.981  0.0634 -0.3545  0.1273
44155W        W52955  24.465   4.412  10.986  0.0319 -0.2507 -0.2229
44156W        W52956  17.465   5.265   5.745 -0.0883 -0.1035 -0.0778
44157W        W52957  17.258   1.094  15.056  0.0345  0.2823  0.1924
44158W        W52958   6.744   0.955   8.505 -0.0486 -0.1685  0.4011
44159W        W52959  14.995   3.995   4.846  0.0076 -0.1293 -0.0252
44160W        W52960  20.846   0.003   5.136  0.0538 -0.1441 -0.0846
44161W        W52961   7.828   7.652  30.689 -0.1240  0.0822 -0.2616
44162W        W52962  23.352   3.876   4.390 -0.2889 -0.2294  0.0101
44163W        W52963  18.821   0.264  14.187 -0.0663  0.2613  0.1616
44164W        W52964   3.529   3.040  22.316  0.0642 -0.0601 -0.1622
44165W        W52965   0.350   6.515  22.765 -0.0669 -0.1428  0.0445
44166W        W52966   5.518   2.223  25.622  0.0950 -0.3012  0.0364
44167W        W52967  11.705   6.650  27.220  0.1686 -0.0549 -0.1461
44168W        W52968   1.468   7.633  26.308 -0.4001  0.1984 -0.1178
44169W        W52969   5.646   7.487  27.665 -0.1331 -0.0216  0.2401
44170W        W52970   1.661   1.918  24.762  0.1345 -0.0616  0.1226
44171W        W52971  18.296   4.194  14.994 -0.0039 -0.1054  0.0411
44172W        W52972  10.161   6.799  21.966  0.1125 -0.4196  0.3899
44173W        W52973  14.055   6.816  23.256 -0.1052  0.1444  0.0187
44174W        W52974   7.076   7.590  22.268 -0.0384 -0.2466  0.1787
44175W        W52975  23.019   1.165   4.153  0.0261  0.2287  0.0857
44176W        W52976  16.199   5.536  12.831 -0.0800 -0.1894 -0.1233
44177W        W52977   4.250   1.790  23.960  0.0901 -0.0530  0.0835
44178W        W52978  19.947   5.773  13.275  0.0790  0.1046  0.0443
44179W        W52979   1.444   7.155   0.909 -0.0323 -0.1025 -0.0257
44180W        W52980  19.523   4.118   7.861 -0.1361  0.0277 -0.2738
44181W        W52981  15.922   4.993  15.687  0.0946  0.1432  0.0243
44182W        W52982  17.107   4.598   0.419  0.0457  0.2611  0.0563
44183W        W52983  11.548   0.664   7.011  0.1071  0.2509  0.3500
44184W        W52984  23.680   5.294  29.656  0.0896 -0.2052  0.1698
44185W        W52985  16.838   7.625   7.159  0.0415 -0.0310 -0.1717
44186W        W52986  16.559   2.154  30.858 -0.0760 -0.0812  0.0986
44187W        W52987  10.035   4.948  23.800 -0.1000 -0.1178  0.2486
44188W        W52988  22.327   5.095   8.666  0.0061  0.0746  0.1222
44189W        W52989   1.784   3.712   2.798  0.0045  0.0236 -0.3744
44190W        W52990  21.638   6.519  31.145  0.1271 -0.0922 -0.0071
44191W        W52991  19.825   1.537  30.260  0.0001 -0.0999 -0.2675
44192W        W52992  21.681   6.642   1.511  0.2678 -0.1034 -0.1412
44193W        W52993   6.852   4.464  29.160 -0.3015  0.0959 -0.0663
44194W        W52994   0.815   4.007   4.378  0.3173  0.0223 -0.0123
44195W        W52995   3.517   2.547  26.459  0.0056 -0.0580  0.3539
44196W        W52996   0.746   0.835  31.310  0.1052  0.2099  0.1353
44197W        W52997  17.873   2.089  15.872 -0.1787  0.0922 -0.0453
44198W        W52998   3.980   1.802  10.425  0.0557  0.1510  0.2971
44199W        W52999  11.416   5.537  23.293  0.1994 -0.1135 -0.2927
44200W        W53000  19.419   5.295  17.600 -0.0848  0.0908  0.1549
44201W        W53001   4.682   2.392  22.429 -0.0294 -0.4574  0.0495
44202W        W53002   5.099   7.448   8.693  0.0960 -0.0299  0.2093
44203W        W53003   7.323   4.667   9.983 -0.0796 -0.0727  0.0974
44204W        W53004   8.664   1.543   2.468 -0.4358  0.2291 -0.0903
44205W        W53005   9.796   4.336  30.921  0.3943  0.1131 -0.0616
44206W        W53006  10.687   5.928   9.191 -0.0159 -0.2016 -0.0069
44207W        W53007   9.547   1.441  30.057  0.2671 -0.0236 -0.1518
44208W        W53008  14.251   0.633  11.136  0.0051  0.1686 -0.0454
44209W        W53009  15.982   0.667   1.134 -0.1330 -0.0313  0.2748
44210W        W53010  15.905   6.920  11.717 -0.1042  0.1941  0.0097
44211W        W53011  16.160   4.841  29.057  0.0313 -0.0578 -0.1495
44212W        W53012   1.435   5.687  29.835 -0.1269  0.0287 -0.1459
44213W        W53013  21.371   4.163   9.687 -0.1031 -0.4933  0.0075
44214W        W53014  11.729   2.349  26.568 -0.3194 -0.1292 -0.0181
44215W        W53015   7.367   2.843  15.777 -0.1277  0.1955  0.1744
44216W        W53016  23.692   2.253  14.369  0.3008 -0.1222  0.0225
44217W        W53017  11.495   7.389  27.766 -0.2407  0.0457 -0.3302
44218W        W53018   0.471   4.964  10.365  0.0263  0.0950 -0.4132
44219W        W53019  16.276   5.519  16.283  0.0394  0.1706  0.0951
44220W        W53020   5.407   7.160  27.343  0.1063 -0.0864  0.1398
44221W        W53021   5.719   1.679  18.001  0.1887 -0.1378  0.3906
44222W        W53022   3.634   4.329  21.959  0.1259  0.0212  0.1888
44223W        W53023   0.652   2.409   0.412  0.0515  0.2484 -0.0968
44224W        W53024  14.703   7.685  11.579 -0.1288 -0.2694  0.3764
44225W        W53025  13.836   7.784  12.103 -0.0269 -0.0382  0.2922
44226W        W53026  24.039   7.846  10.451 -0.1459  0.1723  0.2848
44227W        W53027  19.190   4.302  29.705 -0.2101 -0.0648 -0.1904
44228W        W53028   7.922   5.930  23.528 -0.1440 -0.0051  0.1440
44229W        W53029   4.240   4.704  22.076  0.4190 -0.0417 -0.0680
44230W        W53030  18.435   7.287  26.079 -0.2416 -0.1059  0.1212
44231W        W53031  10.171   1.950  27.458 -0.0230 -0.2067  0.0543
44232W        W53032   0.812   2.924  23.814 -0.2510  0.1201  0.1159
44233W        W53033  24.191   2.658   1.016  0.0778  0.1113 -0.2920
44234W        W53034   5.648   4.470  18.903 -0.2062  0.0548 -0.0636
44235W        W53035  10.151   3.616   2.400  0.0870  0.1668 -0.0704
44236W        W53036  11.976   4.366  27.001  0.1728 -0.0165  0.0905
44237W        W53037  14.333   1.548  14.886 -0.0560 -0.1580  0.3262
44238W        W53038  13.943   7.429  23.746  0.0270 -0.2831 -0.0042
44239W        W53039  17.841   0.296  31.738 -0.0544 -0.0908  0.2671
44240W        W53040  23.705   2.442  12.898 -0.1179 -0.0700 -0.1379
44241W        W53041   9.630   4.206   6.337 -0.2830  0.0333 -0.0593
44242W        W53042   2.617   5.777  18.075 -0.0675 -0.1729  0.1503
44243W        W53043   5.281   4.348  10.098  0.0308 -0.0686  0.3989
44244W        W53044  10.774   7.315  22.739  0.0400  0.1754 -0.0758
44245W        W53045   2.795   0.081  22.358  0.0792  0.0487  0.1322
44246W        W53046  10.505   7.093  22.401 -0.0950 -0.2732  0.1460
44247W        W53047  20.316   4.912  28.143 -0.0072  0.1778 -0.0519
44248W        W53048   1.007   6.861  25.773 -0.1754 -0.3077 -0.0267
44249W        W53049   7.974   6.240  29.519  0.2103 -0.0135  0.0692
44250W        W53050  14.213   2.753   8.704  0.0117  0.0787  0.2574
44251W        W53051   1.179   3.497  20.446 -0.1892 -0.0486 -0.0656
44252W        W53052  12.655   2.004  30.432  0.0471 -0.0603 -0.0368
44253W        W53053   7.892   3.964  23.322  0.1701  0.2783  0.4599
44254W        W53054   4.248   1.479  25.820  0.1175 -0.0527 -0.1299
44255W        W53055   9.102   4.808  28.383  0.0244 -0.0721  0.1016
44256W        W53056  17.637   1.890  24.503  0.0323  0.0560  0.0772
44257W        W53057  20.531   0.715  23.086  0.0993 -0.0159  0.0022
44258W        W53058   4.310   2.144   3.167  0.3868 -0.3435 -0.0274
44259W        W53059  19.681   5.907   0.741 -0.2057  0.0032  0.0518
44260W        W53060   9.230   3.001  26.742 -0.0254  0.1126  0.0070
44261W        W53061   1.254   2.010   9.914  0.2385  0.3401  0.0853
44262W        W53062  13.209   0.453   3.032  0.2198 -0.0780 -0.2367
44263W        W53063  15.203   6.959  25.504 -0.1310 -0.1791  0.1135
44264W        W53064   7.257   3.420  23.352  0.2396 -0.1898 -0.0516
44265W        W53065  11.935   6.467  28.419 -0.0822 -0.4153  0.0257
44266W        W53066  11.899   2.638  28.420  0.0072 -0.1831  0.0185
44267W        W53067  16.770   1.584   2.420 -0.2476 -0.0318 -0.1197
44268W        W53068  17.849   5.395  30.169 -0.0606  0.1742 -0.0180
44269W        W53069   8.049   4.854   3.262  0.1834 -0.1134 -0.1379
44270W        W53070  10.356   0.833  29.042 -0.0440  0.1278 -0.0041
44271W        W53071  14.244   3.234  25.411  0.2983  0.1390  0.1386
44272W        W53072  16.095   7.093  14.836  0.0597 -0.0430 -0.2569
44273W        W53073   4.855   0.031  17.693  0.1021 -0.1702 -0.0588
44274W        W53074   3.096   1.291   1.439  0.4151 -0.1977 -0.0128
44275W        W53075  18.829   6.170   6.572  0.0115  0.0453  0.0115
44276W        W53076  23.537   0.636   6.365  0.1529 -0.2272  0.0537
44277W        W53077  12.999   3.975  25.144 -0.1493 -0.0153 -0.1654
44278W        W53078  11.805   7.767  19.433 -0.0771 -0.2330 -0.1090
44279W        W53079  12.183   7.852   0.052  0.0210 -0.2242  0.1868
44280W        W53080   3.723   6.263   3.184  0.0022  0.2172 -0.2395
44281W        W53081   1.220   6.133  10.579 -0.0363 -0.1012 -0.0732
44282W        W53082  24.049   6.759   9.498  0.1070  0.4000 -0.1564
44283W        W53083   9.644   1.664  19.969 -0.1174 -0.0513 -0.0215
44284W        W53084  20.564   5.051   4.604  0.1149 -0.0027 -0.3442
44285W        W53085   8.321   6.381  31.469 -0.1606  0.0954  0.2627
44286W        W53086  14.161   5.529  24.778 -0.1207 -0.0679 -0.4237
44287W        W53087  10.732   0.553  32.158  0.1091  0.3118 -0.4314
44288W        W53088  15.239   4.996  28.458  0.1565 -0.0923  0.0681
44289W        W53089   8.173   1.437   6.447 -0.0922  0.2678 -0.0822
44290W        W53090  15.041   2.648   1.400  0.1232  0.1033  0.3996
44291W        W53091   0.741   6.269   1.985 -0.3186 -0.0866  0.1287
44292W        W53092  17.866   4.173   0.821 -0.0793 -0.1671  0.0635
44293W        W53093   4.653   5.567  22.597 -0.0988 -0.5273  0.5147
44294W        W53094   7.628   7.159  15.017  0.2278  0.0880  0.0112
44295W        W53095   7.977   3.274   6.991 -0.0221 -0.0786 -0.1087
44296W        W53096  14.876   1.962  21.357 -0.0282  0.1570  0.2525
44297W        W53097   5.960   6.811  22.183  0.0365  0.1087 -0.0665
44298W        W53098  17.807   1.046  23.163  0.0582 -0.0773 -0.1550
44299W        W53099   5.235   4.475   8.139 -0.0596 -0.3332 -0.0300
44300W        W53100  16.615   2.300  10.627 -0.1217  0.0367  0.0689
44301W        W53101   8.998   7.359   4.598 -0.1289  0.1299 -0.0643
44302W        W53102   2.159   1.646  30.454  0.0456 -0.0149 -0.0895
44303W        W53103   9.212   0.938  16.179 -0.0833 -0.1625  0.2290
44304W        W53104  16.145   5.944  25.897 -0.1345 -0.3879  0.1919
44305W        W53105  24.272   7.575  32.057  0.0404  0.1220  0.1691
44306W        W53106   5.225   1.361   2.107 -0.1273  0.1329 -0.0732
44307W        W53107  13.093   4.621   1.283 -0.0963  0.1412 -0.1361
44308W        W53108  15.078   0.912   6.912  0.4886  0.0708 -0.0071
44309W        W53109  11.776   0.277   3.304  0.1104 -0.3852  0.2365
44310W        W53110  20.725   3.754  24.007 -0.0460  0.2459  0.1788
44311W        W53111  19.002   6.674  23.935  0.1119 -0.0635 -0.2113
44312W        W53112   0.016   1.948  23.387 -0.1820 -0.1773  0.0983
44313W        W53113   4.100   2.914   0.226  0.0515 -0.2668 -0.1556
44314W        W53114  18.339   5.300  22.567 -0.0822 -0.1605  0.0973
44315W        W53115   6.026   3.554   2.898  0.0374 -0.1590 -0.1372
44316W        W53116  25.046   6.049  28.419 -0.1386  0.1078 -0.2891
44317W        W53117   4.364   3.086  21.547  0.0546  0.1000 -0.1394
44318W        W53118  21.289   5.462  31.474 -0.1258  0.1377  0.0816
44319W        W53119  10.870   3.299  21.825  0.1745 -0.0829 -0.0443
44320W        W53120   7.788   4.425  28.025  0.1927 -0.0657 -0.4533
44321W        W53121   6.922   2.618   4.974  0.2860  0.2514 -0.0575
44322W        W53122   5.787   4.932   6.879  0.1846 -0.1708 -0.2215
44323W        W53123  10.184   5.533   1.031  0.2125 -0.1210 -0.0360
44324W        W53124  12.467   3.098  10.699  0.1418 -0.2822  0.0662
44325W        W53125   0.329   1.328  11.828  0.1543  0.0405  0.0877
44326W        W53126  24.628   5.492  12.835  0.0518  0.0872 -0.1314
44327W        W53127  19.204   0.697   2.838 -0.0457  0.1153  0.2238
44328W        W53128   7.940   6.733   6.954 -0.3194 -0.0795 -0.0221
44329W        W53129   9.115   6.961  20.389 -0.1528 -0.0303 -0.1788
44330W        W53130  10.368   1.143   5.747  0.2175  0.0772  0.0680
44331W        W53131  18.414   7.823  14.169  0.2239 -0.0852 -0.0226
44332W        W53132  16.015   1.234  29.441  0.0746  0.0639  0.1383
44333W        W53133   3.295   1.380   9.052  0.0279 -0.1818 -0.0579
44334W        W53134   7.234   7.163  30.213  0.0099  0.0575 -0.1117
44335W        W53135  14.780   5.007  13.412  0.1364 -0.2272  0.1700
44336W        W53136   7.500   3.458   1.515  0.2833  0.0206 -0.3068
44337W        W53137  17.831   0.589  23.403  0.0196  0.3068 -0.2484
44338W        W53138   4.778   4.189  19.081  0.0088  0.3125 -0.1098
44339W        W53139   3.756   2.032   7.994 -0.1231 -0.0416  0.0201
44340W        W53140  22.881   4.335   5.760 -0.0579  0.2159 -0.2171
44341W        W53141  19.380   4.181   8.932 -0.2392  0.2066 -0.0366
44342W        W53142  21.236   5.577  27.562 -0.0501  0.0125  0.1019
44343W        W53143  23.040   2.445   6.808  0.1734 -0.0158  0.1448
44344W        W53144   2.635   5.420   0.457 -0.2070  0.0475 -0.0378
44345W        W53145  10.116   7.614   5.558 -0.1175  0.2186 -0.0625
44346W        W53146   3.855   4.500   0.299 -0.0707 -0.1267  0.0197
44347W        W53147  13.212   5.315  28.451 -0.1707  0.0067  0.2096
44348W        W53148  12.887   2.346   0.080  0.3761 -0.2929  0.0466
44349W        W53149  19.663   2.964  23.572  0.1485  0.0962 -0.0028
44350W        W53150  14.884   4.693  12.874 -0.1169  0.3928 -0.0314
44351W        W53151  24.884   3.173  14.148  0.3466 -0.0171  0.0223
44352W        W53152   9.938   5.249  18.030  0.2704 -0.1019 -0.1892
44353W        W53153  10.895   5.559   2.295  0.2870  0.0209  0.0410
44354W        W53154  22.034   0.500   0.931 -0.1797  0.0911  0.1048
44355W        W53155  19.895   2.422  10.862 -0.1273 -0.0961  0.1877
44356W        W53156  21.959   0.117   5.074 -0.0548 -0.0014  0.0889
44357W        W53157  14.539   7.541   6.492 -0.1052 -0.1706 -0.1719
44358W        W53158  24.163   7.598   4.977 -0.0778 -0.0451 -0.1209
44359W        W53159  19.882   7.255   6.200  0.0614  0.4373  0.0035
44360W        W53160   7.028   5.790  30.028  0.0526 -0.1612  0.1813
44361W        W53161   0.311   3.719   6.996  0.2990  0.0978 -0.0936
44362W        W53162  24.113   3.720   2.614  0.2546  0.1638 -0.2589
44363W        W53163  25.112   5.788   2.997  0.0079 -0.2808  0.1199
44364W        W53164   3.400   3.082  20.373 -0.1822 -0.2389 -0.1622
44365W        W53165  10.963   6.617  24.964  0.2305 -0.1075 -0.1732
44366W        W53166  18.469   5.811  27.498 -0.0512 -0.0576  0.0165
44367W        W53167  14.685   2.081  29.938 -0.3430 -0.3337 -0.2472
44368W        W53168   1.563   3.182  31.691  0.0158  0.0909 -0.3896
44369W        W53169  23.930   6.859   3.547  0.0735 -0.2025  0.0213
44370W        W53170  14.851   0.691  25.976 -0.1671 -0.1857  0.1777
44371W        W53171   7.186   6.227   1.754  0.2272 -0.1094 -0.0180
44372W        W53172   8.619   0.204   4.835 -0.1230 -0.1290  0.2920
44373W        W53173  21.116   7.797  27.086  0.0025  0.0165 -0.1644
44374W        W53174   8.203   0.944  22.346  0.0902  0.2261  0.0737
44375W        W53175  16.454   5.799  22.419  0.1624 -0.0890  0.3619
44376W        W53176  18.717   5.285  25.002 -0.1141  0.2541  0.3139
44377W        W53177   9.484   1.532  29.528 -0.0767  0.0930 -0.0242
44378W        W53178  15.853   4.988  23.658 -0.0376  0.1068  0.3941
44379W        W53179  14.899   6.716  21.432  0.5184  0.1038 -0.0060
44380W        W53180  23.804   6.310  21.261 -0.3230 -0.0801 -0.3496
44381W        W53181   7.261   0.035   2.099 -0.0451  0.2106  0.2145
44382W        W53182  24.391   6.943  30.342  0.1004 -0.1700  0.0590
44383W        W53183   3.377   0.976   2.913  0.0916  0.2188  0.1277
44384W        W53184   0.464   7.342  27.366 -0.2431  0.1050  0.0843
44385W        W53185  21.107   3.020  31.965 -0.2457  0.1792 -0.1427
44386W        W53186  12.912   7.141  20.330 -0.1039 -0.0514 -0.2132
44387W        W53187   2.406   0.130  27.664  0.1758 -0.3711  0.0325
44388W        W53188   5.307   5.405  18.860  0.0976  0.0110 -0.1849
44389W        W53189  15.812   0.995  27.029  0.1301  0.1594  0.1056
44390W        W53190   0.110   2.498  21.585 -0.1592 -0.4632 -0.0094
44391W        W53191  24.381   3.605   1.805  0.2939  0.1219 -0.0559
44392W        W53192  21.902   1.746  14.520 -0.0106  0.0118  0.1541
44393W        W53193   9.304   4.647  26.076  0.1335  0.1336 -0.2046
44394W        W53194  23.291   5.027   8.416 -0.0350 -0.0077  0.1359
44395W        W53195   8.869   4.996  27.356  0.1074 -0.1665  0.2474
44396W        W53196   4.743   3.197   4.134  0.1515  0.0823 -0.1859
44397W        W53197  24.702   6.322  24.379 -0.1706  0.0539  0.1483
44398W        W53198  16.671   1.373  30.344  0.0825 -0.2870  0.1356
44399W        W53199  15.406   6.939  11.594  0.0710  0.0303 -0.1436
44400W        W53200  24.874   4.447  22.510  0.2001 -0.3918 -0.0455
44401W        W53201  23.360   6.238  22.747  0.0003  0.1927  0.0525
44402W        W53202   4.352   5.136  25.238 -0.3603 -0.2293 -0.0199
44403W        W53203   0.434   2.885  31.994 -0.1500  0.0002 -0.0004
44404W        W53204  13.299   6.111  29.630 -0.1133 -0.2971  0.0989
44405W        W53205  19.682   7.503  26.179 -0.0091 -0.1379  0.1104
44406W        W53206  12.863   5.600   6.444 -0.1667  0.3834 -0.1778
44407W        W53207   6.281   6.832  31.275  0.2540 -0.0152  0.1113
44408W        W53208  10.523   6.972  29.302 -0.4535 -0.0901 -0.0531
44409W        W53209   2.796   1.479   8.982  0.0871  0.1547 -0.3037
44410W        W53210  14.280   3.307   2.854 -0.4235  0.4540 -0.5711
44411W        W53211  16.741   1.607  23.989 -0.1590 -0.0169 -0.2361
44412W        W53212  24.025   2.217  21.577  0.2062 -0.0232  0.0133
44413W        W53213   2.067   7.519  31.462 -0.0406 -0.3060  0.2210
44414W        W53214   4.762   7.550  20.359  0.2272  0.1742 -0.2924
44415W        W53215   5.856   4.095   0.959  0.1367 -0.3980 -0.0118
44416W        W53216   1.810   4.611   5.698  0.1805 -0.1991 -0.1675
44417W        W53217  24.439   0.012  11.805  0.1435 -0.2644 -0.0648
44418W        W53218  14.157   5.140  23.738  0.1943 -0.0805  0.0758
44419W        W53219   0.710   6.804   6.705  0.5239  0.1695 -0.0948
44420W        W53220  19.629   5.287   4.634  0.0038 -0.1780  0.1170
44421W        W53221  21.894   5.834   6.161  0.0253 -0.0533 -0.1881
44422W        W53222  23.593   3.983  24.845 -0.2953  0.0152  0.2182
44423W        W53223   3.894   1.420  29.340  0.1404 -0.0084 -0.0181
44424W        W53224  10.215   6.927  18.238  0.1339 -0.0856 -0.1099
44425W        W53225  19.202   7.554  22.128 -0.1141  0.1783  0.2862
44426W        W53226  12.000   0.540   9.147 -0.0267 -0.2204 -0.0598
44427W        W53227  16.819   3.567  30.741  0.2216  0.0066  0.0222
44428W        W53228   3.645   1.594   3.473 -0.1467 -0.0932 -0.0568
44429W        W53229  23.573   4.243   6.318 -0.0584 -0.2763 -0.0363
44430W        W53230  19.015   0.461  23.498 -0.0026  0.1373  0.0191
44431W        W53231  23.049   0.566  13.097 -0.1490 -0.0288  0.1848
44432W        W53232   7.480   6.469   9.807 -0.0864 -0.0408 -0.0276
44433W        W53233  22.669   3.884  11.033  0.0360 -0.0674 -0.1037
44434W        W53234  12.330   5.717   0.904  0.3187 -0.2735 -0.1278
44435W        W53235   2.780   6.844   5.659 -0.0666  0.0455  0.0896
44436W        W53236   4.563   1.516  26.235  0.0913  0.0772 -0.0881
44437W        W53237  21.584   4.847   2.363 -0.1076 -0.2577 -0.2888
44438W        W53238  15.266   2.067   4.251 -0.0156 -0.1830 -0.0470
44439W        W53239  16.974   5.037  30.305 -0.0174  0.3484 -0.2632
44440W        W53240  14.628   7.581  13.321  0.1520  0.0936 -0.1203
44441W        W53241   0.346   4.652   4.911 -0.3269 -0.1148 -0.0456
44442W        W53242  12.473   7.694   9.107  0.1802 -0.3478 -0.2531
44443W        W53243  21.079   2.624  22.934  0.1129  0.0348  0.2960
44444W        W53244  10.854   5.041  24.121  0.1217  0.2720 -0.2850
44445W        W53245   0.654   5.587   0.476  0.1525 -0.1568 -0.0807
44446W        W53246  19.586   4.719   8.944 -0.0241 -0.3194 -0.0676
44447W        W53247  20.455   2.437  25.775 -0.0194 -0.0842 -0.2323
44448W        W53248  14.535   6.639   9.207 -0.0129  0.2814 -0.1718
44449W        W53249  21.007   1.251  24.284  0.0335 -0.1344  0.0925
44450W        W53250  18.269   7.835  24.590 -0.0269 -0.0322  0.0579
44451W        W53251  16.324   6.590   0.531  0.1592 -0.1548 -0.2313
44452W        W53252   9.630   6.999   8.015  0.1245 -0.3765 -0.0046
44453W        W53253  19.703   6.948  22.689 -0.1220 -0.0908 -0.0940
44454W        W53254   7.228   6.062  21.472  0.1161 -0.0671 -0.1682
44455W        W53255   7.954   5.048  30.966  0.1107  0.0050 -0.2499
44456W        W53256  19.561   1.733  26.950 -0.0911 -0.1349 -0.0264
44457W        W53257  24.218   2.887  31.823  0.1763  0.0455 -0.3791
44458W        W53258  12.259   0.272  31.015 -0.0734  0.1664  0.1099
44459W        W53259   5.032   6.331   2.529  0.0610 -0.0031  0.0405
44460W        W53260  23.872   2.829  11.393 -0.1705 -0.1150 -0.1018
44461W        W53261   9.176   3.764  16.532 -0.0739 -0.0663 -0.1069
44462W        W53262  23.409   5.227  14.929 -0.1113 -0.0441 -0.2404
44463W        W53263  24.506   6.404   7.208  0.0694 -0.1129  0.3999
44464W        W53264   4.917   1.844   1.326  0.4732 -0.0394 -0.1309
44465W        W53265  17.287   1.300  31.068  0.0583  0.1598  0.2380
44466W        W53266   6.429   2.605  25.559  0.0459  0.1388  0.1470
44467W        W53267  14.715   4.018   1.814 -0.1057 -0.2128  0.0927
44468W        W53268  19.666   5.632  27.789 -0.0961  0.2444 -0.4212
44469W        W53269  20.481   3.499  15.202 -0.0731  0.0602 -0.0692
44470W        W53270  23.362   6.290   9.985  0.2415  0.1230  0.4950
44471W        W53271  16.800   2.840   8.292  0.0794 -0.1610 -0.0116
44472W        W53272  20.061   2.047  25.053 -0.0922  0.0656 -0.2346
44473W        W53273  23.120   7.635  23.306  0.1169  0.0534  0.3900
44474W        W53274   3.235   7.353  17.986  0.0250  0.1103 -0.4542
44475W        W53275  24.325   3.976  10.012  0.1408 -0.0691 -0.2844
44476W        W53276   3.068   5.263   3.830 -0.1753 -0.3017 -0.0981
44477W        W53277  20.224   2.730  15.099  0.0626 -0.0221  0.1697
44478W        W53278  19.542   5.963  13.734 -0.3319  0.1459  0.1870
44479W        W53279   9.401   0.519  21.058 -0.1896 -0.0651  0.0379
44480W        W53280   2.275   5.458  19.051  0.0019 -0.0014  0.3120
44481W        W53281   6.272   3.875   5.465 -0.1657 -0.0916  0.0738
44482W        W53282  16.928   5.620  24.334 -0.1063 -0.1649  0.0602
44483W        W53283  20.370   4.292   8.306 -0.0157 -0.0371 -0.1647
44484W        W53284   2.347   2.078  29.390  0.0791  0.0519 -0.2302
44485W        W53285  16.071   3.156  28.667  0.1291  0.0266  0.1080
44486W        W53286   2.452   1.240   9.758 -0.0163 -0.0820 -0.1037
44487W        W53287  23.348   4.870  10.229  0.1689 -0.0705 -0.2000
44488W        W53288   5.439   0.779  23.834  0.1072 -0.0003  0.0179
44489W        W53289   0.696   3.332  26.768 -0.0647  0.1504  0.1436
44490W        W53290  19.649   5.160   0.953 -0.0233  0.1839  0.1081
44491W        W53291  14.384   1.883  26.216  0.0403 -0.1779  0.1373
44492W        W53292  18.055   1.728   1.336 -0.4403  0.2948 -0.3189
44493W        W53293   6.323   6.048  22.962 -0.0854  0.0571 -0.0155
44494W        W53294  20.813   4.093  31.592 -0.1397  0.2188  0.1399
44495W        W53295   5.895   0.519  21.036 -0.0829 -0.3238 -0.2016
44496W        W53296   0.553   2.839   6.809 -0.2106 -0.0230  0.1744
44497W        W53297  18.006   6.597  30.862 -0.1915 -0.2378  0.1643
44498W        W53298   0.109   3.822   5.717  0.0491 -0.1108 -0.4418
44499W        W53299  13.712   2.553  22.901  0.1740  0.1599 -0.1439
44500W        W53300  22.323   0.130  23.584  0.2306 -0.1557 -0.1202
44501W        W53301   8.829   4.146  19.490 -0.0351  0.1633 -0.0986
44502W        W53302   9.184   2.513  28.428  0.1760  0.0518  0.3843
44503W        W53303  10.407   5.855  24.814  0.1517 -0.0761 -0.0815
44504W        W53304  21.286   3.251  10.127 -0.1768 -0.0661 -0.1958
44505W        W53305  21.510   4.948  14.963  0.1573 -0.3658  0.2406
44506W        W53306  18.951   6.859  27.691  0.0868  0.0831  0.1441
44507W        W53307   3.147   2.315  24.511 -0.1610 -0.0910  0.0211
44508W        W53308  11.406   0.577  26.908 -0.0404  0.0939  0.1919
44509W        W53309   8.884   2.365  30.792  0.0409  0.3151 -0.0556
44510W        W53310   8.564   0.345  23.244  0.0450  0.0331 -0.1820
44511W        W53311   2.905   2.507  19.194  0.0316  0.0557 -0.1592
44512W        W53312   6.294   5.083   3.273 -0.0791 -0.0166 -0.0212
44513W        W53313  19.998   5.828  17.731  0.0804  0.0648 -0.1076
44514W        W53314  21.937   6.542   1.141 -0.1364  0.2108 -0.3418
44515W        W53315   2.874   1.075  17.594 -0.0501 -0.2013 -0.0077
44516W        W53316   3.055   5.063  20.546  0.1621 -0.0323  0.0123
44517W        W53317  18.284   3.429  23.144  0.1688  0.2335 -0.5407
44518W        W53318  23.673   6.958  26.121 -0.1782 -0.1078  0.2395
44519W        W53319  13.377   3.878  22.590 -0.1760 -0.2731 -0.2252
44520W        W53320  15.207   5.903   4.860 -0.0775 -0.2421  0.4688
44521W        W53321  22.789   6.177   3.192  0.0911 -0.0592 -0.1930
44522W        W53322  10.131   6.005  26.540  0.0811  0.1666 -0.0542
44523W        W53323  20.450   0.478  11.912  0.1068 -0.0847 -0.1657
44524W        W53324  22.840   4.891  10.937 -0.0713  0.1950  0.0987
44525W        W53325   2.916   7.048  31.770  0.0560 -0.1245  0.1842
44526W        W53326  20.123   3.729  23.590  0.1621 -0.0002 -0.1291
44527W        W53327  19.752   4.021  11.574 -0.3381  0.1610 -0.2228
44528W        W53328   6.152   6.486  30.144 -0.3269  0.1910 -0.1116
44529W        W53329   2.202   6.799  22.800  0.0864 -0.0045 -0.1276
44530W        W53330   7.633   5.520  23.602 -0.0051  0.0271  0.1229
44531W        W53331  10.440   6.144  19.537 -0.1066  0.0109  0.2477
44532W        W53332  15.000   1.536  27.242 -0.2755 -0.2662  0.0029
44533W        W53333  20.945   1.807  24.238  0.0222  0.2696  0.3585
44534W        W53334   9.610   1.439  23.137  0.0124  0.1273  0.1904
44535W        W53335   4.216   6.596   4.282 -0.0509  0.0394  0.2650
44536W        W53336  11.329   2.020   6.126  0.2824 -0.0104 -0.0385
44537W        W53337  22.510   3.469  22.101 -0.4360 -0.1836 -0.0839
44538W        W53338  23.430   4.922  25.980 -0.0098  0.2069  0.0415
44539W        W53339   0.209   2.100  10.992  0.0501  0.1568  0.1052
44540W        W53340   2.514   6.641   9.785  0.0096 -0.2885  0.1274
44541W        W53341  21.651   3.386  13.805 -0.2509  0.0827  0.4460
44542W        W53342  22.333   2.892  12.597 -0.0383 -0.1452 -0.3388
44543W        W53343  18.382   4.975  15.924  0.3279 -0.1150 -0.2501
44544W        W53344   8.627   0.491  29.663  0.3236 -0.0945 -0.0259
44545W        W53345  10.364   2.536  26.125  0.0365  0.1978  0.0731
44546W        W53346  22.163   3.184  23.276 -0.1301  0.0515 -0.2408
44547W        W53347  11.226   4.864  24.386 -0.1188 -0.3978  0.0201
44548W        W53348  23.275   6.380  22.063  0.2396  0.1234 -0.0803
44549W        W53349  14.713   0.750  11.076  0.4438 -0.3749 -0.0568
44550W        W53350   6.618   0.814  18.504  0.3378 -0.0264  0.2463
44551W        W53351  18.195   1.863   6.166 -0.2735  0.0738 -0.0840
44552W        W53352   5.759   5.961  16.760 -0.2971 -0.0698  0.1409
44553W        W53353   9.044   4.265   6.135  0.1195 -0.0761 -0.2060
44554W        W53354   9.733   0.206   6.583  0.1831  0.2052  0.0287
44555W        W53355  22.638   2.421   9.276 -0.0814 -0.0112 -0.0820
44556W        W53356  24.632   7.113  22.055  0.2470  0.0063 -0.2169
44557W        W53357  23.456   0.584  15.914  0.0152  0.0053 -0.0684
44558W        W53358  20.448   0.249   3.535  0.0318 -0.0414 -0.0021
44559W        W53359  18.058   5.324  13.937 -0.0367  0.2899  0.0666
44560W        W53360  19.808   3.624   3.952  0.2254  0.1030  0.0763
44561W        W53361   7.153   4.717  30.187 -0.0995 -0.0296  0.0444
44562W        W53362   6.271   5.104  28.097 -0.4854 -0.2853  0.0969
44563W        W53363   0.132   1.591   6.681  0.0955  0.2060  0.0733
44564W        W53364  12.566   4.269   6.427 -0.1081 -0.1212  0.3775
44565W        W53365  22.999   4.883  30.059 -0.1404  0.0200 -0.1990
44566W        W53366  25.022   2.296  27.134  0.2547  0.1145 -0.3532
44567W        W53367  10.490   1.722  31.654  0.0855  0.0455  0.0608
44568W        W53368   6.080   1.276   7.159 -0.1970  0.1308  0.1548
44569W        W53369   2.756   7.522  21.015  0.1444 -0.1485  0.1184
44570W        W53370  19.322   3.148   5.500 -0.2303 -0.2708  0.1911
44571W        W53371  19.038   7.500   6.210  0.1866 -0.1248  0.0399
44572W        W53372   4.260   1.331  17.231  0.0136 -0.0751 -0.2570
44573W        W53373   8.790   7.390  28.905  0.0388 -0.0907 -0.0982
44574W        W53374  10.684   1.042  24.688  0.1483  0.1286  0.1758
44575W        W53375   9.324   0.123   9.276 -0.1678  0.0701  0.1408
44576W        W53376   5.865   4.046  10.056  0.0300 -0.2752  0.4273
44577W        W53377   9.008   4.358  27.104  0.0664  0.0693 -0.2614
44578W        W53378   9.592   6.546   5.079  0.1912  0.0422 -0.3325
44579W        W53379   0.435   4.981  20.294 -0.0237 -0.0083  0.2153
44580W        W53380   8.817   4.120  16.448 -0.1362 -0.0553  0.1924
44581W        W53381   8.817   3.875   9.037 -0.1370 -0.0369 -0.1342
44582W        W53382  24.281   0.276   2.316  0.1734  0.4362  0.1498
44583W        W53383  11.055   2.278   1.768  0.1891  0.0917  0.2216
44584W        W53384  12.133   0.799  19.316 -0.2340  0.2866 -0.2055
44585W        W53385  12.761   7.242   6.941  0.0585  0.3620 -0.3119
44586W        W53386  12.235   0.569  30.106 -0.4315  0.2507  0.0305
44587W        W53387  13.099   2.071   9.585 -0.0273 -0.1544  0.0290
44588W        W53388  21.984   4.862  14.091  0.2196 -0.2460 -0.0688
44589W        W53389  15.826   5.446  32.541 -0.2162 -0.1398 -0.0166
44590W        W53390  20.495   0.908  30.474  0.1260  0.1633 -0.1938
44591W        W53391   1.005   5.878  10.976  0.3315 -0.0039 -0.0843
44592W        W53392  24.250   5.331   6.199 -0.0530  0.2514  0.0086
44593W        W53393   3.211   2.607  30.613  0.2077 -0.2100  0.1964
44594W        W53394   2.985   2.514   9.513 -0.0102  0.0478 -0.0278
44595W        W53395  22.159   4.494   3.216  0.2294  0.1092  0.0294
44596W        W53396   9.689   5.279   9.381 -0.2284  0.0500  0.2191
44597W        W53397  10.299   6.377   1.264  0.1013  0.0612  0.0247
44598W        W53398  13.555   3.459  31.705  0.1414  0.0824  0.1107
44599W        W53399  11.098   5.589  28.913  0.2286 -0.2032 -0.0008
44600W        W53400  23.168   3.287  27.791 -0.0073 -0.1056  0.1977
44601W        W53401  12.548   7.308  10.103 -0.2723  0.0365 -0.0217
44602W        W53402   4.247   0.508  26.021  0.1280 -0.2344  0.0870
44603W        W53403  21.568   2.621  23.086 -0.0332 -0.0055 -0.2184
44604W        W53404  15.865   5.606   7.440 -0.0127  0.1102  0.0814
44605W        W53405  19.168   3.058  17.534 -0.0271  0.2044 -0.1140
44606W        W53406   9.888   6.309  27.912 -0.1503  0.1341  0.1898
44607W        W53407   5.661   2.210   8.597  0.1635  0.0089 -0.0640
44608W        W53408  18.676   3.880  18.158 -0.1328 -0.1145 -0.0762
44609W        W53409  12.639   7.041  25.145 -0.2036 -0.0863  0.1325
44610W        W53410  17.110   6.760   6.988 -0.2385  0.1564 -0.3883
44611W        W53411  19.859   1.756   8.707 -0.1055 -0.1231  0.3332
44612W        W53412  22.881   0.101  22.098  0.0644  0.0688 -0.1267
44613W        W53413  11.353   5.107  30.003 -0.0838  0.1423 -0.0718
44614W        W53414   3.154   7.492   6.874  0.1245 -0.0308 -0.0539
44615W        W53415   7.049   3.231  32.197 -0.1230 -0.0173 -0.0587
44616W        W53416   0.729   5.153   7.863 -0.2038  0.4571 -0.1062
44617W        W53417  11.577   0.416  31.800 -0.0974 -0.1137  0.1210
44618W        W53418   1.119   2.155  29.233  0.0837  0.2952 -0.3169
44619W        W53419   6.500   1.719  17.723 -0.3190  0.1245 -0.1291
44620W        W53420  21.451   3.651   4.656 -0.2009  0.1511  0.0702
44621W        W53421   7.636   1.052  22.234 -0.1007 -0.1790 -0.0361
44622W        W53422  12.976   0.846  27.352 -0.2584  0.2492  0.0151
44623W        W53423  17.849   7.846  14.264  0.0304  0.3287  0.0418
44624W        W53424  12.444   1.972  21.549 -0.0273  0.2439 -0.0281
44625W        W53425  24.883   2.260   0.056  0.0437  0.2410  0.3422
44626W        W53426   0.141   4.243   4.657  0.0306  0.2746  0.3421
44627W        W53427  15.795   7.305   3.324 -0.0592  0.0481 -0.0590
44628W        W53428   2.786   6.065  22.148 -0.0689  0.0691 -0.1355
44629W        W53429   1.539   4.360  24.102 -0.2005 -0.1659  0.0661
44630W        W53430   6.448   4.214  24.833  0.1426  0.0385  0.0344
44631W        W53431  24.399   4.639  14.493 -0.0604 -0.0205  0.2061
44632W        W53432  16.119   4.967  16.486  0.0727  0.1360  0.0428
44633W        W53433   4.263   0.264  25.071 -0.0156  0.1267  0.0668
44634W        W53434  21.573   1.949  13.606 -0.1302 -0.2927 -0.0219
44635W        W53435   4.161   1.369  22.925 -0.0878  0.4382  0.1624
44636W        W53436  20.180   5.314  27.139  0.3180 -0.2951 -0.0545
44637W        W53437  10.583   1.786   0.602 -0.0385 -0.0070 -0.1581
44638W        W53438   7.052   6.340  31.598  0.2559  0.1029  0.3717
44639W        W53439  16.559   6.487  24.680 -0.0115 -0.1446 -0.3814
44640W        W53440  20.153   3.500  11.425  0.0629 -0.0157 -0.1833
44641W        W53441  21.314   1.180  26.011  0.0082  0.0758 -0.1702
44642W        W53442  14.859   2.946  28.405 -0.2711  0.0094 -0.2307
44643W        W53443  14.515   1.884  13.666 -0.3280  0.1982 -0.1346
44644W        W53444  21.751   4.941  13.436 -0.2355 -0.2069 -0.1428
44645W        W53445  18.346   7.252  15.331  0.1272 -0.0787 -0.6858
44646W        W53446   9.924   0.021  21.683  0.1163 -0.0456  0.3365
44647W        W53447   5.756   0.787  19.584  0.2523  0.1628  0.0428
44648W        W53448  23.446   4.410   8.518 -0.0692 -0.2278 -0.0703
44649W        W53449  18.055   7.438  14.114 -0.1445  0.1286 -0.0915
44650W        W53450  15.408   4.771   4.266  0.0569  0.0546 -0.1046
44651W        W53451  15.920   2.934  31.546  0.1055 -0.0572 -0.2694
44652W        W53452   1.192   1.843   5.424 -0.0317 -0.0657  0.1884
44653W        W53453  17.572   4.299   0.408  0.3208 -0.0633 -0.3405
44654W        W53454  24.089   7.707  21.457  0.3658 -0.1543  0.0699
44655W        W53455   0.401   0.617  10.108 -0.0565 -0.0254 -0.0337
44656W        W53456   0.419   4.495  20.594  0.2118 -0.1280 -0.1438
44657W        W53457  19.956   6.526  22.550 -0.1053  0.1062  0.0787
44658W        W53458   2.878   0.571  18.750  0.2714  0.0661  0.1811
44659W        W53459  25.137   6.265  26.671  0.0285 -0.0937  0.3559
44660W        W53460   0.232   4.551   6.396  0.0263 -0.0616 -0.0202
44661W        W53461  13.183   6.655  21.722  0.2108  0.0760 -0.4126
44662W        W53462  21.374   3.060  30.067  0.1502 -0.0275 -0.0904
44663W        W53463   4.781   4.326  30.526 -0.1891 -0.3500 -0.3153
44664W        W53464   4.405   6.628   3.729 -0.1381  0.0396 -0.1566
44665W        W53465   0.972   4.366   8.560  0.1739 -0.1523  0.2238
44666W        W53466  14.943   7.376  15.899  0.0091 -0.1701 -0.2512
44667W        W53467   9.790   3.935   4.787 -0.4118  0.1136 -0.1312
44668W        W53468  14.987   0.360  29.612  0.3044 -0.1050 -0.4873
44669W        W53469   5.450   4.366  25.556 -0.1383 -0.0187  0.0649
44670W        W53470  18.738   1.984  27.249  0.3178 -0.0052  0.2257
44671W        W53471  19.470   2.136  23.563 -0.2231 -0.0609  0.0891
44672W        W53472  20.147   1.562  30.801 -0.0076  0.0566  0.0153
44673W        W53473  14.960   7.435   6.263  0.0283  0.0417  0.3738
44674W        W53474   1.295   7.607  20.880  0.0111  0.0322  0.0392
44675W        W53475  20.748   7.574  31.097 -0.1020  0.0518 -0.0977
44676W        W53476   5.932   2.743   1.730 -0.3074  0.1039 -0.0826
44677W        W53477  23.170   3.640  26.420 -0.2883  0.2187 -0.1846
44678W        W53478   2.544   5.076  32.344  0.2808 -0.3222 -0.0816
44679W        W53479   0.586   5.616  26.464 -0.0919 -0.0400 -0.0441
44680W        W53480   7.104   1.556  16.033  0.1097  0.0093  0.2105
44681W        W53481   5.950   1.022  30.242  0.0781  0.2357 -0.2764
44682W        W53482   7.057   7.809  25.047  0.1742  0.2739  0.0546
44683W        W53483  18.422   5.534  31.339 -0.0051  0.0797  0.2370
44684W        W53484  14.107   0.978   8.135 -0.1134  0.0644  0.1776
44685W        W53485  10.654   6.247  24.018 -0.4415 -0.1407  0.0362
44686W        W53486   5.550   7.313  22.014  0.1342 -0.0998  0.1407
44687W        W53487  22.676   3.339   1.634 -0.0757  0.2509 -0.0639
44688W        W53488  16.328   2.933   3.482  0.0468 -0.0692  0.0720
44689W        W53489   3.163   1.245  19.374 -0.2650  0.2994  0.0882
44690W        W53490  19.059   2.230  30.054 -0.1488 -0.2519  0.1155
44691W        W53491  23.201   5.844   1.303  0.0493 -0.2485 -0.0297
44692W        W53492  22.805   4.043  29.463  0.1653 -0.0547 -0.1201
44693W        W53493   8.542   3.434  19.036  0.1719 -0.1092  0.0669
44694W        W53494  23.875   7.295  29.780  0.1153 -0.3771 -0.2813
44695W        W53495   1.827   4.842  22.152 -0.0009  0.3245 -0.0664
44696W        W53496   5.723   4.921   9.810 -0.2216 -0.2945  0.1378
44697W        W53497  12.831   7.503  27.282  0.2935  0.2787 -0.2487
44698W        W53498  16.138   3.775  17.015 -0.0828  0.0649 -0.0234
44699W        W53499   3.617   5.165   2.062 -0.0726 -0.1834 -0.1628
44700W        W53500  10.347   5.389  24.083  0.0686  0.1168 -0.1462
44701W        W53501   2.718   5.665  20.859 -0.1020 -0.2616  0.0232
44702W        W53502  23.621   3.906   0.360  0.2073 -0.0982  0.0504
44703W        W53503  18.913   7.686   8.063 -0.0714 -0.2702  0.1821
44704W        W53504  17.810   1.942  29.864  0.1410  0.1780 -0.2523
44705W        W53505  10.926   0.040  27.873 -0.0664  0.0386 -0.3128
44706W        W53506  17.167   4.513   8.786 -0.2203  0.2650  0.1368
44707W        W53507  21.399   0.499   0.960 -0.0515 -0.0744  0.2460
44708W        W53508  20.813   5.837  22.205 -0.1897 -0.2764  0.2664
44709W        W53509  21.215   1.630   6.823  0.0715 -0.0929  0.0143
44710W        W53510   9.700   4.893  18.376 -0.0428  0.1748  0.3157
44711W        W53511   8.986   2.216   0.997  0.0519 -0.1562  0.2793
44712W        W53512  18.862   6.639   3.926 -0.0175 -0.3283  0.0913
44713W        W53513  13.362   0.696  20.292 -0.0789  0.1251 -0.1026
44714W        W53514  15.836   3.740  11.475  0.1705 -0.1065  0.0890
44715W        W53515  18.259   5.827  14.128  0.0126 -0.2537 -0.4175
44716W        W53516   7.941   0.736   7.955  0.0751 -0.3003 -0.0848
44717W        W53517   5.100   4.401  32.140  0.0957 -0.1025  0.3175
44718W        W53518   2.665   3.140  23.331  0.0844 -0.0710 -0.2350
44719W        W53519   3.509   1.672   9.414  0.3119  0.0796  0.1208
44720W        W53520  18.586   4.284   9.507  0.2166 -0.1267 -0.1389
44721W        W53521   3.992   2.400   1.013  0.0773 -0.2274  0.0477
44722W        W53522  19.310   2.856   8.971 -0.2044 -0.0365  0.1305
44723W        W53523  18.525   6.778  28.004 -0.0271 -0.1418 -0.0681
44724W        W53524  12.788   1.287   1.454  0.1436  0.3202  0.0561
44725W        W53525  18.876   4.926  22.079  0.0618 -0.2262  0.0214
44726W        W53526   9.646   2.524   8.527  0.1447 -0.4734  0.1226
44727W        W53527  21.759   4.329   7.391  0.1251  0.2198 -0.3024
44728W        W53528  14.639   2.905   6.493 -0.0828 -0.1970 -0.1012
44729W        W53529   8.737   1.245  28.702  0.0007  0.1555  0.1150
44730W        W53530  17.149   5.190   3.686  0.0022  0.0040  0.0224
44731W        W53531   7.440   2.088   4.474 -0.2435 -0.0775  0.1466
44732W        W53532   9.651   5.599   5.721 -0.0173  0.1404 -0.0536
44733W        W53533  17.020   2.933   0.937 -0.0571  0.2768 -0.0069
44734W        W53534  14.986   5.614  15.370 -0.0092  0.1103  0.1429
44735W        W53535   4.568   1.737  29.850  0.1327 -0.0177 -0.0326
44736W        W53536  25.112   4.905   8.275 -0.2153 -0.4028  0.2736
44737W        W53537  25.026   2.786  11.640 -0.0341 -0.1074 -0.0719
44738W        W53538   7.416   7.631  31.001  0.0102 -0.4053 -0.0212
44739W        W53539   6.510   4.849   2.850  0.1232  0.0191 -0.0056
44740W        W53540  12.603   5.378  19.549  0.0232 -0.0645  0.1974
44741W        W53541  22.002   1.545  13.452  0.0161  0.2317 -0.0446
44742W        W53542   9.616   2.225  21.607  0.1778 -0.1451  0.1024
44743W        W53543   1.206   0.041   5.259  0.0211 -0.1327 -0.1035
44744W        W53544   4.516   7.500  21.286 -0.1173 -0.0405  0.3580
44745W        W53545   2.379   4.231  24.004  0.1322  0.0107 -0.1509
44746W        W53546   1.979   5.760  10.877  0.0174 -0.2197 -0.0232
44747W        W53547   4.211   5.622   5.810  0.0026 -0.3275 -0.0353
44748W        W53548  13.623   4.893   7.495  0.1858 -0.0895  0.0023
44749W        W53549  17.677   6.480  25.583  0.0921 -0.1049 -0.0477
44750W        W53550   3.559   4.877   7.538 -0.2456  0.3284  0.0741
44751W        W53551  18.040   0.216  16.272 -0.1217  0.0158 -0.1830
44752W        W53552   3.448   1.697  17.724  0.1123  0.1780  0.1059
44753W        W53553  17.800   7.440   2.038  0.0548  0.3901  0.0973
44754W        W53554  16.953   0.530  25.087  0.1266  0.0425 -0.1541
44755W        W53555  21.236   6.605  14.017  0.3076 -0.3499  0.2908
44756W        W53556  19.198   6.156  12.522  0.1519  0.1120  0.1382
44757W        W53557  22.019   3.465  25.227 -0.0932 -0.2829  0.0563
44758W        W53558  24.379   6.570   6.092  0.0047 -0.1623  0.3981
44759W        W53559  22.957   0.967   2.064  0.0664 -0.2535  0.1506
44760W        W53560  22.513   2.433  31.950  0.0592  0.0025  0.0540
44761W        W53561  19.275   1.693  22.692 -0.1850  0.0089 -0.0972
44762W        W53562  17.398   1.848  13.166 -0.0198 -0.4354  0.0934
44763W        W53563  13.889   5.626   5.914  0.0279  0.2285  0.1670
44764W        W53564  22.749   3.463  11.882 -0.1863 -0.0254 -0.1346
44765W        W53565  19.025   0.644  27.357  0.1041  0.1093 -0.0925
44766W        W53566   7.109   3.187  27.496 -0.1010  0.1537 -0.3115
44767W        W53567   5.982   0.870  14.235 -0.1322  0.0062 -0.1866
44768W        W53568  15.929   3.587  32.407 -0.0961  0.0297 -0.1644
44769W        W53569  22.619   1.518   6.646  0.0397 -0.2140  0.0344
44770W        W53570   3.233   7.789   3.958 -0.0916  0.3118 -0.2510
44771W        W53571  20.872   4.142  13.837 -0.1209  0.0860 -0.1099
44772W        W53572   0.861   6.791  11.757  0.1694  0.3354 -0.1104
44773W        W53573  15.552   2.044   0.068  0.0360  0.1606  0.0820
44774W        W53574   9.590   0.628  29.571  0.1930 -0.3114 -0.1289
44775W        W53575  14.535   0.259  24.379 -0.2600  0.0733  0.0387
44776W        W53576  24.023   5.927  24.107  0.0205 -0.0266 -0.1512
44777W        W53577  19.299   4.009  26.260 -0.0954 -0.3161 -0.0722
44778W        W53578  17.655   7.515   2.848 -0.3246 -0.1842  0.1701
44779W        W53579   4.263   3.856  28.068 -0.0839 -0.1926 -0.1397
44780W        W53580  12.088   7.789   6.889  0.1185 -0.1015 -0.0378
44781W        W53581  17.676   1.183  30.718  0.2009 -0.2003 -0.2312
44782W        W53582  15.915   2.012  15.184 -0.3329 -0.1949 -0.2612
44783W        W53583  15.990   1.743   1.995 -0.1414 -0.1482 -0.3963
44784W        W53584  21.707   0.508   4.253  0.0590  0.1682 -0.0043
44785W        W53585  17.880   0.181  17.533 -0.3789  0.0105  0.0487
44786W        W53586  18.725   3.009  22.384 -0.1015  0.1755  0.0759
44787W        W53587  12.753   2.026   1.020  0.1531  0.0522 -0.1080
44788W        W53588  19.880   7.533  17.151 -0.1119 -0.0404 -0.3786
44789W        W53589   8.025   0.354   4.314 -0.0715 -0.3900 -0.0554
44790W        W53590  21.504   0.273   7.195 -0.1050  0.1760  0.0280
44791W        W53591  19.161   7.358   9.621  0.4126 -0.0441 -0.1712
44792W        W53592  22.143   3.809  28.398 -0.2810 -0.0745 -0.0923
44793W        W53593  20.489   2.130   6.347 -0.0758 -0.0235 -0.0061
44794W        W53594   2.468   2.457  21.927  0.3132 -0.3679 -0.1529
44795W        W53595  10.465   0.731  31.742  0.0826  0.2264  0.2293
44796W        W53596   3.724   5.264  19.437  0.0807 -0.0460  0.0254
44797W        W53597  12.953   3.958  22.027 -0.1450 -0.1131  0.1570
44798W        W53598  12.179   0.421  19.905  0.0535  0.0001 -0.2279
44799W        W53599   3.821   2.595   1.998  0.4394  0.0600 -0.2690
44800W        W53600   2.409   1.279  30.802 -0.0223  0.0345  0.0519
44801W        W53601  14.769   5.340   1.803  0.0042  0.0955 -0.0434
44802W        W53602  17.393   6.758  13.793  0.2372  0.0007  0.0381
44803W        W53603   8.399   7.270  31.779  0.3807  0.0580 -0.0875
44804W        W53604  19.577   3.679  14.819  0.1288 -0.0217  0.0865
44805W        W53605  11.706   6.260   9.011 -0.1897  0.0700 -0.0613
44806W        W53606   1.269   4.373   4.530  0.2457  0.1592 -0.3096
44807W        W53607   9.288   4.089   9.027 -0.0042 -0.0461 -0.2091
44808W        W53608   0.444   6.593  27.874  0.0856  0.2021 -0.0483
44809W        W53609  21.320   5.723   0.878  0.0795  0.0492 -0.0876
44810W        W53610   9.522   0.118   5.055 -0.2814 -0.4258  0.1703
44811W        W53611   3.332   6.175  20.441  0.1039 -0.1178 -0.0804
44812W        W53612   2.689   7.430   6.986  0.1102  0.0488  0.1450
44813W        W53613   4.907   3.779   1.355  0.2914  0.2066  0.2157
44814W        W53614  21.586   5.406   8.682 -0.1535 -0.0021  0.1713
44815W        W53615  13.127   3.870  20.258  0.2037 -0.0695  0.3725
44816W        W53616  18.217   1.387  28.636  0.3445  0.0773 -0.0273
44817W        W53617   0.138   6.782   0.882  0.1094  0.0117 -0.1835
44818W        W53618   3.207   1.347  23.593 -0.2434 -0.1213  0.1736
44819W        W53619   3.891   1.498   6.823  0.0619  0.0956  0.0623
44820W        W53620  15.242   6.252  22.604 -0.5618  0.0571  0.1503
44821W        W53621  17.824   3.498  17.728 -0.1454 -0.3246 -0.0672
44822W        W53622   4.454   0.454  20.854  0.2679 -0.2930 -0.2158
44823W        W53623   1.180   0.662   0.114  0.1893  0.1611  0.1329
44824W        W53624   4.991   4.366   0.661 -0.2129 -0.2210 -0.0108
44825W        W53625  22.930   0.710  14.730 -0.1530 -0.2383 -0.0626
44826W        W53626  18.285   6.394  24.333 -0.1355  0.0471  0.2895
44827W        W53627  18.634   4.472   2.324 -0.0373  0.0454 -0.1772
44828W        W53628  22.338   6.133  15.424  0.1147  0.0411 -0.1170
44829W        W53629  21.511   0.823   7.283 -0.0185 -0.0662  0.4039
44830W        W53630   1.635   1.516   3.150 -0.1688 -0.2692  0.0151
44831W        W53631   3.885   3.675  19.706  0.3056 -0.3037  0.1630
44832W        W53632   2.170   0.788  19.469 -0.1469  0.0889  0.1946
44833W        W53633   2.680   4.596   2.234  0.0986 -0.1924  0.1885
44834W        W53634  14.260   7.771   7.169 -0.0359  0.0648 -0.1464
44835W        W53635   3.032   5.440  29.196  0.2305  0.0351 -0.1491
44836W        W53636   8.045   4.330   3.353 -0.0026 -0.4670  0.0044
44837W        W53637   4.645   5.204  28.342  0.1931  0.1346 -0.1468
44838W        W53638   6.189   4.902  16.278 -0.0984 -0.0808  0.1516
44839W        W53639   0.064   0.736  24.803 -0.3523 -0.0159  0.3326
44840W        W53640  24.303   4.609  26.881  0.0861  0.2175  0.1703
44841W        W53641  22.607   5.625  22.726  0.2004 -0.1832 -0.1452
44842W        W53642   9.054   3.988  31.566 -0.0553  0.1167 -0.0170
44843W        W53643  16.896   4.880  27.612 -0.2560 -0.1625 -0.0206
44844W        W53644   7.620   2.243  27.020  0.0493 -0.3918  0.0657
44845W        W53645  23.912   5.183  15.006 -0.2629  0.0602 -0.2295
44846W        W53646   6.372   6.813   1.802 -0.2107 -0.2450  0.2114
44847W        W53647  12.364   4.847  30.931  0.0559 -0.1469 -0.1517
44848W        W53648   5.049   7.452   0.450  0.1628  0.2543  0.0449
44849W        W53649   1.883   0.223   6.667 -0.0382 -0.3503 -0.1952
44850W        W53650   5.933   1.624  30.144 -0.1310 -0.1233 -0.0252
44851W        W53651  22.616   3.951   8.257  0.1342  0.1763  0.2620
44852W        W53652  11.550   7.025  25.903  0.1781 -0.0801 -0.2852
44853W        W53653  11.433   1.674   0.270  0.2016 -0.2571  0.0248
44854W        W53654  17.256   2.892  23.701  0.0753  0.2045 -0.1530
44855W        W53655  15.611   7.157   1.882 -0.0560  0.0335 -0.1158
44856W        W53656   4.703   3.277  25.947 -0.1008 -0.0793 -0.1267
44857W        W53657   2.089   3.316  30.067 -0.0642 -0.1353 -0.1263
44858W        W53658  12.410   7.469  11.697  0.3109 -0.0587  0.0998
44859W        W53659  11.458   2.170   0.071 -0.2225 -0.2412 -0.0064
44860W        W53660   9.423   1.095  10.487  0.1300  0.3193  0.1849
44861W        W53661  13.125   7.516   6.725 -0.3005 -0.0654 -0.0095
44862W        W53662  10.956   1.941   3.188  0.2731  0.1661  0.0133
44863W        W53663  12.627   2.713  20.531  0.0457 -0.0147 -0.1663
44864W        W53664  18.514   3.317  15.968 -0.2937 -0.0235 -0.0461
44865W        W53665  19.259   6.771  12.565 -0.0100  0.2295  0.0166
44866W        W53666  15.313   1.084   2.004 -0.2296  0.1072  0.0423
44867W        W53667  13.919   2.005   3.061 -0.0492  0.0341 -0.4305
44868W        W53668   8.129   3.251   4.559 -0.0838  0.0559  0.3605
44869W        W53669  21.097   5.969  21.760 -0.0849  0.2826 -0.0596
44870W        W53670   0.139   1.074  10.022 -0.2189  0.0321 -0.0201
44871W        W53671  12.125   4.369  28.526 -0.1309  0.1227 -0.1995
44872W        W53672  14.884   6.426   6.539  0.0124 -0.1750  0.2228
44873W        W53673   1.156   2.103  30.070 -0.0085  0.2368 -0.0284
44874W        W53674   1.555   3.650  28.110  0.0991  0.0021 -0.1329
44875W        W53675   5.522   2.092  32.087  0.1650 -0.1916 -0.0037
44876W        W53676  22.835   4.990  29.305 -0.0196 -0.0172 -0.1905
44877W        W53677  18.155   0.815  24.082  0.1070  0.0954  0.1850
44878W        W53678  11.539   7.354   7.525  0.4112  0.1903 -0.1342
44879W        W53679   7.889   0.535   6.125 -0.1396  0.0763  0.2325
44880W        W53680   0.358   2.813   8.983 -0.0102  0.2241  0.0330
44881W        W53681   2.875   3.547   1.659  0.2112 -0.1954 -0.0760
44882W        W53682  23.552   1.729  10.082 -0.1899  0.2529 -0.4662
44883W        W53683   7.178   1.625   1.163  0.1286  0.1656  0.0347
44884W        W53684   3.003   7.431  29.525 -0.0996  0.2315  0.2852
44885W        W53685  23.906   7.048  32.412  0.3133  0.0433  0.0534
44886W        W53686   7.300   0.269  30.682 -0.0313 -0.2334  0.1383
44887W        W53687   2.697   7.621  23.297  0.0044 -0.3204 -0.3071
44888W        W53688  23.108   6.006  10.345 -0.3051  0.0847  0.1004
44889W        W53689  24.316   5.201   4.552  0.0124 -0.0813 -0.1837
44890W        W53690   1.448   2.060  25.651  0.2935  0.4625 -0.2230
44891W        W53691  22.048   0.579  22.388  0.4472  0.1087 -0.0232
44892W        W53692  24.809   3.137  20.716 -0.1160 -0.2425  0.0413
44893W        W53693  21.003   5.510  23.050 -0.2021  0.1187 -0.0448
44894W        W53694   4.018   0.077  17.428  0.2831  0.1191  0.2041
44895W        W53695  20.421   6.821   3.995  0.0237  0.1853  0.4154
44896W        W53696  15.630   7.533  31.206 -0.0904  0.0659  0.0734
44897W        W53697   9.551   5.450  24.458 -0.0787 -0.0808 -0.0042
44898W        W53698  11.142   7.514  20.107  0.0710  0.0835  0.3251
44899W        W53699   9.217   0.502  17.165  0.1428  0.1611  0.1551
44900W        W53700   8.840   5.428  22.683  0.0840  0.1230  0.2746
44901W        W53701   0.329   2.907  24.686 -0.2365 -0.1676 -0.1956
44902W        W53702  15.260   1.529   1.252 -0.0823  0.2578 -0.1783
44903W        W53703   7.854   0.676  28.993  0.1449 -0.1053 -0.0658
44904W        W53704   5.582   4.995  18.794 -0.0296 -0.2628  0.0552
44905W        W53705   4.195   4.561   8.365  0.0475 -0.2316  0.0067
44906W        W53706  20.720   1.767  26.477  0.0080 -0.0360  0.1559
44907W        W53707  22.135   1.687   9.437 -0.1650  0.0414  0.0954
44908W        W53708  17.330   5.893  32.438  0.1632 -0.0780 -0.0461
44909W        W53709  18.398   6.260  27.247 -0.0501  0.1576  0.0104
44910W        W53710   1.973   3.578   0.602  0.0596 -0.1550  0.1212
44911W        W53711  19.210   0.084  16.907 -0.0618 -0.4582 -0.1039
44912W        W53712   5.975   2.363  29.149 -0.2043  0.2102 -0.1723
44913W        W53713   7.664   4.159  15.608 -0.2298  0.0810 -0.0004
44914W        W53714  17.941   2.872  31.869  0.0714  0.0312  0.0399
44915W        W53715  14.130   4.735  24.235  0.0651 -0.5471  0.1596
44916W        W53716   8.043   6.380  32.020  0.0142 -0.2142 -0.1087
44917W        W53717  16.504   0.238  21.850 -0.0426 -0.0787  0.3994
44918W        W53718  16.740   1.739  11.987 -0.1184  0.2282 -0.0203
44919W        W53719   3.543   0.491   2.134 -0.0853 -0.0573  0.0666
44920W        W53720   7.180   4.871  28.140 -0.0189 -0.0243  0.1148
44921W        W53721  19.255   5.850  26.998  0.0716 -0.0056  0.0816
44922W        W53722   3.937   6.054   6.651  0.1306 -0.4087 -0.1602
44923W        W53723   7.711   7.268  24.547 -0.0821 -0.2056 -0.0835
44924W        W53724   5.155   2.557   6.998  0.2466  0.0230  0.1995
44925W        W53725   7.553   2.233  32.299 -0.1380 -0.1934 -0.0935
44926W        W53726  12.901   2.835  26.875 -0.4610  0.1733  0.0825
44927W        W53727   1.174   4.546  22.860  0.1126  0.1313 -0.1037
44928W        W53728  14.773   5.467   9.502 -0.0697 -0.0775  0.1304
44929W        W53729   3.067   7.778   0.329  0.0348 -0.2173 -0.1061
44930W        W53730  13.846   3.114  12.636 -0.0365  0.0462 -0.1106
44931W        W53731  20.458   1.707  16.720 -0.1861  0.2968 -0.2305
44932W        W53732   3.121   3.752  17.342  0.0683  0.1724  0.1140
44933W        W53733  19.292   2.700   0.047  0.0677  0.2533 -0.0463
44934W        W53734  11.187   6.280  23.977 -0.0808  0.2797 -0.2228
44935W        W53735  14.267   7.569   1.709 -0.0355 -0.2085 -0.4722
44936W        W53736  21.323   4.702  22.519 -0.0164 -0.4313 -0.0050
44937W        W53737   2.671   7.114   8.787 -0.0056  0.1390  0.1640
44938W        W53738   6.653   2.041   2.802 -0.0964  0.1151 -0.2172
44939W        W53739  17.191   5.230  25.977 -0.0593 -0.1916 -0.1925
44940W        W53740   8.124   2.338  32.252  0.2101  0.0807 -0.2050
44941W        W53741  19.608   2.748   5.817  0.0737 -0.2929 -0.1301
44942W        W53742  18.874   6.238  11.397  0.1671  0.4406  0.0506
44943W        W53743  10.222   2.940  20.931  0.2028 -0.0607 -0.1403
44944W        W53744  23.421   5.998   8.334  0.2547 -0.1156 -0.1105
44945W        W53745   1.416   0.027  17.284  0.4290  0.3656 -0.0095
44946W        W53746  22.027   3.270  27.948 -0.0967  0.1395 -0.0711
44947W        W53747   0.644   7.457  23.867  0.3061  0.1338 -0.2160
44948W        W53748  16.115   3.463  28.204  0.1328  0.0019  0.2048
44949W        W53749   5.899   3.484  29.546 -0.0100 -0.2200 -0.3039
44950W        W53750  12.153   0.190  28.844  0.0187  0.1731  0.2373
44951W        W53751  18.955   7.057  32.043  0.1565 -0.2031  0.2199
44952W        W53752  14.732   2.948  27.048 -0.0191 -0.2050 -0.1956
44953W        W53753  11.242   4.821  30.837  0.1988  0.3900  0.0683
44954W        W53754  19.325   2.769  21.760  0.2726 -0.1337  0.0350
44955W        W53755   4.643   3.453  21.335  0.0063  0.1010  0.3568
44956W        W53756  22.522   1.090  23.520 -0.1868  0.1501 -0.1192
44957W        W53757  13.819   4.838  27.445  0.2263  0.2150  0.0643
44958W        W53758  15.606   0.952  22.203  0.1844  0.0674 -0.1394
44959W        W53759   5.500   1.780  23.371  0.0979 -0.1237 -0.1114
44960W        W53760  15.832   1.475  27.109 -0.1698  0.0594  0.1597
44961W        W53761   9.883   1.009   1.915  0.2011 -0.0549  0.1365
44962W        W53762  20.883   5.030   9.049  0.1594 -0.0836  0.2147
44963W        W53763  17.964   1.312  11.081  0.0555 -0.2427 -0.1533
44964W        W53764   0.118   7.503  29.520 -0.1641 -0.0920  0.0376
44965W        W53765   3.672   2.658  18.104  0.0615 -0.0062 -0.1064
44966W        W53766  16.739   0.251   3.735 -0.1167  0.0677 -0.1376
44967W        W53767   4.981   2.361  16.705  0.2215 -0.1412  0.1453
44968W        W53768  12.095   2.594   7.050 -0.1484 -0.1189 -0.0319
44969W        W53769  23.821   3.704   3.569  0.2348 -0.1957  0.1367
44970W        W53770  22.990   3.309  13.960 -0.1366 -0.3431  0.0166
44971W        W53771   5.018   0.706   2.008  0.1756  0.1655 -0.2587
44972W        W53772  12.018   2.742   6.231 -0.2476 -0.0899  0.2681
44973W        W53773  13.305   0.010  29.384 -0.0117  0.2776  0.2758
44974W        W53774  14.568   0.243  28.233  0.0430 -0.2007  0.2313
44975W        W53775   2.228   2.276  21.486  0.0398  0.1629 -0.1954
44976W        W53776  22.761   5.583  22.213  0.0157  0.0592  0.3820
44977W        W53777   0.537   5.093   5.872 -0.1243 -0.1828  0.0201
44978W        W53778   3.361   6.033  27.196  0.2405 -0.2456  0.2976
44979W        W53779  10.821   3.942  10.184  0.0089  0.1259  0.1589
44980W        W53780   5.629   5.067   6.050  0.0898  0.1126 -0.2681
44981W        W53781   9.099   4.370  28.645 -0.0577 -0.1501 -0.0361
44982W        W53782  19.666   2.020  22.706 -0.2159  0.0712 -0.1280
44983W        W53783  21.787   0.317   0.567 -0.0099  0.2302  0.1575
44984W        W53784  17.419   0.710   0.897 -0.1533 -0.1510 -0.1403
44985W        W53785  10.880   2.151  18.504 -0.2109 -0.1537 -0.1193
44986W        W53786  20.316   4.248  13.336  0.0856 -0.0813  0.3127
44987W        W53787  17.443   3.043   5.197  0.0922 -0.2435 -0.1776
44988W        W53788   0.769   2.472  21.521 -0.0547 -0.0088  0.0666
44989W        W53789   8.594   0.656   6.654 -0.1023  0.0387 -0.0863
44990W        W53790   8.957   0.314  19.147  0.4957  0.2590  0.2239
44991W        W53791  25.102   6.449   0.024  0.0189  0.1866  0.1113
44992W        W53792  10.876   1.657   3.865  0.0276  0.2581 -0.0388
44993W        W53793  24.917   4.687   2.901 -0.0578  0.2224  0.0294
44994W        W53794  13.870   2.697  20.510  0.0819 -0.0148 -0.1756
44995W        W53795   3.267   4.379  32.294 -0.0856 -0.3740 -0.0172
44996W        W53796  15.262   3.245   9.205 -0.0082  0.1196 -0.2529
44997W        W53797   8.489   3.490  26.324 -0.0356  0.2499 -0.1560
44998W        W53798  18.145   1.546   4.423  0.2532 -0.0014 -0.0308
44999W        W53799  11.779   6.226  25.143 -0.0081  0.0293  0.2849
45000W        W53800  22.515   4.634  28.655 -0.0146  0.0741 -0.1350
45001W        W53801   9.131   1.922  30.811  0.0029 -0.2701 -0.2100
45002W        W53802  12.164   1.058   5.437  0.1272  0.2851 -0.0297
45003W        W53803   7.311   3.303   8.629 -0.1836 -0.0137  0.4656
45004W        W53804  23.507   3.151  23.583 -0.2833 -0.1926  0.3448
45005W        W53805  20.743   0.359  25.548 -0.0389  0.1545  0.0148
45006W        W53806   7.512   7.590  18.157  0.0165 -0.0715  0.0304
45007W        W53807  19.345   7.632  29.718  0.2726  0.3306  0.2850
45008W        W53808   0.973   3.506  26.315 -0.1023  0.1625  0.2034
45009W        W53809   7.665   7.490   2.974 -0.4222  0.1881 -0.1659
45010W        W53810  23.156   5.152  11.268  0.0826 -0.0865  0.0301
45011W        W53811   8.488   7.635   1.601  0.0797  0.2517 -0.0641
45012W        W53812  13.510   1.874  22.363 -0.2203  0.2062 -0.1390
45013W        W53813  12.845   3.216   7.241  0.0349  0.3242 -0.1063
45014W        W53814  22.411   7.722   1.295  0.0078  0.0587  0.1852
45015W        W53815   9.011   1.273  15.286 -0.0489  0.2527  0.1837
45016W        W53816   8.828   3.005   1.582 -0.0284  0.0795  0.0558
45017W        W53817  22.936   2.348  26.077 -0.3357 -0.2347 -0.1941
45018W        W53818   1.577   5.594   4.026  0.0959 -0.0912  0.1504
45019W        W53819  24.206   2.377   2.877 -0.0151  0.2330 -0.5121
45020W        W53820  13.632   2.961   6.373 -0.1885 -0.1213 -0.0395
45021W        W53821  18.447   2.382   6.479 -0.1926  0.2625 -0.2303
45022W        W53822   8.797   6.978  31.099  0.2150  0.0131 -0.1551
45023W        W53823   5.702   4.886  21.007  0.2830 -0.1635  0.2469
45024W        W53824   1.475   2.402  20.218  0.2154  0.4174  0.0562
45025W        W53825  17.407   6.303  15.459 -0.0820 -0.1865 -0.1227
45026W        W53826  25.072   7.390   5.719  0.0815 -0.0354  0.1340
45027W        W53827   1.382   4.679  11.693  0.0199  0.1755  0.1688
45028W        W53828  19.444   6.008  22.908 -0.0700 -0.3429 -0.1412
45029W        W53829   5.334   6.246  27.498 -0.0449 -0.1123  0.4057
45030W        W53830  17.566   5.026  16.502  0.3081 -0.0657 -0.1482
45031W        W53831   9.209   6.642  21.662 -0.0525  0.0561  0.0431
45032W        W53832   9.173   1.162  26.633 -0.3653  0.1674  0.3196
45033W        W53833  12.240   2.223  25.234  0.4533 -0.0864 -0.2630
45034W        W53834  19.932   7.318  23.051 -0.1935  0.2221  0.0588
45035W        W53835  23.974   0.506   6.024  0.0976 -0.0899 -0.3127
45036W        W53836  17.438   1.926  10.536  0.0133 -0.0066  0.1324
45037W        W53837   0.798   5.933  26.872 -0.0338 -0.0931 -0.0483
45038W        W53838   6.861   5.410   9.680 -0.0127  0.1706  0.2995
45039W        W53839   6.505   5.596  29.267 -0.2630 -0.1121 -0.1018
45040W        W53840  20.636   7.053  14.100 -0.0202  0.0536 -0.0105
45041W        W53841   7.652   4.418  27.495  0.2356 -0.2031 -0.4253
45042W        W53842   7.452   6.493  22.232  0.1914 -0.0199 -0.2418
45043W        W53843  13.968   5.764  21.140  0.0382 -0.0981  0.0501
45044W        W53844  17.300   1.003  15.937  0.2556  0.0957 -0.0039
45045W        W53845   0.876   6.151  23.394  0.3586  0.1872  0.1033
45046W        W53846  24.082   4.144   0.259  0.2640 -0.1326  0.2194
45047W        W53847  13.743   0.401  12.320  0.0547  0.0006 -0.0543
45048W        W53848  19.034   2.150   4.223  0.0285  0.2643  0.0913
45049W        W53849  16.037   0.307   2.312  0.0425 -0.1511  0.1550
45050W        W53850  23.413   5.937  13.822  0.0288 -0.1947  0.3061
45051W        W53851  10.691   2.162  26.021  0.0562 -0.1351 -0.1373
45052W        W53852  24.347   3.051  30.280  0.0267  0.1702 -0.0475
45053W        W53853   3.006   4.328   5.426  0.3803  0.0536 -0.2498
45054W        W53854   4.499   1.127   6.159  0.0206  0.0590  0.0556
45055W        W53855  15.844   5.070   0.668  0.1371  0.2057  0.1388
45056W        W53856  19.297   3.358   7.188  0.3070  0.0979  0.0434
45057W        W53857  14.378   7.281  29.741  0.1523  0.1174 -0.0157
45058W        W53858  10.406   5.167   9.065 -0.1864 -0.2142 -0.0817
45059W        W53859   2.856   0.140   5.737 -0.1459 -0.1501 -0.1587
45060W        W53860  23.531   5.825  23.855 -0.2837 -0.0996 -0.3194
45061W        W53861   1.298   5.110  12.499 -0.1231  0.0234 -0.0390
45062W        W53862   7.947   7.528   0.730 -0.1701  0.1300  0.0550
45063W        W53863   6.543   0.902  13.524 -0.0770 -0.0293  0.0370
45064W        W53864  23.464   4.118   0.888 -0.1226  0.1712  0.0476
45065W        W53865  21.700   7.439  15.244 -0.0940 -0.1012  0.2270
45066W        W53866   0.082   2.029  31.785  0.1293 -0.1220  0.0675
45067W        W53867   9.804   7.481  19.809  0.0675 -0.0406 -0.0955
45068W        W53868  24.167   3.121   1.762  0.1333  0.0655  0.2154
45069W        W53869   6.475   1.891  27.025  0.0781  0.0576  0.0674
45070W        W53870  18.081   2.323   4.137  0.3037 -0.0367 -0.1547
45071W        W53871  19.943   4.786   1.040  0.0673 -0.0353  0.3109
45072W        W53872  10.963   4.520   4.166  0.0625 -0.0655 -0.0872
45073W        W53873   1.045   6.712  30.188 -0.2816 -0.1729  0.0945
45074W        W53874  16.631   2.254  27.485 -0.1025 -0.2223 -0.0559
45075W        W53875  12.517   5.072   9.661 -0.1527  0.3375  0.0705
45076W        W53876  23.523   6.298  25.888 -0.0643  0.3719 -0.2658
45077W        W53877  13.020   7.813  19.950  0.2838 -0.0874  0.0845
45078W        W53878   6.311   3.250  24.653  0.2681  0.0127  0.1242
45079W        W53879   5.420   2.549  29.668 -0.0963  0.2414  0.0153
45080W        W53880  21.269   4.994  28.185  0.1452 -0.2068 -0.1118
45081W        W53881  19.967   0.992   9.294  0.1127 -0.0636  0.0818
45082W        W53882  19.067   1.742   7.220  0.1780 -0.0189 -0.0302
45083W        W53883  22.708   4.144   4.738  0.0973 -0.1516  0.3832
45084W        W53884  10.526   4.923  24.896  0.1922  0.0788 -0.1320
45085W        W53885  12.391   3.559   0.505 -0.1700  0.0417  0.0935
45086W        W53886   8.997   6.822  25.652 -0.3193 -0.3102  0.0058
45087W        W53887   6.399   4.998  14.691  0.2028  0.1304  0.0975
45088W        W53888  13.750   4.750  11.644 -0.0853  0.1152  0.3372
45089W        W53889  12.022   1.572  26.088  0.2331 -0.2070 -0.0505
45090W        W53890  10.888   2.704   9.892  0.0478  0.2135  0.4107
45091W        W53891  21.305   0.883   3.839 -0.3157  0.0369 -0.0057
45092W        W53892  14.324   2.656  26.882  0.2720  0.0721 -0.0293
45093W        W53893  17.831   5.068   5.984 -0.0694  0.2125  0.2089
45094W        W53894  16.914   7.383   4.665  0.4948  0.1160  0.1260
45095W        W53895   7.825   7.333   5.441  0.0176 -0.2267 -0.0489
45096W        W53896   9.028   2.498   3.151  0.0736  0.1803 -0.1050
45097W        W53897   4.403   6.248  19.409 -0.1944  0.0197  0.1035
45098W        W53898  17.547   4.268  18.316  0.2164 -0.2209  0.0404
45099W        W53899   8.809   1.378  16.104  0.0312 -0.2575  0.0135
45100W        W53900  24.821   0.948   0.608 -0.3256  0.1845  0.1184
45101W        W53901  15.494   6.499   3.621  0.2171  0.1431 -0.0741
45102W        W53902  24.809   7.539  21.801  0.1154  0.0833  0.0644
45103W        W53903  13.048   1.097  11.045 -0.0905  0.2254  0.0077
45104W        W53904  15.925   3.684   0.871 -0.1995 -0.3818  0.1032
45105W        W53905   6.164   7.802  28.885 -0.0128 -0.3188  0.2557
45106W        W53906  11.542   3.822  24.039  0.1143  0.0354  0.0517
45107W        W53907   4.144   2.419   7.867 -0.1555 -0.1700 -0.0151
45108W        W53908  22.370   1.365   4.870  0.0931 -0.0467  0.0566
45109W        W53909  21.787   2.353   6.114  0.2991 -0.1448  0.2092
45110W        W53910  20.765   2.497  23.306 -0.1219 -0.0712 -0.2952
45111W        W53911   7.017   1.760  14.443 -0.0174 -0.0999 -0.0832
45112W        W53912  16.174   7.673  16.406 -0.1732  0.2155 -0.3092
45113W        W53913  24.031   2.735  28.800 -0.1741 -0.0925 -0.0424
45114W        W53914  25.069   3.473   6.798  0.1006 -0.0378  0.1415
45115W        W53915  18.070   2.658  17.587 -0.0270 -0.1668  0.0474
45116W        W53916  21.069   2.735   5.257  0.3730 -0.1738 -0.4323
45117W        W53917  17.432   2.587  11.123 -0.0432 -0.1191  0.1517
45118W        W53918  20.139   5.911  26.539  0.1875 -0.1132 -0.1382
45119W        W53919  22.296   7.782  16.871 -0.3571  0.1341  0.0832
45120W        W53920  15.070   2.967   8.359  0.1291  0.2660 -0.0921
45121W        W53921  15.961   7.440  13.026  0.1155 -0.1907 -0.2118
45122W        W53922  12.672   3.893  19.583  0.3210  0.0370  0.0459
45123W        W53923   0.679   3.509   2.405  0.2612  0.2899 -0.2412
45124W        W53924  10.467   0.095   0.983 -0.0515 -0.0187 -0.1021
45125W        W53925   6.715   2.068   9.034  0.2033 -0.1083  0.1865
45126W        W53926   7.178   5.198   1.007 -0.0181  0.3016  0.0736
45127W        W53927   4.453   0.041   7.406 -0.1234 -0.0604 -0.4593
45128W        W53928  23.858   0.861   1.109  0.1737  0.0549  0.5437
45129W        W53929   6.513   2.194  23.124  0.2154 -0.0220 -0.1417
45130W        W53930  22.971   6.798  29.680 -0.0946 -0.1735  0.2115
45131W        W53931   1.586   1.087  18.878 -0.1864 -0.1207  0.0598
45132W        W53932   4.226   7.422  24.835 -0.1705 -0.0159  0.3665
45133W        W53933  24.911   5.797   4.203 -0.0713  0.1420  0.0162
45134W        W53934  16.812   2.928   7.789  0.0915  0.0626  0.1944
45135W        W53935  17.856   6.525   4.762 -0.0734  0.0631 -0.0597
45136W        W53936  10.602   0.374  28.101  0.1891  0.3649  0.1217
45137W        W53937  13.386   2.932  30.971  0.0888  0.3691 -0.2582
45138W        W53938  23.239   2.604  12.748 -0.2709 -0.3546  0.1968
45139W        W53939  14.587   7.507  28.262 -0.0375 -0.0574 -0.2699
45140W        W53940  11.500   4.969  22.426 -0.2922  0.1310 -0.2214
45141W        W53941  10.956   4.908   5.739  0.1453 -0.0456  0.0712
45142W        W53942  18.045   2.473  32.219 -0.0534  0.0265 -0.1004
45143W        W53943  16.459   1.563  28.679  0.0032 -0.1761  0.3447
45144W        W53944  18.424   1.277   9.717  0.0404 -0.0895 -0.1353
45145W        W53945   3.818   4.332  27.327 -0.1188 -0.3899  0.0644
45146W        W53946  10.036   4.202   1.277  0.1792  0.0347  0.0348
45147W        W53947   3.042   2.204  10.385  0.2345  0.2169 -0.0281
45148W        W53948  17.734   7.493  28.413  0.2018  0.0469  0.0906
45149W        W53949  21.261   4.563   5.149 -0.1816 -0.1220 -0.0085
45150W        W53950  24.274   0.845   9.269 -0.3420 -0.0204  0.2870
45151W        W53951  18.042   1.151   7.281  0.1682 -0.2173  0.0694
45152W        W53952   7.619   3.480  27.938  0.0059  0.0918  0.1314
45153W        W53953   4.459   1.912   0.412  0.1392 -0.3111  0.0249
45154W        W53954   8.487   2.049  18.536  0.0010 -0.0824  0.2559
45155W        W53955  15.519   5.627  27.697 -0.0354 -0.2010 -0.0351
45156W        W53956  23.327   1.448   9.056 -0.0882  0.2047  0.1043
45157W        W53957   2.300   3.788  11.223  0.0138  0.2592  0.0167
45158W        W53958   1.688   3.275  17.588 -0.1846  0.3405 -0.0054
45159W        W53959  15.027   0.475  15.665 -0.3800  0.0063 -0.1585
45160W        W53960  11.389   4.930   8.942  0.0784 -0.1019  0.0678
45161W        W53961  17.624   6.496  13.430 -0.0204  0.1824 -0.2421
45162W        W53962   1.926   5.290  31.858  0.1744  0.2531  0.0969
45163W        W53963   2.281   6.263   7.406 -0.1356 -0.0405 -0.0834
45164W        W53964   4.101   4.887  20.714 -0.4112  0.0656 -0.0838
45165W        W53965  20.857   1.783   0.105 -0.0564 -0.0140 -0.1210
45166W        W53966   7.719   6.687  25.289 -0.0123 -0.0932  0.1126
45167W        W53967   3.709   7.303   2.005 -0.0392  0.0429 -0.1112
45168W        W53968   5.023   1.789  17.466  0.2547  0.0294  0.0746
45169W        W53969   4.143   5.841  10.605 -0.0810 -0.1795 -0.1395
45170W        W53970  12.231   2.851  20.163 -0.0355  0.2341  0.1895
45171W        W53971   8.652   6.890   5.339 -0.0636  0.1480 -0.1007
45172W        W53972  12.801   4.367  10.106  0.1705  0.2722  0.1012
45173W        W53973  17.225   3.601  14.104 -0.1684  0.0609 -0.1953
45174W        W53974  21.024   7.553  16.359 -0.0739  0.2764 -0.2465
45175W        W53975   1.066   5.896   2.017 -0.1674  0.0226 -0.1128
45176W        W53976   7.788   3.280  30.702 -0.0400  0.0975  0.0687
45177W        W53977   5.129   0.769   8.666 -0.0534 -0.0193 -0.1154
45178W        W53978   7.116   7.278  15.862 -0.0570 -0.0584 -0.2369
45179W        W53979  19.438   2.721   2.465  0.1812 -0.0028  0.0714
45180W        W53980  13.616   6.737  20.829 -0.0893 -0.0466 -0.2204
45181W        W53981  14.961   6.497   4.503  0.2133 -0.1721  0.1865
45182W        W53982   6.124   2.799  15.316  0.1007  0.0095  0.0422
45183W        W53983   7.836   4.955   9.085 -0.0164 -0.2112  0.1217
45184W        W53984  10.485   3.083  15.716  0.0371 -0.0527  0.0902
45185W        W53985   5.333   7.085   6.972  0.1096  0.1338  0.0389
45186W        W53986  15.524   2.803   1.447  0.0820 -0.2430  0.0218
45187W        W53987  24.671   6.650  23.464  0.2396  0.2470  0.0558
45188W        W53988   1.415   3.919   1.739  0.0201 -0.1073 -0.0108
45189W        W53989  13.313   6.878  22.159 -0.1354 -0.2364 -0.0088
45190W        W53990  17.693   5.835  26.307 -0.2751 -0.3050 -0.1112
45191W        W53991  13.204   6.892  11.105  0.3065  0.0213 -0.1383
45192W        W53992  24.451   1.808   5.064 -0.2288  0.1292 -0.1150
45193W        W53993  20.326   7.495  13.629 -0.1763  0.5728 -0.1258
45194W        W53994  14.378   3.142   7.768 -0.0232  0.0922  0.0989
45195W        W53995   4.853   0.420  27.832  0.0654 -0.2496 -0.0097
45196W        W53996  14.645   4.440   3.098  0.0525  0.1355  0.0943
45197W        W53997  12.461   6.892   8.639  0.1303 -0.2125  0.0594
45198W        W53998  23.126   6.668  12.074 -0.1039 -0.0574 -0.0358
45199W        W53999  17.894   1.509   6.287 -0.1554  0.0333 -0.1850
45200W        W54000  14.372   4.512   6.595  0.1690 -0.1295 -0.1953
45201W        W54001  19.924   1.857  10.021 -0.1660 -0.0351  0.1738
45202W        W54002   3.746   7.719   2.816 -0.0768 -0.0223  0.1317
45203W        W54003  19.334   4.200   1.051 -0.0123 -0.0347 -0.1499
45204W        W54004  18.112   2.593  29.214  0.1340  0.1082  0.3073
45205W        W54005  12.102   2.177  21.934  0.2338 -0.1084 -0.3058
45206W        W54006  14.084   1.142  25.474  0.0377 -0.2175 -0.0662
45207W        W54007   6.783   3.275  29.747  0.1162 -0.1640 -0.0242
45208W        W54008   8.988   6.950  17.157  0.1527  0.0595 -0.0765
45209W        W54009   6.983   2.795   1.285 -0.0474  0.1244 -0.0394
45210W        W54010  18.628   0.242   8.250 -0.1493 -0.1054  0.2145
45211W        W54011  24.659   7.203   5.546  0.0485  0.1045  0.0640
45212W        W54012  25.109   5.038  14.018 -0.0738  0.1603 -0.1245
45213W        W54013  10.514   1.773   6.171 -0.0643  0.0131  0.0307
45214W        W54014   4.325   4.620  30.506  0.2420 -0.0290 -0.3403
45215W        W54015  12.373   4.648  11.885  0.2033 -0.1725 -0.2589
45216W        W54016  11.713   6.996  21.159 -0.0323  0.2290 -0.1161
45217W        W54017  14.966   6.010  26.850 -0.2003 -0.0821  0.1241
45218W        W54018  10.612   3.114  10.487  0.0995 -0.1446 -0.0409
45219W        W54019   0.057   3.019  22.202  0.2820 -0.2475  0.2722
45220W        W54020  13.523   2.394   7.092 -0.2654 -0.0763  0.1184
45221W        W54021  11.155   3.134  19.421 -0.2048  0.0708  0.2904
45222W        W54022   4.502   0.689   3.598  0.0503  0.0959 -0.2310
45223W        W54023  16.103   4.997   4.742 -0.0071 -0.3822 -0.2289
45224W        W54024  24.735   3.895  27.791 -0.0150  0.0494 -0.3727
45225W        W54025  19.102   3.635  16.003  0.0956  0.2126  0.3001
45226W        W54026  17.232   3.904   3.617 -0.4201  0.0712  0.0396
45227W        W54027  22.717   3.585  15.192 -0.1484  0.3866 -0.1026
45228W        W54028  13.236   4.804  23.269 -0.1833 -0.2479 -0.1507
45229W        W54029  23.766   5.020  29.169 -0.0689  0.1511  0.1793
45230W        W54030   8.519   3.014   1.197 -0.1927 -0.0488 -0.0699
45231W        W54031  12.277   3.190   4.206  0.0905  0.0257 -0.4733
45232W        W54032  14.923   1.996  13.268  0.0349 -0.0292  0.0100
45233W        W54033   4.663   0.974   7.583  0.3147  0.0356 -0.1992
45234W        W54034  12.478   3.606   1.844 -0.3064 -0.0564  0.1969
45235W        W54035   3.859   4.123   4.492 -0.0699  0.0482  0.0489
45236W        W54036   5.665   4.766   2.456  0.1696  0.2542 -0.0198
45237W        W54037  19.454   4.186  22.457 -0.0673 -0.0774  0.1726
45238W        W54038  10.579   5.768  26.608  0.1024 -0.1326  0.0722
45239W        W54039  12.261   3.231   2.499 -0.3148  0.1224  0.4514
45240W        W54040  23.366   0.516   2.766 -0.3867 -0.0003  0.1699
45241W        W54041  24.621   7.383  10.811 -0.0944  0.0239  0.0423
45242W        W54042   3.840   2.737   8.112 -0.1860 -0.2651 -0.2347
45243W        W54043   5.295   5.113  24.172 -0.0132 -0.0624 -0.0526
45244W        W54044  12.467   3.732  11.820 -0.0350 -0.2433 -0.1747
45245W        W54045  23.331   3.845  13.254  0.2095 -0.1202 -0.1657
45246W        W54046  10.873   2.042  30.834 -0.1337 -0.5106 -0.1069
45247W        W54047  13.453   6.713  28.415 -0.0431  0.3098  0.0268
45248W        W54048  24.357   2.603  27.596 -0.2797  0.0134  0.0126
45249W        W54049  24.883   4.402  11.198 -0.1265 -0.1520 -0.2390
45250W        W54050   4.738   6.453  30.237 -0.2145  0.0596 -0.1088
45251W        W54051  10.870   0.209  26.913  0.0210  0.1151  0.1198
45252W        W54052  10.378   3.307  21.607 -0.0494 -0.2909 -0.1647
45253W        W54053  24.512   2.899  21.769  0.1453  0.2913  0.3132
45254W        W54054  24.066   6.197  27.383 -0.1289  0.1461  0.3232
45255W        W54055   3.234   3.903  31.658  0.0387 -0.2283 -0.0899
45256W        W54056  22.459   4.817   2.439 -0.0561  0.2017  0.4751
45257W        W54057  11.292   6.072   4.315 -0.1749 -0.0979 -0.0129
45258W        W54058   3.939   1.109   8.075 -0.0212 -0.0462  0.1251
45259W        W54059  19.694   3.481  30.723  0.0288 -0.0412 -0.0261
45260W        W54060  14.723   1.095   3.940 -0.1340  0.1338 -0.0352
45261W        W54061  13.918   0.262   1.985 -0.0720  0.1773 -0.0645
45262W        W54062  18.583   4.287  29.768  0.0586 -0.2104 -0.0336
45263W        W54063  16.210   6.798  22.130  0.2233  0.0103  0.4229
45264W        W54064   7.349   2.018  27.897 -0.0494 -0.1255  0.0038
45265W        W54065  24.694   7.737   6.987  0.2707  0.1250 -0.1257
45266W        W54066  15.474   1.520  22.946  0.1989 -0.1300  0.0269
45267W        W54067  13.952   5.747  30.871 -0.0148 -0.1395 -0.3242
45268W        W54068  21.984   2.817   4.584  0.2140 -0.1791 -0.0595
45269W        W54069  19.649   3.075   4.935 -0.1048 -0.0710 -0.1427
45270W        W54070  20.509   2.742   6.615  0.0059 -0.2312 -0.2097
45271W        W54071  19.774   5.490  28.729  0.1312 -0.2118  0.3431
45272W        W54072  21.676   1.063  16.689  0.1007 -0.2965  0.0603
45273W        W54073  20.598   2.838  24.582 -0.1588 -0.3490  0.2826
45274W        W54074  18.551   3.303   1.397 -0.2892  0.0532  0.0630
45275W        W54075  22.602   0.194   7.724  0.1621 -0.0073  0.0340
45276W        W54076   9.515   3.274  22.627  0.0106  0.2012  0.1215
45277W        W54077   6.192   6.280   8.282  0.0522  0.0549 -0.0941
45278W        W54078  24.859   6.715  29.663  0.1455  0.1661  0.0532
45279W        W54079   6.959   1.909  26.929  0.0062 -0.0293  0.0188
45280W        W54080  12.912   3.546   8.336  0.0939  0.0568 -0.0399
45281W        W54081  14.821   6.274  27.749 -0.0533  0.0022  0.3489
45282W        W54082  10.455   1.842  22.152 -0.1498 -0.3930  0.0650
45283W        W54083  16.361   0.549  22.594  0.1563 -0.0242  0.1455
45284W        W54084  22.750   4.157  23.728  0.1614  0.0390  0.1068
45285W        W54085  12.180   3.355  30.704 -0.2336  0.2297  0.1033
45286W        W54086   2.991   3.201  17.807  0.0328  0.4552  0.0191
45287W        W54087  13.260   1.383  21.756  0.0723  0.2208 -0.0780
45288W        W54088   0.421   5.535  30.445 -0.0053  0.0337 -0.3110
45289W        W54089   0.238   6.568   2.694  0.2544 -0.2866  0.2743
45290W        W54090  16.374   4.627  12.878 -0.1093  0.1488  0.0260
45291W        W54091  21.731   7.488   1.872  0.1494  0.0900 -0.0239
45292W        W54092  18.824   6.088   0.257 -0.1756  0.1421  0.0219
45293W        W54093  16.144   2.241  25.953 -0.1889  0.1423  0.0572
45294W        W54094  11.460   6.379   7.500  0.2384 -0.2149 -0.1621
45295W        W54095  14.223   0.529  28.454  0.0287 -0.1790  0.0895
45296W        W54096   6.748   5.817   4.765  0.0163 -0.0478 -0.2012
45297W        W54097  12.630   4.516   0.138  0.0401 -0.1732 -0.4429
45298W        W54098   1.763   7.148  20.002  0.0229  0.0908  0.0302
45299W        W54099  21.467   4.042   3.933  0.1780  0.1757  0.0679
45300W        W54100  19.484   7.628  31.873 -0.1799  0.2558 -0.1456
45301W        W54101   3.300   5.584   9.061 -0.1812 -0.1153  0.1569
45302W        W54102  13.635   5.548  21.494 -0.3695 -0.3672 -0.4340
45303W        W54103  12.486   5.290  10.102  0.1439 -0.0722 -0.0047
45304W        W54104  19.761   6.999  15.272  0.1126 -0.0102  0.3080
45305W        W54105  22.600   7.771  31.091  0.2123 -0.2515  0.0118
45306W        W54106  23.811   7.211  12.348 -0.1158 -0.1205 -0.0475
45307W        W54107  13.669   0.051  11.645 -0.0643 -0.1448  0.0573
45308W        W54108  21.807   6.216  15.183 -0.0218  0.1251 -0.0979
45309W        W54109  22.052   2.162  28.631  0.0285 -0.0334 -0.2013
45310W        W54110   6.839   2.145   3.283 -0.2045 -0.1551  0.2008
45311W        W54111  23.883   1.447  23.340 -0.2176  0.0878 -0.0448
45312W        W54112   6.623   5.404   3.561  0.0154 -0.1847 -0.0723
45313W        W54113  16.541   3.195  22.996  0.1631  0.0148 -0.1202
45314W        W54114   8.072   6.392   2.231  0.0707 -0.0371  0.0275
45315W        W54115   9.356   3.179  29.407 -0.1649  0.0097  0.2811
45316W        W54116  13.368   2.323   1.694 -0.1914 -0.0868 -0.0039
45317W        W54117  20.385   3.634   0.352 -0.1241 -0.0869  0.3019
45318W        W54118   4.356   0.414  27.802  0.0079  0.3261 -0.1246
45319W        W54119  21.574   7.713  25.250 -0.3041  0.0157  0.0625
45320W        W54120  16.816   1.189  26.107 -0.0583 -0.0741 -0.1865
45321W        W54121   3.466   7.171  22.984 -0.2563  0.0921  0.3481
45322W        W54122   4.131   2.120   5.574 -0.5472 -0.3532  0.2527
45323W        W54123   7.637   5.882   9.931 -0.0002 -0.1520  0.0701
45324W        W54124   2.089   0.528  22.091  0.2360  0.1247 -0.0963
45325W        W54125   1.944   6.501  25.105  0.1988  0.0161 -0.2441
45326W        W54126  12.494   7.333  25.642  0.0221 -0.0355 -0.2174
45327W        W54127   5.636   0.294  20.417 -0.1372 -0.0118  0.2444
45328W        W54128   7.763   4.518  32.394 -0.2481  0.0862 -0.1440
45329W        W54129  20.231   5.407  11.598 -0.2832  0.2452 -0.0630
45330W        W54130   7.371   6.527  28.073  0.0679  0.0770 -0.1729
45331W        W54131  18.180   3.662  28.444 -0.1008  0.0132  0.2051
45332W        W54132   0.399   6.475  23.802 -0.0739 -0.1796  0.1472
45333W        W54133  24.161   7.491  11.556  0.3029  0.1327  0.2008
45334W        W54134  24.569   3.213  32.036 -0.0403 -0.3336  0.2568
45335W        W54135  11.782   6.708  25.032 -0.0691 -0.2063 -0.2143
45336W        W54136  15.397   0.843  25.304 -0.0049 -0.0564  0.0972
45337W        W54137  24.434   1.899   1.440  0.1841  0.1812  0.2219
45338W        W54138   0.669   0.934  23.527  0.2703  0.0547 -0.0984
45339W        W54139   9.360   4.038  28.313  0.0427  0.3942 -0.0632
45340W        W54140  24.489   1.338   4.964  0.5695  0.2240  0.1699
45341W        W54141  19.091   4.759   4.467 -0.3455 -0.1206 -0.1447
45342W        W54142   7.160   6.667   3.336  0.3720  0.0740  0.0663
45343W        W54143   7.802   4.733   7.352 -0.0656  0.1305  0.1051
45344W        W54144  22.509   7.053  29.464 -0.1617 -0.1412  0.0083
45345W        W54145  11.472   1.963   8.130 -0.2800 -0.1279  0.0426
45346W        W54146  13.005   5.067   9.487  0.1055  0.2338 -0.3572
45347W        W54147   1.543   4.129  30.736 -0.2875  0.0592  0.0457
45348W        W54148  20.053   3.262  17.011  0.1779  0.2205  0.0383
45349W        W54149  17.976   4.471   5.574 -0.0119 -0.2800 -0.2066
45350W        W54150   3.688   2.379  24.219  0.0559 -0.1521 -0.0500
45351W        W54151  16.675   2.919  25.340  0.1432  0.3561 -0.0167
45352W        W54152   1.127   2.530  23.677  0.2784 -0.4447 -0.0183
45353W        W54153  19.350   7.308   4.131 -0.2475 -0.1604  0.0002
45354W        W54154   4.766   2.035   4.074 -0.0256 -0.1890  0.1702
45355W        W54155   7.753   7.761   8.346  0.2549 -0.2447  0.1780
45356W        W54156   0.124   4.667  28.234  0.0215 -0.3788 -0.0628
45357W        W54157  12.596   1.866  32.375  0.4525 -0.0812  0.1438
45358W        W54158  12.528   4.393  19.651  0.1991 -0.3156 -0.2113
45359W        W54159  16.461   1.619  13.049 -0.0577 -0.3288  0.1706
45360W        W54160   9.846   7.498  19.287 -0.3364 -0.0729 -0.1547
45361W        W54161   9.245   0.666   5.276 -0.1401  0.2532  0.0760
45362W        W54162  23.294   2.196   5.635 -0.0146  0.0683  0.2346
45363W        W54163  11.814   0.630  11.156 -0.2106  0.0143 -0.0650
45364W        W54164  14.287   0.273   8.573 -0.0810 -0.0362 -0.0295
45365W        W54165   8.187   0.094  19.858  0.0895 -0.1959 -0.0502
45366W        W54166  17.903   7.123  26.095 -0.1027  0.0178 -0.1931
45367W        W54167  20.010   7.563  16.614 -0.0410 -0.0797 -0.1180
45368W        W54168  14.089   1.655  23.826 -0.3787 -0.2192 -0.1442
45369W        W54169  14.167   2.548  30.190 -0.0225 -0.1542  0.2977
45370W        W54170  20.411   0.320   8.112  0.1875 -0.1355 -0.2084
45371W        W54171  17.808   4.880   4.900  0.2146  0.3622 -0.0106
45372W        W54172  13.175   2.452  12.425 -0.1180 -0.0204 -0.1812
45373W        W54173  12.315   4.991   3.253 -0.0136  0.0464  0.3638
45374W        W54174   5.450   1.240   9.469  0.0732  0.0942 -0.0009
45375W        W54175  16.790   4.623  10.596 -0.2710 -0.0672  0.0095
45376W        W54176  17.914   3.688  22.917 -0.0401  0.1534  0.0757
45377W        W54177  24.537   1.444   5.445 -0.1690  0.0536 -0.1029
45378W        W54178  16.634   2.511  11.378 -0.1409  0.1384  0.1738
45379W        W54179   2.413   6.645   8.705 -0.1942  0.2523  0.2875
45380W        W54180   7.221   7.292  25.429  0.0092 -0.0447 -0.0049
45381W        W54181  13.705   5.951  32.115 -0.1355 -0.1125  0.1848
45382W        W54182   4.014   0.917  31.448  0.0844 -0.1952 -0.1107
45383W        W54183   6.381   7.154   4.968 -0.0674  0.1877 -0.1397
45384W        W54184  24.705   6.154  12.067  0.2951  0.1823  0.0038
45385W        W54185   4.274   3.513  19.142  0.3375  0.0447  0.0518
45386W        W54186   4.638   6.619  21.313  0.0404  0.1558 -0.0681
45387W        W54187  12.341   3.364  18.876  0.1771 -0.1329 -0.1239
45388W        W54188  20.465   3.772   4.858 -0.3420  0.1742 -0.0975
45389W        W54189  18.540   1.788  23.190 -0.0204  0.1337 -0.0039
45390W        W54190  21.885   0.780  15.097 -0.4656 -0.0666  0.1137
45391W        W54191  20.941   5.972  15.412 -0.2012  0.1226 -0.0465
45392W        W54192  20.813   5.558  13.568  0.1134  0.1934 -0.1295
45393W        W54193  14.845   5.360   6.863 -0.3429  0.0419  0.0387
45394W        W54194   0.166   7.677  24.386 -0.0923 -0.0934 -0.0548
45395W        W54195  14.646   7.593   2.622 -0.2398 -0.0391  0.1108
45396W        W54196  23.259   2.644  12.201  0.0101  0.0278 -0.1685
45397W        W54197  17.082   3.695  25.904 -0.1037  0.0183 -0.0386
45398W        W54198  20.440   6.363  11.693 -0.1838 -0.0433  0.0745
45399W        W54199   1.636   5.676  28.187 -0.3304  0.0341 -0.1036
45400W        W54200   8.738   4.230   0.517 -0.1446  0.2462  0.3719
45401W        W54201   7.437   4.680   5.248 -0.0716 -0.1058  0.0344
45402W        W54202   9.859   2.865   1.693 -0.0033  0.1042 -0.1195
45403W        W54203  18.741   5.021   1.060 -0.2908 -0.0826  0.1181
45404W        W54204  22.095   7.014  30.029 -0.1729  0.0248 -0.0191
45405W        W54205   1.043   5.877   1.149 -0.1675  0.1844 -0.0623
45406W        W54206  20.979   3.260   0.740 -0.0534 -0.3391 -0.1868
45407W        W54207  18.462   3.951   9.854 -0.1402 -0.0717 -0.0647
45408W        W54208  12.567   1.384  22.869  0.3915  0.0076 -0.0790
45409W        W54209   9.146   2.447  19.725  0.0872 -0.3182  0.5573
45410W        W54210   8.337   3.658  25.888  0.0980  0.0388  0.0922
45411W        W54211   7.996   7.481   9.508 -0.0112 -0.0551  0.0048
45412W        W54212   0.247   0.952   0.822  0.2650 -0.1640  0.1898
45413W        W54213   5.228   6.369  18.326  0.1713  0.0666  0.0184
45414W        W54214   3.266   1.602  25.304  0.1768 -0.3382 -0.1146
45415W        W54215  23.040   6.335  29.326  0.3532 -0.1543  0.3000
45416W        W54216  10.744   6.749   6.936 -0.1348  0.2173  0.0239
45417W        W54217  19.404   0.331  12.215 -0.0933 -0.0125  0.0678
45418W        W54218   2.242   6.568  29.594  0.1481  0.1040 -0.1311
45419W        W54219  21.845   0.407  28.246  0.3584  0.1452 -0.0847
45420W        W54220  20.416   4.649  23.723 -0.1601  0.2516  0.1454
45421W        W54221  23.201   5.291  28.369  0.1433  0.0237  0.1207
45422W        W54222  12.889   6.902   9.533  0.2314 -0.0493  0.1294
45423W        W54223  12.488   4.315  25.594  0.0949  0.2768  0.0871
45424W        W54224  14.057   0.674  28.946 -0.1692  0.0271 -0.1930
45425W        W54225  17.538   3.529   6.359  0.0130  0.4183 -0.0157
45426W        W54226  19.607   6.189  16.940  0.1140 -0.3013  0.3807
45427W        W54227  22.286   1.990  28.185  0.0124  0.0239  0.0482
45428W        W54228  17.669   2.705  28.948 -0.1306  0.0489 -0.4215
45429W        W54229   6.436   7.546   1.250 -0.0215 -0.1856  0.2453
45430W        W54230   6.276   3.440  25.114 -0.2807 -0.0979 -0.2769
45431W        W54231  15.287   1.613   8.217 -0.1615 -0.2996 -0.0657
45432W        W54232   8.775   2.421  18.215  0.0793  0.1177  0.0294
45433W        W54233   7.720   2.611   7.134  0.0189  0.3287  0.1075
45434W        W54234  10.465   5.442  21.048  0.1051  0.0678  0.2194
45435W        W54235   2.407   3.425  18.298 -0.0630 -0.0629 -0.1198
45436W        W54236  14.498   5.457  23.871  0.1196  0.2966  0.1606
45437W        W54237   7.844   5.225  31.490 -0.1428 -0.0511  0.2475
45438W        W54238  19.379   5.479  28.994  0.0199 -0.0892  0.0582
45439W        W54239   1.997   6.608  20.068 -0.2647 -0.0627 -0.0297
45440W        W54240  20.573   7.013  24.817 -0.3266  0.1651  0.1230
45441W        W54241  11.388   5.163   8.351 -0.2535 -0.0840 -0.1788
45442W        W54242  21.469   3.011  11.894 -0.0245 -0.0483 -0.0820
45443W        W54243  21.151   6.541  21.770  0.2926 -0.3723  0.1326
45444W        W54244   1.725   6.975  10.042 -0.1330  0.0887  0.0799
45445W        W54245  12.352   5.553  27.022 -0.2590  0.0096 -0.0948
45446W        W54246  18.779   4.892  25.921 -0.1356 -0.1992 -0.3781
45447W        W54247  10.514   5.923  31.917 -0.0050  0.0607  0.0722
45448W        W54248  23.504   1.183   3.195 -0.1954  0.0432 -0.0537
45449W        W54249  11.938   7.091   4.846  0.0734 -0.2060  0.2402
45450W        W54250  19.833   6.216  25.755 -0.1706  0.4005  0.0816
45451W        W54251  20.872   3.650  28.630 -0.0228  0.0801  0.0698
45452W        W54252  13.375   1.989   4.204  0.4113 -0.0109 -0.2653
45453W        W54253   4.624   2.547  29.274 -0.0439  0.3245 -0.3572
45454W        W54254   6.514   0.236  31.804  0.3961  0.0937 -0.0833
45455W        W54255  24.559   4.371   0.227  0.0789  0.2097  0.0707
45456W        W54256   6.166   6.654   8.931  0.1098 -0.2793  0.2570
45457W        W54257  22.439   5.250   9.176  0.1901  0.0945  0.2546
45458W        W54258  23.595   3.716  20.685  0.0472  0.0124  0.2037
45459W        W54259   1.784   7.189  27.712  0.2161  0.0864  0.0132
45460W        W54260  19.724   6.649   4.530 -0.2059 -0.4387  0.0458
45461W        W54261   4.555   3.271   8.983  0.2311  0.0635  0.1940
45462W        W54262   5.757   0.239  15.905  0.2296  0.0380 -0.0005
45463W        W54263  22.358   6.063  26.242  0.3178  0.2362 -0.4179
45464W        W54264  17.126   0.981   4.841  0.1746 -0.2890 -0.1039
45465W        W54265   2.845   5.605   7.142 -0.0248 -0.2475 -0.2095
45466W        W54266  19.596   1.567  28.297  0.1342 -0.1328 -0.0689
45467W        W54267   8.735   7.255  27.087  0.1398 -0.0536 -0.0290
45468W        W54268  10.311   4.904   7.585  0.1013 -0.0558  0.0132
45469W        W54269   3.107   1.111   1.975 -0.1257 -0.0784 -0.3896
45470W        W54270   0.749   1.530  32.503  0.2192 -0.0402  0.0954
45471W        W54271   8.982   2.438  17.784  0.0102  0.1565 -0.1624
45472W        W54272   5.407   5.686  21.900 -0.0533 -0.1828  0.1772
45473W        W54273  16.947   6.926   7.786 -0.0275  0.2040 -0.1477
45474W        W54274   7.072   0.872   7.535 -0.5370  0.0017  0.3212
45475W        W54275  22.794   5.941  27.945  0.4726  0.0892 -0.0720
45476W        W54276  14.661   1.064   0.766  0.0026 -0.0575 -0.0794
45477W        W54277   4.293   1.809   2.583  0.0041  0.1561 -0.1415
45478W        W54278  17.300   2.212   9.441 -0.0177 -0.0192 -0.0795
45479W        W54279   7.625   3.238   5.746  0.2063 -0.0717  0.1888
45480W        W54280  22.190   1.624   2.377 -0.0500  0.0823  0.0516
45481W        W54281  21.415   7.436  27.882 -0.0535  0.3033  0.1296
45482W        W54282   3.799   4.786   9.221  0.0364  0.1211 -0.1526
45483W        W54283   1.446   0.968   0.428 -0.2631  0.3780 -0.2224
45484W        W54284   7.302   2.476  24.257  0.1068  0.0120  0.1029
45485W        W54285   6.605   6.610  16.961 -0.0078 -0.1103  0.2145
45486W        W54286   0.479   1.740  22.605  0.2631 -0.0997 -0.1658
45487W        W54287  12.625   0.169  10.999 -0.0499  0.0847 -0.0248
45488W        W54288  12.493   6.536  10.280 -0.0458  0.4286 -0.1895
45489W        W54289   8.047   4.741   1.892  0.1008 -0.1130 -0.0549
45490W        W54290   9.763   5.648  23.345 -0.2768  0.0193  0.1419
45491W        W54291  19.430   7.765   4.338  0.0287 -0.0392 -0.1168
45492W        W54292  22.587   4.634  11.232  0.0867 -0.0975 -0.2229
45493W        W54293  22.632   5.858   8.003 -0.3052 -0.0443 -0.0373
45494W        W54294  11.276   6.455   4.617 -0.1435 -0.0400  0.3663
45495W        W54295  22.955   4.703   4.763  0.1967 -0.2008 -0.3996
45496W        W54296  12.846   7.603  20.468  0.1191 -0.1318  0.0842
45497W        W54297  11.900   6.800  18.911  0.2910 -0.1171  0.2302
45498W        W54298   8.190   5.317  14.586  0.5138  0.3459 -0.0690
45499W        W54299  14.510   5.463   9.049 -0.2272 -0.1533  0.0940
45500W        W54300   1.685   2.802  11.712 -0.1366 -0.2352 -0.1810
45501W        W54301  13.468   3.494  25.788  0.1681  0.2120  0.2613
45502W        W54302   5.454   2.321  26.932 -0.0670  0.0860  0.2221
45503W        W54303   8.719   4.404   4.999 -0.0941 -0.3275  0.0669
45504W        W54304  12.972   5.468  30.950  0.3015 -0.2576  0.0694
45505W        W54305   1.147   0.242   9.104  0.1223 -0.1565  0.2360
45506W        W54306   9.715   6.974   7.029 -0.4551 -0.1131 -0.1824
45507W        W54307  10.906   1.095  26.425  0.0525 -0.1060  0.1035
45508W        W54308  15.623   2.439  24.929  0.3107  0.2284  0.0315
45509W        W54309  15.365   3.009   6.872  0.1075  0.0595 -0.1173
45510W        W54310  13.644   5.297   2.924  0.1506  0.2748  0.4744
45511W        W54311  15.898   7.120  23.785 -0.2004 -0.1457 -0.0653
45512W        W54312   3.754   3.136  31.378  0.2355  0.2296 -0.1292
45513W        W54313  21.381   7.157   8.583  0.1887 -0.2773 -0.0497
45514W        W54314   9.132   5.534   8.064  0.0071  0.1282 -0.2545
45515W        W54315  23.675   1.125   1.518 -0.1711  0.1421 -0.0434
45516W        W54316   9.519   5.684  30.909  0.0721 -0.1062 -0.0990
45517W        W54317  18.218   3.919   6.757 -0.0437  0.2679 -0.1286
45518W        W54318  11.266   3.493  28.509  0.1478  0.0279  0.0821
45519W        W54319   6.800   1.967  19.943  0.3303 -0.0215  0.1288
45520W        W54320  20.733   1.443  13.779 -0.0492  0.0574  0.1878
45521W        W54321   3.165   1.745   6.409 -0.1249 -0.0639 -0.1289
45522W        W54322   2.042   1.005  24.881  0.1277  0.2290 -0.1900
45523W        W54323  18.890   1.967  30.933  0.1989 -0.0505  0.3376
45524W        W54324  19.188   3.275   4.174 -0.3036  0.3114  0.0786
45525W        W54325  23.415   1.961  24.576 -0.0495  0.2504  0.3905
45526W        W54326  10.540   1.941  16.332 -0.1078  0.0725  0.1118
45527W        W54327  10.496   7.611  27.658 -0.1099 -0.0137 -0.4005
45528W        W54328  15.763   1.663   1.335 -0.1551 -0.3031  0.0256
45529W        W54329  25.032   2.814  31.304  0.1819  0.2083 -0.0756
45530W        W54330  16.807   4.463  13.288  0.1474 -0.0987 -0.1025
45531W        W54331  11.097   4.445   9.273  0.4345  0.0780 -0.0263
45532W        W54332   3.767   7.561   5.678 -0.1881 -0.0589 -0.1759
45533W        W54333  22.938   1.955   1.156 -0.0047 -0.0490 -0.0890
45534W        W54334  19.272   4.674  30.812  0.1804  0.0156  0.1892
45535W        W54335  17.232   1.470   5.110  0.3029 -0.0819  0.0233
45536W        W54336  17.579   7.256  14.977  0.1655  0.0452  0.0541
45537W        W54337   5.191   3.943  32.337  0.0371 -0.0157  0.4650
45538W        W54338  19.085   5.283  11.064  0.4203  0.1149  0.0796
45539W        W54339  16.681   2.097  23.749  0.0148 -0.4883 -0.0024
45540W        W54340   5.644   0.715  31.586  0.2434 -0.0580 -0.0060
45541W        W54341   3.137   4.323  27.733 -0.0773  0.0409  0.4040
45542W        W54342   8.569   0.292   4.331  0.0947  0.2742  0.1043
45543W        W54343   9.133   1.155  17.825 -0.0407  0.0478  0.0823
45544W        W54344  24.670   7.157  26.799  0.1679 -0.1330 -0.0380
45545W        W54345  14.619   6.933  10.216  0.0117 -0.0617 -0.0179
45546W        W54346  21.971   4.811  31.757  0.0988  0.0433  0.1770
45547W        W54347   4.806   0.811   3.148  0.3181 -0.0205  0.1843
45548W        W54348  18.582   1.450  26.901  0.1193 -0.2365 -0.0910
45549W        W54349  21.361   1.716   8.954  0.1160 -0.0606  0.0951
45550W        W54350  11.086   5.144  29.256  0.0228  0.0412 -0.3529
45551W        W54351  12.715   3.975  10.357 -0.0472  0.0270 -0.0856
45552W        W54352   3.022   2.941  25.916  0.0436 -0.0393  0.2039
45553W        W54353  10.099   5.482  21.673  0.0438  0.0181  0.1033
45554W        W54354  20.003   1.625   1.617  0.1314  0.0804  0.3171
45555W        W54355   0.786   7.311  30.829 -0.0518  0.2194 -0.2527
45556W        W54356  13.679   4.604  29.520  0.2024 -0.4076  0.0936
45557W        W54357  12.681   6.546   6.580  0.3141  0.1171  0.4071
45558W        W54358  15.227   0.773  12.281 -0.0548  0.0608  0.2686
45559W        W54359   5.828   0.281   7.672  0.1646  0.1246  0.2756
45560W        W54360  19.967   6.688  28.699  0.1578  0.0955  0.1055
45561W        W54361  17.089   0.838  26.389  0.1534 -0.1285  0.0595
45562W        W54362  14.958   0.087   3.692  0.1563 -0.3732  0.1129
45563W        W54363   2.310   7.039  19.960 -0.3669 -0.1984  0.1221
45564W        W54364  18.744   4.694  11.026 -0.2063 -0.1578  0.1299
45565W        W54365   2.029   1.080   1.074 -0.1572  0.0283  0.1499
45566W        W54366   9.279   0.646   3.426  0.1482 -0.0549 -0.2687
45567W        W54367  13.829   1.532   5.755  0.3305 -0.0371 -0.0839
45568W        W54368   7.780   0.120  19.402 -0.0069 -0.3107 -0.0666
45569W        W54369  24.596   2.556  24.938 -0.0310  0.1541  0.3376
45570W        W54370   5.576   4.433  21.412  0.2160 -0.3816 -0.4370
45571W        W54371  14.967   2.834   9.127  0.1169  0.1152 -0.3727
45572W        W54372   9.277   5.137   5.016  0.0977  0.0642 -0.0534
45573W        W54373   6.760   2.876   7.341 -0.1055 -0.1516  0.1287
45574W        W54374  16.021   3.369  22.896  0.0693 -0.2532  0.0741
45575W        W54375   7.802   4.115  18.527  0.2504 -0.0446  0.0340
45576W        W54376  23.516   4.481  21.146  0.1584 -0.0302 -0.0264
45577W        W54377  23.930   4.741   4.685  0.1254  0.3647 -0.0108
45578W        W54378  22.551   3.810   7.106  0.2635  0.3134  0.0404
45579W        W54379   7.404   7.626  16.135 -0.0580 -0.1386  0.0407
45580W        W54380   9.075   5.402  31.008  0.2063 -0.1020  0.1579
45581W        W54381  14.984   2.958  26.553  0.1111  0.2793 -0.0485
45582W        W54382   8.404   6.296   2.991  0.1815 -0.2401  0.0998
45583W        W54383  11.446   4.157   1.618  0.0203 -0.0515  0.2694
45584W        W54384  23.804   6.715  31.610 -0.3144  0.0420 -0.3682
45585W        W54385  12.795   0.438   5.665  0.0614  0.1706  0.0350
45586W        W54386   4.430   3.801  21.047 -0.3815  0.1741 -0.0725
45587W        W54387   9.960   0.502  18.756 -0.0422 -0.1202 -0.1051
45588W        W54388   8.090   3.231   6.435 -0.1143  0.1741 -0.0752
45589W        W54389  23.335   2.199  27.525 -0.0863  0.1966  0.2754
45590W        W54390  18.111   0.369   2.434  0.1451  0.0040  0.0756
45591W        W54391   1.271   4.959  30.324  0.1355 -0.0202  0.2317
45592W        W54392   9.042   6.809  31.917  0.1965 -0.0999 -0.1060
45593W        W54393  21.173   2.503  24.385  0.2121  0.1057 -0.1018
45594W        W54394   2.268   3.399  25.509 -0.2773 -0.1931 -0.0886
45595W        W54395  11.371   7.824  19.671 -0.1184 -0.0414 -0.2717
45596W        W54396  18.298   7.449  14.567 -0.1007 -0.0938  0.1992
45597W        W54397   7.031   2.979  19.082 -0.3073 -0.1316  0.1360
45598W        W54398  20.544   0.960  29.914 -0.3709 -0.1564 -0.0474
45599W        W54399   6.158   5.080  29.970  0.0867 -0.1611 -0.0649
45600W        W54400  18.295   3.687  17.851  0.3925 -0.2556  0.1055
45601W        W54401   4.805   4.326  23.365  0.0535  0.0287 -0.0693
45602W        W54402  24.562   5.744   5.821  0.3157 -0.0866 -0.4396
45603W        W54403   8.239   5.887  27.529  0.0943  0.3073 -0.0385
45604W        W54404  24.809   0.669  22.895 -0.2815 -0.2750 -0.2505
45605W        W54405  19.681   5.624  30.248 -0.0841 -0.3462 -0.0854
45606W        W54406  14.674   0.928  12.057  0.0370  0.1382 -0.0595
45607W        W54407  11.349   1.713  29.976 -0.0560  0.0913 -0.2596
45608W        W54408  17.098   2.217   6.563 -0.0776 -0.0631  0.0243
45609W        W54409   3.848   6.905  20.141 -0.0305 -0.0002  0.0665
45610W        W54410  15.371   6.986  24.557 -0.0416  0.0052 -0.0431
45611W        W54411  19.712   4.942  25.351  0.0659  0.0110 -0.0944
45612W        W54412  23.342   5.012   5.876  0.1244  0.0552  0.0090
45613W        W54413  10.982   2.436   6.916  0.1292  0.1687  0.2057
45614W        W54414  10.215   5.182  27.101 -0.0426 -0.0280  0.2706
45615W        W54415  13.306   4.573   7.128 -0.2302 -0.1346  0.0869
45616W        W54416   8.698   2.366   1.774 -0.0169  0.0192  0.0523
45617W        W54417  12.220   3.676  19.574  0.1470  0.1294 -0.2363
45618W        W54418  14.651   3.709  30.615  0.0668 -0.1381 -0.2366
45619W        W54419  22.682   3.457   5.023  0.1542  0.0612 -0.2960
45620W        W54420   6.673   6.017   6.369  0.1727  0.0272  0.0492
45621W        W54421  12.124   7.341  24.033  0.0124  0.0424 -0.2325
45622W        W54422  25.149   5.057   0.166 -0.3940 -0.0454 -0.0354
45623W        W54423  23.639   4.623  22.901  0.1426 -0.1444 -0.3534
45624W        W54424  17.049   6.911   4.434 -0.1013 -0.1276 -0.2365
45625W        W54425  21.168   5.142  22.303  0.2174  0.0275  0.0528
45626W        W54426   2.312   2.034   1.033  0.1813  0.0209  0.0275
45627W        W54427  11.157   3.209   1.135  0.2042  0.2377 -0.1475
45628W        W54428  15.803   2.017  23.712 -0.0226  0.2663 -0.4130
45629W        W54429  24.617   5.646   6.292 -0.1132  0.1710 -0.0836
45630W        W54430   8.351   0.879  15.771  0.0030  0.4041 -0.0319
45631W        W54431   8.394   0.381  13.748 -0.0793  0.2082  0.0072
45632W        W54432   7.381   0.041   9.584 -0.1345 -0.3894 -0.2390
45633W        W54433  20.968   7.279  15.781 -0.1416 -0.2117 -0.2607
45634W        W54434   6.040   7.079   4.124 -0.0628  0.1273  0.0540
45635W        W54435   9.334   3.948  21.956 -0.1704 -0.0727 -0.0485
45636W        W54436  16.387   6.125  26.383  0.2317 -0.0605 -0.0383
45637W        W54437  18.726   2.396  31.342 -0.0240 -0.0861  0.0165
45638W        W54438   6.960   3.966  29.088 -0.5752 -0.1968 -0.0505
45639W        W54439   4.348   1.902   1.828  0.0397  0.0983 -0.0523
45640W        W54440  20.122   5.574   3.069  0.3954  0.3692  0.0973
45641W        W54441  20.551   6.935   5.361 -0.3984 -0.2348 -0.2064
45642W        W54442  19.015   1.309  14.726 -0.0718  0.0948 -0.0871
45643W        W54443  23.527   5.639   7.387  0.0888  0.1421  0.2602
45644W        W54444  16.160   2.501   0.920 -0.0087 -0.2536 -0.0996
45645W        W54445   6.399   7.011  15.118 -0.0135  0.0062  0.3162
45646W        W54446  24.649   6.158  23.392 -0.2895  0.0757 -0.2723
45647W        W54447  22.469   1.482   1.465 -0.1093  0.2006  0.0780
45648W        W54448  23.535   2.999  12.648  0.1125  0.1994  0.1012
45649W        W54449   2.225   0.312   4.710  0.2546 -0.1330 -0.1431
45650W        W54450  15.537   6.326  10.466  0.1548 -0.0080  0.1604
45651W        W54451  24.412   2.889  13.136 -0.3565  0.1932 -0.1298
45652W        W54452   9.757   2.783  23.746 -0.1089  0.0418 -0.1847
45653W        W54453  19.907   5.054   0.124 -0.0634 -0.1605  0.0268
45654W        W54454   4.574   0.605   0.644  0.0303 -0.0339 -0.1695
45655W        W54455   8.740   7.847  18.293  0.0717 -0.1035 -0.1338
45656W        W54456  19.582   1.473   3.872 -0.0158 -0.2907 -0.0880
45657W        W54457   6.383   1.644   6.879  0.0896 -0.2440 -0.0151
45658W        W54458   7.831   0.704  19.238  0.0031  0.2374  0.1268
45659W        W54459   5.177   6.795   6.598  0.1841  0.1985  0.0822
45660W        W54460  24.702   1.552  24.498  0.0272  0.0808 -0.0103
45661W        W54461  12.298   5.436  25.624 -0.1672 -0.0545 -0.0438
45662W        W54462  14.596   3.570  27.830 -0.1797  0.0095  0.0789
45663W        W54463  18.222   5.860  15.469 -0.0205  0.0391  0.1203
45664W        W54464  17.029   7.447  31.089 -0.0246  0.0342 -0.1914
45665W        W54465  15.211   3.403  14.276 -0.2008 -0.0218  0.2501
45666W        W54466   0.576   5.053   8.366 -0.0882  0.0643 -0.2810
45667W        W54467  16.962   5.562  31.746 -0.0793 -0.0211 -0.1680
45668W        W54468  22.409   1.064  23.018  0.3992  0.0042  0.1022
45669W        W54469  23.630   4.817  26.437  0.1093 -0.3025  0.0987
45670W        W54470   9.490   4.116   3.034 -0.1145 -0.0242 -0.1326
45671W        W54471  18.683   0.918  15.381  0.0009  0.0932  0.0234
45672W        W54472  11.937   5.723  30.097  0.0266  0.0795 -0.1489
45673W        W54473   9.796   0.872  18.385  0.1744  0.0366  0.1604
45674W        W54474  22.205   3.524   0.720 -0.0436  0.0239  0.1696
45675W        W54475  24.035   4.569  21.661 -0.0462 -0.1488  0.0289
45676W        W54476  14.888   4.234  12.034  0.0726  0.1892 -0.3072
45677W        W54477  11.827   4.728   5.774 -0.1295  0.2945  0.0750
45678W        W54478  19.231   4.265  28.719 -0.0548 -0.0093 -0.0864
45679W        W54479  22.018   3.894  25.003  0.0956 -0.1154 -0.1153
45680W        W54480  24.783   1.145  20.632 -0.0625  0.0704 -0.1857
45681W        W54481   8.600   5.026  29.244 -0.1731 -0.0290 -0.3463
45682W        W54482   9.509   1.536   0.793 -0.0210  0.2321  0.2804
45683W        W54483  20.374   5.899  13.459 -0.1547 -0.1351  0.1478
45684W        W54484   8.208   6.791  21.359  0.1533  0.1231  0.1036
45685W        W54485   3.565   2.870  22.800  0.0944 -0.3020 -0.1239
45686W        W54486   2.345   4.709  21.009  0.0484 -0.0012  0.2181
45687W        W54487  10.300   6.867  29.727  0.0989 -0.0006 -0.0840
45688W        W54488  11.583   5.374  20.138  0.1016  0.3800 -0.0855
45689W        W54489   9.548   4.844  26.927  0.2755  0.1031  0.1087
45690W        W54490  16.623   6.826  16.635 -0.0988 -0.1180 -0.1521
45691W        W54491  17.873   4.547  10.223 -0.1042 -0.1498  0.1051
45692W        W54492   1.914   3.476   9.877  0.1670 -0.0858 -0.2811
45693W        W54493  18.786   6.478  32.525 -0.2476  0.0068 -0.0814
45694W        W54494  24.213   0.057  13.185 -0.0955 -0.3165  0.2031
45695W        W54495   6.489   3.084  26.841 -0.0700  0.1284  0.1594
45696W        W54496  13.255   6.970  23.632 -0.1839  0.0517 -0.2525
45697W        W54497   9.828   0.909  22.862  0.1233  0.0447  0.1910
45698W        W54498   4.005   0.590  17.424 -0.2224 -0.0594 -0.1317
45699W        W54499  22.441   7.017  11.147  0.0809 -0.3050  0.0513
45700W        W54500  18.693   6.039   8.398  0.0135 -0.0264  0.2577
45701W        W54501  23.035   6.481   6.396  0.3063 -0.0497 -0.0932
45702W        W54502  20.844   3.507   1.533 -0.0912  0.1850 -0.2920
45703W        W54503  19.509   1.877  10.311 -0.3037  0.1832 -0.0568
45704W        W54504  11.112   0.622   7.811 -0.1416  0.1438  0.0117
45705W        W54505   1.852   4.338   8.595  0.1088 -0.2465  0.0960
45706W        W54506  15.417   6.190   0.654 -0.0529  0.1724 -0.0117
45707W        W54507  24.638   7.383  30.183  0.0553 -0.1833  0.1485
45708W        W54508  21.021   5.568  16.282 -0.0154  0.0795  0.0988
45709W        W54509  20.407   2.152  30.796  0.0218 -0.3948 -0.0342
45710W        W54510  20.036   3.286  15.895 -0.2224 -0.1465  0.1567
45711W        W54511  22.879   5.658   2.262 -0.0879 -0.0005 -0.0434
45712W        W54512   1.243   0.213  27.203 -0.2385  0.1579  0.1108
45713W        W54513   7.580   0.426   0.165  0.1532  0.0592 -0.1778
45714W        W54514  23.014   1.975   2.528 -0.3615  0.0982  0.0545
45715W        W54515   6.212   0.610  19.533  0.0115  0.0706  0.1435
45716W        W54516  16.659   5.325   1.567  0.1281 -0.2311 -0.3624
45717W        W54517   1.525   6.761   0.528  0.2631  0.1256  0.0079
45718W        W54518   6.263   2.430  31.335  0.0629 -0.0806  0.0371
45719W        W54519  24.072   3.777  26.016 -0.2088 -0.1714  0.2971
45720W        W54520  12.874   6.415   4.846  0.2340  0.2224  0.0609
45721W        W54521  17.237   5.804  26.014 -0.0533 -0.1259  0.0372
45722W        W54522  23.848   0.991   2.489 -0.2406  0.0492 -0.0816
45723W        W54523  13.185   6.641   0.631 -0.3893 -0.0795 -0.0932
45724W        W54524  11.164   4.269  22.246 -0.2356 -0.2407  0.1534
45725W        W54525  18.699   7.084   1.714  0.0455 -0.0864 -0.0013
45726W        W54526  18.758   2.291   7.347 -0.1243 -0.1157  0.1569
45727W        W54527  21.102   2.079  27.643 -0.1728 -0.1032 -0.0853
45728W        W54528  17.352   2.174  15.079 -0.4459  0.1824 -0.0198
45729W        W54529  12.269   4.931   3.808 -0.2226  0.0768 -0.1768
45730W        W54530  17.597   3.946  17.544 -0.1153 -0.2076 -0.0023
45731W        W54531   5.870   3.239  18.387  0.2676  0.0558 -0.2818
45732W        W54532  23.052   0.531  12.215  0.1520  0.0476  0.0216
45733W        W54533   2.853   2.307   1.215 -0.1277  0.0106  0.0852
45734W        W54534  12.171   3.513  28.265 -0.1898 -0.2417 -0.0257
45735W        W54535  21.862   5.393  23.418 -0.2112  0.1974 -0.5115
45736W        W54536  14.136   1.631  25.740 -0.0278 -0.2434 -0.0111
45737W        W54537  17.590   2.121  25.851  0.0851 -0.0274  0.2159
45738W        W54538  23.324   5.905  23.155 -0.0883  0.0347 -0.0870
45739W        W54539  19.745   6.544   9.111  0.0004  0.0223 -0.1013
45740W        W54540  20.920   1.885  22.083 -0.2090 -0.0561  0.0057
45741W        W54541  23.632   2.579  21.396 -0.0694 -0.1925  0.1911
45742W        W54542  10.642   2.001  18.089 -0.1799  0.0496 -0.0942
45743W        W54543  10.031   1.687  27.881 -0.1189 -0.0406  0.0306
45744W        W54544   4.295   5.405  29.116 -0.2130 -0.0965  0.3140
45745W        W54545   0.929   4.190  29.317 -0.0101 -0.2028  0.2550
45746W        W54546  18.449   3.036  10.663 -0.0780 -0.0214 -0.0015
45747W        W54547  24.132   4.084  21.847  0.2855  0.1746 -0.2728
45748W        W54548  17.924   7.187   1.201  0.0969 -0.3510  0.1927
45749W        W54549  16.447   6.013  23.398 -0.2285 -0.0274  0.0938
45750W        W54550   9.062   0.918  22.732 -0.0383  0.1399  0.2191
45751W        W54551  18.539   2.353   2.646 -0.0152  0.1084 -0.2615
45752W        W54552  17.331   2.585   7.286 -0.0506 -0.2222 -0.2785
45753W        W54553  11.943   5.427  29.676 -0.1183 -0.1945 -0.1419
45754W        W54554   4.869   2.452  27.196  0.0796  0.1304 -0.0323
45755W        W54555   5.742   0.112  29.700  0.1264  0.0368  0.2394
45756W        W54556   1.643   5.227  12.106 -0.3793  0.0005 -0.0526
45757W        W54557  19.526   3.786  24.434  0.0817 -0.1424  0.2881
45758W        W54558  14.731   7.028  12.407  0.1068  0.0697  0.0381
45759W        W54559  22.624   2.709  10.791  0.1486 -0.2701 -0.2259
45760W        W54560  10.816   0.813  30.011 -0.1071 -0.1350 -0.0237
45761W        W54561  23.944   5.790  10.236  0.1146  0.1962  0.1663
45762W        W54562   6.269   0.354   9.502  0.5129 -0.2723  0.0601
45763W        W54563  21.231   1.142   5.412 -0.1753  0.0956  0.0792
45764W        W54564   7.201   7.333  22.724  0.1464  0.0794 -0.3009
45765W        W54565  15.950   3.326   2.068 -0.0948 -0.2443 -0.2752
45766W        W54566  15.583   6.918   6.974 -0.0254  0.0365 -0.0675
45767W        W54567   7.027   7.421   2.244  0.1076 -0.1239  0.0176
45768W        W54568  17.263   5.709   5.967  0.0288  0.0955  0.0638
45769W        W54569   7.262   0.383  21.179  0.1972 -0.0553 -0.1247
45770W        W54570  15.045   2.101   7.563 -0.4982  0.0119  0.0817
45771W        W54571   7.313   2.508   4.660 -0.0476  0.0368  0.0709
45772W        W54572   0.330   1.959  24.634  0.1857 -0.1848 -0.0571
45773W        W54573  16.759   5.412  29.379  0.1931 -0.0836  0.1709
45774W        W54574   6.938   3.874   7.694 -0.0545  0.2158 -0.3288
45775W        W54575  11.524   3.865  29.756 -0.1180 -0.1437 -0.2006
45776W        W54576  10.378   6.629  10.181  0.0229  0.1203  0.1360
45777W        W54577  13.462   1.821  21.674 -0.0660  0.1398 -0.0783
45778W        W54578  21.546   5.124  14.206 -0.0640 -0.3430 -0.2094
45779W        W54579   9.008   6.049   6.865  0.0826 -0.0991 -0.1696
45780W        W54580  15.855   3.373   4.129 -0.0762  0.1356 -0.0534
45781W        W54581  22.524   5.943  11.723  0.3787  0.1142  0.3142
45782W        W54582  11.853   6.653  30.496  0.0089 -0.1695 -0.1323
45783W        W54583  18.378   3.310   2.369 -0.0985  0.1774  0.0771
45784W        W54584  18.182   2.977   8.288 -0.1377  0.2768 -0.4269
45785W        W54585  21.462   5.376  16.108  0.0738  0.3010 -0.4094
45786W        W54586   9.292   0.895  26.204  0.0933 -0.1018  0.1458
45787W        W54587   3.595   6.508   9.175  0.0947 -0.1522 -0.1734
45788W        W54588   0.515   5.339  27.218 -0.0243  0.2682 -0.1860
45789W        W54589   5.281   7.613   3.307 -0.2166 -0.2089 -0.1599
45790W        W54590   3.050   2.284  31.581  0.3212 -0.0232  0.0235
45791W        W54591   6.289   1.724  25.284 -0.0802 -0.3833 -0.0197
45792W        W54592   7.561   6.025   0.067  0.0567 -0.2085  0.0009
45793W        W54593  14.312   0.131  26.322  0.1564  0.1545  0.0756
45794W        W54594  19.981   2.451  29.348  0.2219 -0.2106 -0.2740
45795W        W54595  19.041   7.779  29.237  0.0555 -0.0876 -0.0515
45796W        W54596  15.653   2.535  25.403 -0.0841 -0.0748  0.1658
45797W        W54597   4.443   2.603   1.092  0.2131  0.3408 -0.1088
45798W        W54598  25.013   0.376  22.524  0.1396  0.2478  0.1431
45799W        W54599   5.060   4.469  18.083  0.2693 -0.1750  0.0006
45800W        W54600  19.902   1.497  12.180 -0.1375  0.2269  0.0835
45801W        W54601   4.743   5.594  21.616 -0.1356  0.0506 -0.1064
45802W        W54602  18.978   3.583   9.413 -0.0260 -0.0173  0.1170
45803W        W54603   5.460   5.929  14.434  0.0882 -0.2441  0.0042
45804W        W54604  24.863   3.165  28.687  0.1807 -0.1008  0.0749
45805W        W54605   2.018   4.255  32.580  0.0603  0.2136  0.2916
45806W        W54606  22.644   5.860   4.293 -0.3494 -0.0328  0.0078
45807W        W54607  15.803   2.483  10.958  0.3270  0.0938  0.0719
45808W        W54608   1.544   1.759  25.246 -0.1614  0.0722  0.1552
45809W        W54609  12.936   1.426  29.063 -0.4193 -0.3064  0.0042
45810W        W54610  11.290   4.342  21.077 -0.1974 -0.1297  0.0641
45811W        W54611  12.331   5.739  10.814  0.1384  0.1461  0.0540
45812W        W54612   8.359   2.232  26.339  0.0031 -0.0015  0.0602
45813W        W54613  18.108   3.903  12.468  0.0654  0.0829 -0.3142
45814W        W54614   5.620   4.338  17.772  0.1077  0.2332 -0.0824
45815W        W54615   7.646   0.720   4.621  0.0788  0.0366  0.0629
45816W        W54616  16.976   1.532   5.559  0.0422  0.0173  0.2110
45817W        W54617  20.967   6.519  24.528 -0.1748 -0.1639 -0.1253
45818W        W54618  10.460   5.318  17.382 -0.0173 -0.0551  0.1844
45819W        W54619  10.443   7.116  17.875  0.2376 -0.2008 -0.3279
45820W        W54620   3.244   6.254  11.112 -0.0096 -0.2062  0.2544
45821W        W54621  19.229   5.865  30.203 -0.0062 -0.2174  0.1399
45822W        W54622   4.346   3.493   3.164  0.3284 -0.0952  0.1233
45823W        W54623   9.920   0.685  21.775  0.3457 -0.0221 -0.1674
45824W        W54624  13.581   1.949  20.106  0.0508  0.1383 -0.0564
45825W        W54625   6.072   4.679  30.465  0.1749 -0.0558  0.3396
45826W        W54626   9.773   5.690  24.865  0.1459  0.0688 -0.1786
45827W        W54627  23.886   4.081  24.382  0.0699  0.2941 -0.1912
45828W        W54628   1.378   1.319  30.069 -0.1323 -0.2538 -0.1774
45829W        W54629  24.249   1.259  30.866  0.3207  0.0806  0.0364
45830W        W54630  16.570   0.341  23.025 -0.0457 -0.2334 -0.0124
45831W        W54631   8.165   1.382  24.185 -0.1557 -0.4430  0.0804
45832W        W54632   8.759   6.109   0.011 -0.0272  0.3196  0.2631
45833W        W54633   5.295   5.128  23.622 -0.1154 -0.1551 -0.1031
45834W        W54634  19.754   2.233  26.984  0.0515  0.0248  0.1803
45835W        W54635   4.364   0.238  19.702  0.0146 -0.0893  0.0452
45836W        W54636   7.861   5.889  15.455  0.0156  0.2473 -0.0649
45837W        W54637   3.590   0.209   4.237  0.0056 -0.2065 -0.4645
45838W        W54638  19.903   5.683  24.908  0.1327  0.4035 -0.0188
45839W        W54639  13.147   0.494  26.928  0.0621  0.0082  0.0149
45840W        W54640   8.379   6.065  25.135 -0.0387  0.1804 -0.0966
45841W        W54641   7.790   4.421  22.673 -0.1759 -0.0182  0.1412
45842W        W54642  19.827   5.732  23.549 -0.0086 -0.0086 -0.1541
45843W        W54643   6.760   0.692   4.888 -0.0014 -0.0713 -0.0410
45844W        W54644   7.225   4.871  20.250 -0.2184 -0.2174 -0.0975
45845W        W54645  12.510   3.203  21.121 -0.3164  0.3767 -0.3059
45846W        W54646   7.451   1.085  16.120 -0.0933  0.0823 -0.0703
45847W        W54647  20.004   5.621  16.208 -0.0955 -0.4377 -0.1769
45848W        W54648   0.820   6.775  10.031  0.2729 -0.1030 -0.0417
45849W        W54649   6.102   2.930   4.930 -0.0236 -0.0736  0.1415
45850W        W54650   0.588   7.230  11.779 -0.2405  0.1524 -0.0579
45851W        W54651  19.020   5.497  15.737  0.0799 -0.1154 -0.1078
45852W        W54652  24.583   2.150   5.827  0.0996 -0.0039 -0.1397
45853W        W54653  12.373   7.253   1.475 -0.2329 -0.2195  0.0465
45854W        W54654   1.965   3.433   6.144  0.1262  0.0150 -0.2261
45855W        W54655  20.563   0.239   8.810  0.0340  0.2382  0.0544
45856W        W54656  18.066   4.900   5.368 -0.1676  0.0019  0.0302
45857W        W54657   6.096   7.530  23.286  0.0335 -0.0133  0.3176
45858W        W54658  20.906   6.747  14.404 -0.1281  0.0272 -0.0845
45859W        W54659   0.951   6.885  24.447 -0.1501 -0.0504  0.0212
45860W        W54660   1.780   0.544  30.210  0.1271  0.2418  0.0538
45861W        W54661   9.525   7.326   2.774  0.1199 -0.4321 -0.1686
45862W        W54662  24.614   4.594  20.499 -0.1256  0.1345  0.0531
45863W        W54663   3.409   6.973  21.985  0.2208  0.0626 -0.0976
45864W        W54664  23.635   4.694  26.918  0.1626  0.2324  0.1408
45865W        W54665  19.807   3.134  14.797 -0.1957  0.0813 -0.0550
45866W        W54666   2.308   7.496  32.262  0.1219  0.3439  0.0582
45867W        W54667   4.909   6.118   2.067 -0.0001 -0.1701 -0.0646
45868W        W54668  19.795   1.256   8.824 -0.0648 -0.0010  0.0052
45869W        W54669   2.876   3.464  27.826 -0.2410  0.0015  0.3154
45870W        W54670   7.872   4.845  19.704  0.0857  0.0892 -0.1066
45871W        W54671  22.593   1.957  31.577  0.1417 -0.3783  0.1351
45872W        W54672   6.476   6.169   5.941  0.0167 -0.0866 -0.1395
45873W        W54673  24.608   4.872  14.135  0.0813  0.0283  0.3590
45874W        W54674  21.491   6.195  29.038 -0.1753  0.2054  0.0783
45875W        W54675  15.026   4.951  25.761  0.1339  0.0426 -0.3161
45876W        W54676  19.693   3.617  16.330 -0.0564  0.2090  0.3783
45877W        W54677  22.584   3.078  26.449  0.1630  0.0172 -0.2347
45878W        W54678   8.821   5.733   9.201  0.4374 -0.0728  0.1194
45879W        W54679   1.589   5.753  25.027 -0.3023 -0.1346 -0.1227
45880W        W54680  11.088   6.973  32.244  0.0226  0.4483  0.0096
45881W        W54681   8.401   6.026  24.044  0.0281  0.4923 -0.0354
45882W        W54682  12.133   7.827  20.763 -0.0661  0.0732  0.0233
45883W        W54683  13.023   2.004  31.028  0.2712 -0.2635 -0.0556
45884W        W54684   5.814   5.108   5.493  0.0334 -0.0829 -0.0388
45885W        W54685  23.423   0.668  23.629  0.1446  0.0248 -0.2181
45886W        W54686  23.881   5.044  24.077  0.1820 -0.0601 -0.3627
45887W        W54687   8.631   0.044  22.789  0.0136 -0.0314 -0.2097
45888W        W54688  11.216   1.398   9.683  0.3286 -0.0143 -0.0573
45889W        W54689  18.131   3.629  16.056  0.0812 -0.0908 -0.2147
45890W        W54690  19.742   3.867   2.386 -0.1196 -0.2718  0.1022
45891W        W54691   0.414   2.721  19.719 -0.0360 -0.2853 -0.1548
45892W        W54692   0.011   7.189  24.274 -0.2678 -0.2270  0.2669
45893W        W54693  18.338   6.610   6.780 -0.2314  0.0022 -0.0309
45894W        W54694  19.495   1.474  10.684  0.3487  0.4239 -0.1392
45895W        W54695  19.034   4.249  14.163  0.2025 -0.0518  0.1567
45896W        W54696   5.366   6.833  31.290  0.0806 -0.0125 -0.1784
45897W        W54697  18.485   4.150   0.015  0.0369 -0.0831  0.1627
45898W        W54698  21.351   6.061  27.824 -0.1624 -0.2887 -0.0665
45899W        W54699   1.506   6.680  32.488  0.2497 -0.0627 -0.0628
45900W        W54700  12.616   2.487  25.049 -0.0115 -0.1910  0.0190
45901W        W54701  14.418   0.820  10.181  0.1945 -0.1832 -0.0756
45902W        W54702  10.250   0.928   1.169 -0.3148 -0.0708 -0.1571
45903W        W54703  20.565   0.886  14.291  0.1367 -0.1471  0.0436
45904W        W54704  15.504   6.735  13.545  0.3680  0.1114 -0.2623
45905W        W54705  21.347   1.623   8.447  0.1414  0.4711 -0.2766
45906W        W54706  18.953   2.326  15.107 -0.1592  0.1932 -0.3179
45907W        W54707  19.868   1.699   3.016 -0.0846  0.2167  0.3843
45908W        W54708   0.562   2.715   4.462  0.0000 -0.1478  0.2042
45909W        W54709  21.059   5.288  23.619 -0.2976 -0.1604  0.0806
45910W        W54710   9.100   2.761  28.014  0.1372 -0.0024  0.1207
45911W        W54711  20.601   7.759  26.442  0.0428  0.0197  0.0071
45912W        W54712   9.169   6.629   8.157  0.2344  0.1033 -0.0796
45913W        W54713   9.447   2.784   8.151 -0.0717 -0.1822  0.4303
45914W        W54714   5.504   6.692  25.299 -0.0805  0.2636  0.0501
45915W        W54715   5.006   4.013  20.599  0.0983 -0.2723  0.1213
45916W        W54716  14.702   7.220  27.628 -0.2604 -0.2828 -0.0395
45917W        W54717  23.961   6.353   4.529  0.3183  0.1987 -0.1275
45918W        W54718  14.490   5.974  23.630  0.0775  0.1082 -0.3307
45919W        W54719  16.046   6.283   1.594 -0.4328  0.2457 -0.0475
45920W        W54720   4.549   2.988  21.991 -0.0835 -0.0041 -0.0295
45921W        W54721   5.604   7.668  28.134  0.2626  0.1992  0.1179
45922W        W54722  24.165   7.321  12.058  0.2718 -0.1775 -0.3096
45923W        W54723  14.723   1.370  23.606  0.0231  0.3087 -0.1163
45924W        W54724  22.371   0.600  32.080 -0.1453  0.2187 -0.0828
45925W        W54725   6.631   2.491  31.650 -0.1035 -0.1186  0.0246
45926W        W54726  19.291   5.752  27.484  0.1011  0.0367 -0.3352
45927W        W54727   5.460   4.259   8.856  0.1310 -0.0489  0.1026
45928W        W54728  13.108   7.756  23.424  0.0200  0.0345 -0.0397
45929W        W54729   0.402   3.557  21.052  0.2886 -0.0685 -0.0117
45930W        W54730   2.077   1.294  11.560  0.0823 -0.1602  0.0744
45931W        W54731  12.552   5.634  24.883 -0.1844  0.0490  0.0511
45932W        W54732  20.552   3.570  25.715 -0.0842  0.1980  0.1292
45933W        W54733  25.079   5.739   4.694  0.1663 -0.1438  0.2056
45934W        W54734  15.214   0.214  25.867  0.3581 -0.0686 -0.0265
45935W        W54735  18.202   0.163  11.043 -0.0471 -0.3001 -0.0008
45936W        W54736  16.879   1.737   6.551 -0.3172  0.3080  0.1241
45937W        W54737  23.327   0.125   4.416 -0.0303  0.0705  0.4916
45938W        W54738  14.457   2.921  10.829 -0.1989 -0.0808  0.0616
45939W        W54739  11.404   5.390  24.623  0.2302  0.2967  0.4327
45940W        W54740   9.936   1.953  32.403 -0.0627 -0.1878  0.0615
45941W        W54741  23.838   0.200  28.856 -0.1168 -0.2035 -0.0574
45942W        W54742   5.716   7.447  25.129 -0.1171 -0.0632  0.2218
45943W        W54743  21.824   4.918  30.279  0.0512  0.3381  0.1414
45944W        W54744   8.960   7.502   1.916  0.4621  0.0840 -0.1140
45945W        W54745   1.157   2.586  19.227  0.1621  0.0155  0.0411
45946W        W54746  13.952   5.551  25.280  0.0326 -0.0026  0.0677
45947W        W54747  13.989   3.601   9.965  0.0183  0.1675 -0.0519
45948W        W54748   1.279   3.989  29.025  0.1314  0.0574 -0.0313
45949W        W54749   2.319   7.707  28.551  0.2875  0.0959 -0.1150
45950W        W54750  23.863   5.721  25.273 -0.0439  0.1005  0.1071
45951W        W54751   9.421   7.688   3.398  0.0432 -0.3813 -0.4229
45952W        W54752  10.323   5.171  22.661  0.1219  0.0616 -0.0360
45953W        W54753  19.708   1.121  31.606 -0.0615  0.1921 -0.1824
45954W        W54754   0.798   1.590   2.257 -0.1714 -0.1637 -0.2184
45955W        W54755   1.906   5.575  25.340 -0.1713  0.0116 -0.1417
45956W        W54756  12.125   1.994  24.311  0.3422 -0.1493 -0.0551
45957W        W54757  15.787   3.877  24.653  0.0981  0.0164 -0.0355
45958W        W54758  19.925   1.743  25.769  0.1260  0.0658  0.0169
45959W        W54759   9.222   5.887   3.795  0.0712  0.3335  0.0997
45960W        W54760   7.197   5.429  29.437 -0.0922 -0.3186  0.0400
45961W        W54761  20.322   5.829   4.845  0.3979 -0.0648  0.0895
45962W        W54762   5.215   2.389  18.445  0.2593  0.3068 -0.2262
45963W        W54763  18.722   5.879  31.106 -0.1703  0.1242 -0.0791
45964W        W54764   5.543   2.116  24.571  0.2394 -0.0131  0.0950
45965W        W54765   2.768   2.138  24.228  0.3156  0.3342 -0.1811
45966W        W54766  13.231   7.177   8.817  0.1447  0.1930 -0.0059
45967W        W54767   2.657   4.610   5.743 -0.0642  0.2344  0.0316
45968W        W54768  22.440   2.969  14.470 -0.0202  0.3518 -0.2198
45969W        W54769   0.133   1.375  28.699  0.2106 -0.0724 -0.0750
45970W        W54770  14.315   0.157  10.800  0.1425  0.0696  0.2560
45971W        W54771  10.482   2.072   2.016  0.1081 -0.1450  0.1721
45972W        W54772   4.756   4.307   9.101  0.4204 -0.1231  0.0613
45973W        W54773   6.020   2.007   3.326  0.2203 -0.0624  0.0026
45974W        W54774   6.681   3.079   2.630  0.0195 -0.0911 -0.2648
45975W        W54775   7.899   4.124  31.833  0.0705  0.4211  0.1987
45976W        W54776   0.769   5.721   2.895 -0.3254 -0.3270 -0.0953
45977W        W54777  22.554   1.570  26.992  0.1631 -0.2221 -0.0856
45978W        W54778  18.008   3.723   7.221 -0.2246  0.0668  0.0233
45979W        W54779  17.134   1.931   7.001  0.1053  0.0350 -0.1141
45980W        W54780   8.112   0.327  22.266 -0.0844  0.1657 -0.2081
45981W        W54781  20.393   5.040  11.016 -0.0267  0.2522 -0.0227
45982W        W54782  22.755   3.839  15.955 -0.0472  0.2454 -0.2216
45983W        W54783  10.108   2.955   4.345 -0.0311 -0.2869 -0.2132
45984W        W54784  21.623   3.103  23.392  0.0817  0.2049 -0.0001
45985W        W54785  20.954   7.372  29.724 -0.1249  0.1989  0.0177
45986W        W54786  13.268   1.532  26.805  0.0328 -0.1621 -0.0450
45987W        W54787  16.876   0.873   9.262 -0.0828 -0.2122  0.1922
45988W        W54788   0.871   0.631  12.323 -0.2678 -0.2991 -0.1779
45989W        W54789  15.434   4.662   7.688 -0.0260  0.0254  0.0050
45990W        W54790   4.304   3.843  32.553 -0.1587  0.0193  0.1107
45991W        W54791  21.340   1.558   7.727  0.3623  0.1980  0.0501
45992W        W54792   6.696   0.449  30.803  0.2939 -0.0127  0.1064
45993W        W54793  17.679   4.897  26.467 -0.1435  0.1116 -0.0473
45994W        W54794   3.102   2.272   7.836 -0.1001 -0.1392 -0.4144
45995W        W54795  24.679   5.361  25.209  0.3190  0.0827 -0.0336
45996W        W54796  22.344   4.523  23.566 -0.0655 -0.0295  0.0279
45997W        W54797  14.994   5.920   3.785  0.2239  0.2322 -0.0998
45998W        W54798   5.931   3.170  25.330 -0.0351  0.0530 -0.0736
45999W        W54799  14.476   0.572  12.840 -0.1184  0.1256 -0.0448
46000W        W54800  20.638   3.319   3.903 -0.1390  0.0674 -0.1874
46001W        W54801   3.068   2.793  23.555 -0.0396 -0.1374 -0.1212
46002W        W54802  16.784   4.429  14.575  0.0019  0.0449  0.2847
46003W        W54803   9.222   6.147  32.497  0.2193  0.1571 -0.0227
46004W        W54804   5.895   4.297  17.175  0.1094  0.0174  0.0430
46005W        W54805  19.708   5.776   4.727 -0.0640  0.0680  0.1239
46006W        W54806  22.636   3.472  21.234  0.1747  0.0141 -0.0676
46007W        W54807   9.258   2.313  22.028 -0.1527  0.0133  0.0253
46008W        W54808  17.199   1.203   9.266  0.0358  0.1253  0.2458
46009W        W54809  20.988   2.312   2.251  0.1487  0.0761 -0.0039
46010W        W54810  23.240   3.013  22.748 -0.1076  0.0610 -0.0312
46011W        W54811  16.742   5.479   7.643  0.1839 -0.0786  0.1975
46012W        W54812  14.964   3.052   4.262  0.1652  0.0052 -0.2112
46013W        W54813  23.391   5.605  11.084 -0.0088  0.2315 -0.2289
46014W        W54814  16.297   2.308   2.004  0.0386  0.0631 -0.2570
46015W        W54815  16.252   3.467  25.725 -0.1889  0.1572 -0.0326
46016W        W54816  13.670   0.893   3.900  0.1294  0.0395 -0.1272
46017W        W54817  16.652   2.039   4.792  0.0940 -0.0357  0.3361
46018W        W54818   9.066   0.277  28.737  0.2470  0.0169  0.0203
46019W        W54819   6.367   4.171  29.817  0.0713  0.3148  0.1209
46020W        W54820   6.957   1.113  15.921  0.0119 -0.1840  0.1311
46021W        W54821   0.859   5.164  28.901  0.1187  0.1171 -0.0459
46022W        W54822   0.323   1.078   7.459  0.3047  0.2049  0.1245
46023W        W54823  23.226   3.349  32.533  0.2573 -0.3662  0.0217
46024W        W54824  17.663   5.010  32.357 -0.1583 -0.2216  0.0641
46025W        W54825  20.728   2.501   3.846  0.1662  0.2833  0.1644
46026W        W54826  19.799   6.925   0.847  0.0232 -0.2230  0.0125
46027W        W54827  13.885   6.635   6.013 -0.0814 -0.1453 -0.0788
46028W        W54828  16.087   2.659   9.872 -0.0293  0.1641 -0.1443
46029W        W54829  19.212   2.251  15.677 -0.0926  0.0807  0.0313
46030W        W54830  18.997   6.212   5.190 -0.0464 -0.0164 -0.0002
46031W        W54831   8.675   1.505  19.499 -0.0849  0.0857 -0.0506
46032W        W54832   6.969   3.061  28.417  0.0246 -0.0785 -0.6599
46033W        W54833  17.768   0.310  27.671 -0.0836 -0.0427  0.2265
46034W        W54834   6.637   7.112  19.208 -0.2267 -0.1550 -0.1643
46035W        W54835  10.065   2.250  29.405 -0.0371 -0.3094 -0.3107
46036W        W54836   8.974   7.325  16.801 -0.0286  0.0178  0.0211
46037W        W54837  22.892   4.507  31.417  0.0168 -0.0146 -0.1725
46038W        W54838  20.861   2.017  17.666  0.0616  0.0158 -0.0246
46039W        W54839   4.077   7.667  16.981  0.0690  0.0476  0.0131
46040W        W54840  21.980   6.530  26.129  0.2003  0.2886 -0.1039
46041W        W54841   2.797   0.521   6.981  0.0940  0.0567 -0.0392
46042W        W54842   0.263   3.082  23.919 -0.4387  0.0076 -0.1640
46043W        W54843  17.166   0.534   4.559 -0.1778  0.2061 -0.2152
46044W        W54844   5.319   4.911  25.656 -0.0838 -0.0350 -0.0749
46045W        W54845  12.963   1.907  12.455  0.1713  0.0929 -0.1735
46046W        W54846   9.651   4.220  23.485 -0.0228 -0.1089  0.1623
46047W        W54847  16.033   3.128   2.639  0.1147  0.0061  0.2140
46048W        W54848  23.627   0.115  24.737  0.0552 -0.1113 -0.1749
46049W        W54849  14.012   0.517   5.106  0.5533 -0.2209  0.1253
46050W        W54850   5.648   4.375  29.057  0.3538  0.0426 -0.0777
46051W        W54851  12.746   5.879   1.588  0.1457  0.1513  0.1460
46052W        W54852   9.734   7.126  21.206 -0.2686 -0.1608 -0.0762
46053W        W54853   2.742   0.428  24.485 -0.0282 -0.0992  0.0613
46054W        W54854   7.934   6.432  22.812 -0.0666 -0.2327  0.0281
46055W        W54855  11.768   4.730  24.121  0.1332  0.3225  0.1690
46056W        W54856  24.317   5.836  31.835  0.0293  0.1846 -0.0784
46057W        W54857  18.266   4.071  17.545  0.1860  0.0336  0.2274
46058W        W54858   8.126   1.777  17.733 -0.0946  0.1049  0.2517
46059W        W54859   7.581   7.753   7.752 -0.1450  0.2068  0.1463
46060W        W54860  13.766   3.410  25.395  0.0802  0.2618  0.0157
46061W        W54861  20.951   5.113  30.739 -0.3840  0.0016 -0.1341
46062W        W54862  18.564   7.651   8.390  0.0450 -0.0839 -0.3039
46063W        W54863  17.522   6.635   9.820 -0.0082  0.0681 -0.1176
46064W        W54864  11.998   6.988   0.117 -0.1082  0.1609 -0.1147
46065W        W54865   4.900   4.965   1.504  0.2211  0.0420 -0.3243
46066W        W54866  20.597   0.670   3.366  0.0317 -0.3158 -0.0857
46067W        W54867   9.315   2.386  21.008 -0.0314 -0.2275  0.1918
46068W        W54868  11.162   0.312  22.627 -0.1416 -0.0380  0.2066
46069W        W54869   9.309   3.025   5.115  0.3256 -0.1724  0.0386
46070W        W54870  23.987   2.471   9.865  0.2223  0.2714  0.1640
46071W        W54871  19.351   4.725  28.347  0.0521 -0.1637  0.2569
46072W        W54872   8.983   6.835   3.176  0.2021  0.1363 -0.2454
46073W        W54873   5.321   3.955   7.442  0.0269  0.1118  0.1597
46074W        W54874  11.472   2.336   7.864 -0.2147 -0.1823  0.2323
46075W        W54875  19.798   4.632  14.832 -0.1385  0.0074  0.1098
46076W        W54876   1.205   7.579   0.053  0.0185 -0.0520  0.0471
46077W        W54877  18.524   4.931  26.465 -0.0704  0.3669  0.2819
46078W        W54878  16.866   4.167   3.238 -0.1719 -0.0121  0.0850
46079W        W54879  15.085   0.062   9.349 -0.1942 -0.2700 -0.0009
46080W        W54880   8.295   7.686  16.288 -0.1686 -0.1574 -0.1774
46081W        W54881   1.689   3.650  10.558 -0.0654 -0.1208  0.0645
46082W        W54882   8.378   4.702  30.189 -0.0831 -0.0904 -0.4214
46083W        W54883  17.139   7.608   2.950 -0.1254  0.0423 -0.1853
46084W        W54884   1.728   4.489  32.230 -0.1503  0.4123 -0.1336
46085W        W54885   4.629   1.042   4.738  0.1446 -0.0246  0.1996
46086W        W54886   0.787   5.861  18.994  0.0628  0.0820 -0.1471
46087W        W54887  14.447   2.050  13.083 -0.3147  0.2674  0.1818
46088W        W54888   3.308   1.440   7.766 -0.0783 -0.0144  0.0303
46089W        W54889   6.252   0.453   7.395 -0.0477  0.1316 -0.0087
46090W        W54890  14.025   2.557  23.526  0.3264  0.2035 -0.3197
46091W        W54891   4.655   1.087  25.866  0.1589 -0.2060 -0.0489
46092W        W54892  20.197   6.581  32.171 -0.0242  0.0996  0.0453
46093W        W54893   3.115   2.707   0.741 -0.2450  0.0006  0.0738
46094W        W54894   5.007   5.927  20.532  0.0057  0.0259  0.1745
46095W        W54895   9.252   4.485  19.453  0.0112  0.0494 -0.2293
46096W        W54896  16.871   5.803  32.197  0.1248  0.0160 -0.1994
46097W        W54897  13.330   1.773  23.480 -0.0431  0.2388  0.1503
46098W        W54898  21.388   0.048  11.034 -0.1120 -0.2188  0.4315
46099W        W54899  21.747   0.536   6.496  0.0954 -0.0354 -0.0614
46100W        W54900   6.716   7.034   3.096  0.0333 -0.0798 -0.2966
46101W        W54901   2.630   0.364  25.404  0.0977  0.0774  0.1944
46102W        W54902  18.325   7.566   6.666 -0.0172  0.2839  0.2957
46103W        W54903  22.901   5.308   0.513 -0.1163 -0.0283  0.0803
46104W        W54904   8.726   5.035  29.717  0.1002 -0.0080  0.0711
46105W        W54905  11.914   0.068   8.379  0.2159  0.2267 -0.0530
46106W        W54906  23.364   7.569  29.479 -0.1989  0.2170 -0.1966
46107W        W54907   1.916   6.729   0.203  0.2520 -0.2160 -0.1676
46108W        W54908   8.645   6.946  21.842 -0.0330 -0.2791  0.1530
46109W        W54909   7.162   1.957   5.335 -0.0663  0.2061  0.0181
46110W        W54910  23.598   1.769   6.767 -0.2305 -0.0018  0.0980
46111W        W54911  14.632   5.304  24.634 -0.2194 -0.2498 -0.2266
46112W        W54912  19.763   6.422  22.070 -0.0746 -0.2643  0.0329
46113W        W54913  23.610   1.386   4.806  0.0595 -0.0730  0.2310
46114W        W54914  15.987   4.241  30.718  0.0574  0.1134 -0.0619
46115W        W54915  13.346   6.497  19.841  0.1288  0.1230  0.1189
46116W        W54916  15.551   5.878  27.251 -0.2658  0.1970 -0.0268
46117W        W54917  19.901   4.300  10.973 -0.3647  0.0681  0.2081
46118W        W54918   7.586   5.328  16.620  0.1244  0.1324 -0.0492
46119W        W54919  14.098   2.460  13.760 -0.1922 -0.3791 -0.1011
46120W        W54920   4.351   6.230  26.330 -0.0155 -0.1084 -0.1872
46121W        W54921  24.887   0.485  23.372  0.1103  0.0313 -0.2839
46122W        W54922   4.010   1.567  19.694 -0.1199  0.0450 -0.2141
46123W        W54923  15.296   7.048  27.406  0.1126 -0.1748 -0.1105
46124W        W54924  18.963   6.911   6.029  0.2359  0.1686  0.1224
46125W        W54925   1.134   1.421  21.849  0.0053 -0.0563 -0.0072
46126W        W54926  20.739   7.758   9.921 -0.0724  0.0932  0.2299
46127W        W54927  10.186   3.141   8.471 -0.1097 -0.2052  0.2341
46128W        W54928  13.715   5.285  13.509 -0.1710  0.0615 -0.0544
46129W        W54929  23.055   3.075   8.623  0.0628  0.3900  0.0784
46130W        W54930   4.091   0.865  30.209  0.0018 -0.0809  0.0984
46131W        W54931  10.846   3.074   2.401 -0.0140 -0.1656  0.3641
46132W        W54932  24.456   3.467  28.748  0.0971 -0.1283  0.0985
46133W        W54933  19.796   2.420  23.060  0.0280  0.1289 -0.0385
46134W        W54934  16.986   6.164  16.194  0.2835  0.1743 -0.1498
46135W        W54935  12.356   6.912  21.831 -0.1853  0.1693 -0.1620
46136W        W54936   3.400   3.698  29.303  0.2370  0.0685  0.0738
46137W        W54937  16.849   7.457  13.802 -0.3328 -0.0373 -0.1397
46138W        W54938   1.692   2.359  29.853 -0.0438  0.2261 -0.0443
46139W        W54939   5.508   7.259  14.896 -0.3042  0.0123  0.0887
46140W        W54940  19.941   5.705  12.758 -0.0109  0.1192 -0.0282
46141W        W54941  15.683   0.321  10.620  0.2555  0.1412  0.0157
46142W        W54942  19.321   0.386  26.584 -0.0719  0.4498  0.0811
46143W        W54943  20.636   6.671  31.200 -0.1962 -0.3396 -0.2032
46144W        W54944   3.063   5.475  24.181 -0.1845  0.2862 -0.1523
46145W        W54945  18.855   3.574   3.973  0.2491 -0.1439 -0.0351
46146W        W54946   5.928   6.440  25.192 -0.0199 -0.0485  0.2946
46147W        W54947  14.250   7.681  20.722 -0.2034 -0.1408 -0.0565
46148W        W54948   8.493   7.241  23.319  0.1574 -0.1965 -0.4072
46149W        W54949   4.906   7.489  15.717 -0.3037  0.1654 -0.2625
46150W        W54950  21.036   6.402   0.824 -0.2117  0.2076  0.0479
46151W        W54951  19.606   1.631   9.095 -0.0829  0.0342  0.2153
46152W        W54952  16.250   3.296   1.121  0.1112  0.1138 -0.0634
46153W        W54953   4.589   5.529  30.891 -0.0436 -0.0690  0.3077
46154W        W54954  17.203   4.216   6.832 -0.1253 -0.1833 -0.1772
46155W        W54955  11.008   1.025  29.095  0.0258 -0.0668  0.2209
46156W        W54956   6.378   5.525  23.105 -0.0551  0.0159  0.1950
46157W        W54957   8.509   0.571   7.646 -0.0616 -0.1964 -0.2571
46158W        W54958  19.746   6.065  28.704 -0.3526  0.2002  0.3052
46159W        W54959  21.622   0.885  13.694  0.4187 -0.1847  0.1737
46160W        W54960  20.813   0.431   6.102 -0.0648 -0.0379 -0.2204
46161W        W54961   2.693   1.714   7.212  0.3221 -0.1485  0.0962
46162W        W54962  20.197   0.829   2.835 -0.2392  0.0547 -0.1620
46163W        W54963  24.227   5.712  14.434 -0.0188  0.1999  0.0884
46164W        W54964  14.290   0.072  13.363  0.0442  0.1870 -0.0500
46165W        W54965  17.811   2.623   7.063 -0.3196  0.0228 -0.1891
46166W        W54966  14.575   6.072   5.644 -0.0375 -0.0991 -0.3491
46167W        W54967  14.991   3.700  11.998 -0.0139 -0.1170 -0.0707
46168W        W54968   5.939   1.961  14.965  0.1965 -0.1465 -0.2650
46169W        W54969   7.369   0.903  32.502  0.1147  0.0211  0.0600
46170W        W54970  13.938   3.273  24.398 -0.1665 -0.0752 -0.0248
46171W        W54971  10.343   1.396   4.880  0.3664 -0.0750 -0.1140
46172W        W54972  22.298   6.599  22.799 -0.4278 -0.3558 -0.0037
46173W        W54973   6.432   0.051   1.624 -0.1279 -0.2360  0.1768
46174W        W54974   6.407   0.433  25.915 -0.1265 -0.0863  0.1165
46175W        W54975   9.314   6.841  21.185  0.1359  0.3736  0.1883
46176W        W54976  15.057   3.774  23.694  0.0895  0.1030 -0.0259
46177W        W54977   0.029   0.173   6.992 -0.0788 -0.2226  0.0020
46178W        W54978  16.474   5.696   5.830  0.0848  0.1479 -0.0845
46179W        W54979   3.204   3.753  21.616  0.1426  0.3049  0.0931
46180W        W54980  22.855   0.327  12.667  0.1888  0.2534 -0.1750
46181W        W54981   1.712   2.006  31.190  0.1683  0.0230 -0.0937
46182W        W54982   0.524   1.248  29.452  0.0458  0.2154 -0.1656
46183W        W54983  23.601   3.996   8.673 -0.0887 -0.1026 -0.1463
46184W        W54984   1.025   7.290  24.100  0.1628 -0.1977  0.0276
46185W        W54985   3.555   5.254  11.199 -0.2168  0.2002  0.2001
46186W        W54986  20.218   5.428   5.335  0.2737  0.5048  0.1513
46187W        W54987  23.075   0.574   5.612 -0.0732  0.1014 -0.0377
46188W        W54988  24.385   3.630  31.155  0.1152 -0.0397  0.1076
46189W        W54989   9.517   4.830   3.511 -0.0597  0.0586  0.2155
46190W        W54990   6.677   4.191   5.658 -0.2488 -0.0462 -0.0063
46191W        W54991  22.339   2.858  25.763  0.2522  0.1818 -0.2048
46192W        W54992  24.842   5.865  22.818  0.1561  0.0783 -0.2228
46193W        W54993   7.639   3.578  23.040  0.0796  0.0135  0.2854
46194W        W54994  21.351   0.388  30.628 -0.3368 -0.0340 -0.1001
46195W        W54995  19.276   2.793  25.484 -0.1285 -0.0390 -0.2114
46196W        W54996  23.955   0.120  32.434  0.0163 -0.0980  0.0195
46197W        W54997   9.420   3.670  23.367  0.0031 -0.2682  0.1761
46198W        W54998   8.592   6.154   6.641  0.2257 -0.0498 -0.2401
46199W        W54999  12.256   5.491   5.498 -0.1134  0.1940 -0.1349
46200W        W55000   2.163   3.129  29.554 -0.0076  0.2386 -0.0272
46201W        W55001   8.093   0.113   3.576  0.0015 -0.3693 -0.2991
46202W        W55002  10.811   5.497   4.347  0.4403 -0.2714 -0.3329
46203W        W55003  18.113   5.206  11.044  0.3061 -0.3501 -0.2053
46204W        W55004  17.890   1.827  23.933  0.1174  0.1660  0.3051
46205W        W55005  12.258   4.179   1.180 -0.1164 -0.0617 -0.1249
46206W        W55006   5.044   0.572   9.235 -0.0726  0.2435 -0.2065
46207W        W55007   5.848   5.414  28.231  0.3117  0.0934 -0.2746
46208W        W55008  10.278   5.859   0.383  0.0278  0.2122  0.1615
46209W        W55009  21.750   0.647  12.584  0.0263  0.0786 -0.2334
46210W        W55010  24.455   0.176  23.799 -0.2683  0.1036 -0.0796
46211W        W55011  24.646   5.588  30.653  0.1561 -0.2958  0.0596
46212W        W55012  21.957   3.021  16.382  0.1979  0.0459 -0.2030
46213W        W55013  22.014   2.698   6.467  0.0195 -0.0162 -0.1005
46214W        W55014  10.227   1.778  30.574 -0.0197  0.1855 -0.3438
46215W        W55015   7.548   1.289  29.507 -0.2933  0.3207 -0.1286
46216W        W55016   4.560   3.884   3.520  0.1807  0.0271  0.0958
46217W        W55017  21.029   0.158  26.676  0.1051 -0.2173  0.3392
46218W        W55018  17.614   1.414   7.055  0.0841 -0.1257 -0.2979
46219W        W55019  13.770   6.216  31.635 -0.0634  0.1208 -0.0315
46220W        W55020  10.496   3.401  18.416 -0.2043  0.0081  0.2431
46221W        W55021  18.457   1.363  17.841  0.0472  0.0777 -0.2788
46222W        W55022   5.992   0.882  23.945  0.0343  0.1356  0.0670
46223W        W55023  18.640   1.169  12.126  0.1530 -0.1426 -0.0593
46224W        W55024  19.116   5.840  15.348 -0.1570  0.0455  0.2244
46225W        W55025  25.001   5.070   0.635  0.0565  0.1904 -0.0675
46226W        W55026  13.787   7.606  25.849 -0.0115 -0.1669  0.1358
46227W        W55027   7.001   6.098   0.974  0.0089  0.4824 -0.1090
46228W        W55028  20.391   3.711  31.567  0.0698 -0.1322  0.1041
46229W        W55029   0.666   6.773  30.631  0.1240 -0.0142  0.0085
46230W        W55030  12.289   5.753  27.535  0.0177 -0.1901  0.1140
46231W        W55031  10.513   0.836   3.054 -0.1383 -0.2891 -0.0798
46232W        W55032   0.127   1.536   7.286 -0.1108 -0.1290 -0.2733
46233W        W55033  17.962   6.866   6.996 -0.0770 -0.0532  0.0906
46234W        W55034   4.701   5.305  30.237 -0.1913  0.3927 -0.2854
46235W        W55035  18.776   2.090  24.184  0.0450 -0.1736 -0.0727
46236W        W55036  23.576   2.867   0.394  0.1851  0.0543 -0.1610
46237W        W55037   4.356   1.129  26.588  0.2963 -0.0736 -0.2194
46238W        W55038   0.173   6.731   3.518 -0.1445 -0.0031 -0.0721
46239W        W55039  24.413   5.106  24.223  0.1332 -0.0373  0.0491
46240W        W55040   2.067   0.887  26.049 -0.0924 -0.0511  0.0395
46241W        W55041   2.623   3.732  18.709 -0.1792  0.1179 -0.0988
46242W        W55042   5.855   5.431  22.003 -0.1832 -0.1701 -0.0483
46243W        W55043  13.856   0.514  11.510 -0.2607  0.1455 -0.0157
46244W        W55044  21.282   1.368  13.027 -0.2469 -0.1336 -0.1208
46245W        W55045   0.207   6.630   9.194 -0.3553 -0.2858  0.0582
46246W        W55046  19.765   0.284  14.448  0.0411 -0.0222 -0.1299
46247W        W55047  10.505   6.897  24.685  0.3075  0.0543  0.0804
46248W        W55048   1.810   2.360   8.466 -0.2224  0.2566  0.0425
46249W        W55049  18.644   1.105  25.819 -0.1495  0.0181  0.1479
46250W        W55050  14.313   5.811   7.222 -0.1429  0.0091 -0.2943
46251W        W55051  17.992   1.892  12.428  0.2676 -0.0039  0.0622
46252W        W55052  13.158   4.347   8.072  0.1559  0.1312 -0.1310
46253W        W55053   8.273   5.779  17.969  0.0330 -0.0099 -0.0933
46254W        W55054   8.751   1.892   5.848  0.1306 -0.0921  0.1451
46255W        W55055   8.155   5.883   6.490 -0.1603 -0.1664  0.0673
46256W        W55056   5.744   4.758  25.344 -0.2361  0.0647 -0.1867
46257W        W55057  11.793   2.921   0.228 -0.2674 -0.0329  0.1710
46258W        W55058  11.729   7.737  30.617 -0.1138  0.2919  0.0664
46259W        W55059   9.218   0.138  10.795 -0.1931 -0.0934  0.1372
46260W        W55060  10.598   5.758  17.537  0.0250  0.0305  0.1996
46261W        W55061   8.637   3.948   6.041  0.0367 -0.0978  0.0176
46262W        W55062  22.746   2.961  16.044  0.1971 -0.3674  0.1575
46263W        W55063  14.707   0.986   3.390  0.3898  0.1880  0.0550
46264W        W55064  14.205   5.199  28.555 -0.2334  0.2308 -0.1452
46265W        W55065   4.344   0.094  29.493  0.1253  0.0756 -0.1608
46266W        W55066   4.249   2.951  20.697 -0.0007 -0.0955 -0.3037
46267W        W55067   8.285   3.723  22.446  0.0554  0.1419 -0.2144
46268W        W55068  12.413   6.077   7.783  0.4255  0.2450 -0.0459
46269W        W55069   8.755   0.870  16.117  0.0872  0.0595 -0.0358
46270W        W55070  15.578   0.207  23.612 -0.4927 -0.0940 -0.3477
46271W        W55071   5.545   4.470   9.658 -0.1060  0.1606 -0.2242
46272W        W55072  10.137   4.080   8.166  0.0238 -0.1293 -0.1691
46273W        W55073  12.546   3.445  26.094 -0.2080 -0.1296  0.0879
46274W        W55074  11.211   2.587  24.716  0.2601  0.0338 -0.1128
46275W        W55075   6.248   7.340  17.190  0.0685 -0.0269  0.1188
46276W        W55076   0.841   0.451   7.827  0.1724 -0.1108  0.1176
46277W        W55077   9.423   6.955  17.521  0.2714  0.2436  0.0909
46278W        W55078  13.174   5.210   6.480 -0.0341  0.2458 -0.4225
46279W        W55079   3.604   3.341  22.823  0.0876 -0.1298  0.0678
46280W        W55080  12.061   3.323  10.503  0.0765  0.0389  0.2554
46281W        W55081  12.461   3.550  22.093  0.2050 -0.0122 -0.3594
46282W        W55082  20.197   5.959   0.864  0.2022  0.1998  0.1661
46283W        W55083  17.531   0.245  28.156  0.1163  0.1620  0.1101
46284W        W55084  12.973   7.504   9.243  0.1763  0.0152 -0.0744
46285W        W55085  11.402   6.042  19.741 -0.2138 -0.1408  0.0892
46286W        W55086  25.135   2.333   0.944  0.0288 -0.1484  0.0310
46287W        W55087   2.133   0.608   2.770 -0.0304 -0.0869  0.2739
46288W        W55088   8.102   3.261  30.323 -0.2265 -0.1266  0.3501
46289W        W55089   0.780   0.965   2.955  0.0799  0.1309 -0.0340
46290W        W55090   8.820   2.804   5.242  0.0486  0.0526  0.2843
46291W        W55091  24.377   0.290  12.250 -0.2420 -0.0936 -0.0397
46292W        W55092   6.975   7.371   0.408 -0.1234  0.4507 -0.0587
46293W        W55093   0.319   1.277  22.618  0.1561 -0.0486 -0.0759
46294W        W55094  20.892   1.055   1.756  0.1508  0.1218  0.1314
46295W        W55095   4.995   6.902  15.712  0.1682  0.0936  0.0914
46296W        W55096  13.670   3.939   6.676  0.2152 -0.2106 -0.2329
46297W        W55097  24.825   1.502  29.637  0.0672  0.0059  0.1300
46298W        W55098  10.544   0.095   2.678  0.0334 -0.0001  0.4863
46299W        W55099   2.775   2.573  18.653 -0.2719 -0.0373 -0.1175
46300W        W55100  24.601   5.457  30.073  0.3055 -0.0477 -0.1567
46301W        W55101  25.030   3.013  21.667  0.3613 -0.0976  0.0375
46302W        W55102  17.470   6.322  17.009 -0.2284 -0.2474 -0.1661
46303W        W55103  11.895   7.458   2.150  0.0096  0.0620  0.0815
46304W        W55104  19.549   0.727  30.019 -0.0578 -0.2132  0.1809
46305W        W55105   5.156   3.721   4.066  0.1182 -0.0836 -0.1994
46306W        W55106  21.015   5.817  29.909 -0.1766 -0.0087 -0.5637
46307W        W55107  22.712   2.107   8.346  0.0754 -0.2375 -0.0333
46308W        W55108   2.555   2.853  20.498  0.2331  0.2272 -0.1576
46309W        W55109  13.974   7.795  21.839 -0.1469 -0.0174 -0.0264
46310W        W55110  13.842   0.743  27.565 -0.1464  0.2287  0.0133
46311W        W55111  12.711   5.723   8.040 -0.1702 -0.1572  0.1920
46312W        W55112  15.289   5.595   2.870 -0.0001 -0.0509  0.0797
46313W        W55113   9.723   2.838   7.755  0.1604  0.1970 -0.0754
46314W        W55114  23.731   3.201  25.762  0.2156  0.2410  0.2624
46315W        W55115  15.964   6.241  21.715  0.0925 -0.1592 -0.1869
46316W        W55116  14.187   2.494  31.088  0.2346  0.1471 -0.0600
46317W        W55117  17.445   6.218   0.188 -0.1620  0.2130  0.2055
46318W        W55118   4.965   5.722  28.079 -0.3622 -0.3491 -0.1200
46319W        W55119   1.704   3.966  23.763  0.2400  0.0880  0.1173
46320W        W55120  12.973   4.459  25.503 -0.0441  0.1269 -0.3436
46321W        W55121   5.187   2.267  25.283  0.0777  0.0830  0.2481
46322W        W55122   1.298   1.031   9.725  0.1390 -0.2310  0.0597
46323W        W55123  17.684   3.322  16.108  0.2104 -0.0093  0.2305
46324W        W55124  17.332   6.208  28.512  0.1991  0.1855 -0.0245
46325W        W55125  16.364   3.167  31.804 -0.4617 -0.2116 -0.3953
46326W        W55126  24.618   1.162  24.264 -0.0231  0.0521  0.2759
46327W        W55127  12.488   0.505  22.740 -0.0147  0.0739  0.0175
46328W        W55128  13.825   0.537  26.212 -0.0710  0.1627  0.2035
46329W        W55129  13.698   7.048  14.637  0.1167  0.0758  0.3904
46330W        W55130   7.060   4.860  22.959  0.1425  0.2996 -0.2693
46331W        W55131  12.674   3.288  28.806  0.1722 -0.0304  0.0655
46332W        W55132  23.418   4.588   2.937 -0.0871  0.2735 -0.0030
46333W        W55133  20.572   3.512  27.302 -0.1716 -0.0808 -0.1542
46334W        W55134  23.442   3.044   7.551  0.0917 -0.1248  0.0111
46335W        W55135  20.179   1.188  10.553 -0.1442  0.1497 -0.0257
46336W        W55136   7.713   3.428  17.606  0.1834 -0.0708 -0.1047
46337W        W55137  12.993   6.726  26.351  0.0174 -0.0614  0.0073
46338W        W55138   9.598   6.020   2.280 -0.0642 -0.0116  0.2396
46339W        W55139   6.173   5.261  31.056 -0.0139 -0.1758  0.0875
46340W        W55140  22.964   3.533   3.024  0.0141 -0.0840  0.3293
46341W        W55141  16.588   4.664  11.533  0.1250  0.1944 -0.4111
46342W        W55142  19.707   2.561  17.739  0.1854  0.0400 -0.1854
46343W        W55143  22.330   0.455  12.731 -0.0495  0.1827 -0.0651
46344W        W55144  21.595   2.003  27.625 -0.1982  0.0285  0.0129
46345W        W55145  21.908   3.613  27.497  0.1084 -0.0405 -0.1294
46346W        W55146  23.704   1.518  31.574  0.0149  0.1624  0.0221
46347W        W55147   5.726   6.327   1.718  0.1151 -0.2153  0.0339
46348W        W55148   6.235   6.788  28.770  0.2555 -0.0603 -0.1955
46349W        W55149  14.935   6.204  12.901 -0.1633 -0.1193  0.2271
46350W        W55150   8.242   5.026   7.180 -0.0178  0.0715  0.0182
46351W        W55151  15.825   3.851   9.650  0.0150 -0.1077 -0.0557
46352W        W55152   5.265   2.925  30.131  0.3749 -0.2475 -0.1467
46353W        W55153   9.445   5.226  18.905  0.3858 -0.2445  0.0284
46354W        W55154  19.493   6.621  17.191 -0.1930  0.1386  0.0688
46355W        W55155  11.838   4.939  19.292  0.1532 -0.2384  0.4698
46356W        W55156   1.130   0.944  29.787 -0.2505  0.0456  0.1301
46357W        W55157   6.644   5.297  25.974 -0.3044  0.1310  0.2327
46358W        W55158  17.475   2.903  10.725 -0.0505 -0.1408 -0.1079
46359W        W55159  24.554   5.676   0.882  0.1067  0.0994 -0.3725
46360W        W55160   0.809   5.927  10.380  0.1182  0.2061  0.0244
46361W        W55161  24.448   5.992  11.101  0.0534 -0.0669 -0.0593
46362W        W55162  11.107   3.223  27.012 -0.2362  0.0509 -0.0966
46363W        W55163  23.943   1.510  22.123 -0.0978 -0.1155  0.0888
46364W        W55164  19.727   3.030   2.099 -0.1706  0.3445  0.0356
46365W        W55165   8.255   6.877  27.394  0.1279 -0.0216 -0.2034
46366W        W55166  17.356   6.835  14.359  0.1710 -0.2881 -0.0517
46367W        W55167   3.334   7.700  23.980  0.0087 -0.1491 -0.1142
46368W        W55168   4.839   2.066  31.791 -0.0500 -0.2208 -0.1396
46369W        W55169  22.146   1.608   5.280 -0.1948 -0.1164 -0.0172
46370W        W55170   4.638   2.550  17.042 -0.2492 -0.1542  0.2339
46371W        W55171  13.151   0.874   1.253  0.0138 -0.1511 -0.2936
46372W        W55172   0.309   4.171  31.176  0.2349 -0.3091 -0.2107
46373W        W55173   9.920   3.431   4.434  0.1916  0.1975 -0.0122
46374W        W55174   3.650   6.963  29.166 -0.2968  0.0022  0.1239
46375W        W55175   1.469   6.883  31.068  0.0804 -0.2367  0.0614
46376W        W55176  20.087   1.766   2.184 -0.1979  0.3370  0.0125
46377W        W55177  21.918   4.020   2.482 -0.1120 -0.0582  0.2145
46378W        W55178  21.953   7.809  15.401  0.1767 -0.0290  0.4353
46379W        W55179  24.749   1.182  32.031 -0.2339  0.2002  0.0300
46380W        W55180  23.090   4.779   4.184 -0.0536 -0.0852  0.0209
46381W        W55181   5.421   4.982  10.269 -0.2366  0.4082 -0.4351
46382W        W55182  12.140   7.077  30.163 -0.0393  0.4126  0.1122
46383W        W55183  18.345   0.718   2.146 -0.1606 -0.2414 -0.0440
46384W        W55184  23.599   6.488   2.376  0.1306 -0.1143 -0.0033
46385W        W55185  23.465   3.503   7.846  0.2094  0.1324  0.1759
46386W        W55186  19.314   6.590   2.026  0.2940 -0.2034  0.1082
46387W        W55187   3.775   6.820  25.483  0.2663  0.1865  0.1537
46388W        W55188  10.567   1.143  19.274  0.0268 -0.0981  0.0391
46389W        W55189  12.952   0.664  28.310  0.0135  0.0383 -0.3466
46390W        W55190   6.859   5.487  32.305  0.0502  0.0978  0.2861
46391W        W55191  24.126   6.920  13.482  0.1337  0.0023  0.1852
46392W        W55192   0.782   2.460   7.044  0.5020 -0.1372  0.1133
46393W        W55193  20.536   4.649  15.722 -0.0393 -0.3243 -0.0007
46394W        W55194  15.898   1.693   6.340 -0.0997 -0.2997  0.0091
46395W        W55195  21.890   6.799  10.737  0.4774 -0.1993 -0.0238
46396W        W55196   5.596   0.098  10.183  0.1550 -0.3257 -0.0261
46397W        W55197  11.289   0.652  28.551 -0.0185  0.2161 -0.2287
46398W        W55198  23.464   4.424   9.021  0.1823  0.0377  0.0914
46399W        W55199   4.487   5.307   6.723 -0.1750  0.1924 -0.0042
46400W        W55200  23.861   2.797  23.512 -0.0223  0.0001  0.1560
46401W        W55201   6.569   3.165   1.316  0.2005 -0.2566 -0.1742
46402W        W55202  17.606   2.204   4.057  0.0614 -0.0947 -0.0205
46403W        W55203   7.806   0.623   2.470  0.0907 -0.1005  0.0065
46404W        W55204   7.239   1.201  29.109  0.0102  0.0636  0.0915
46405W        W55205  16.083   4.763   2.227 -0.2263  0.0255 -0.1923
46406W        W55206   3.641   7.450  30.293 -0.0012 -0.1910  0.0243
46407W        W55207  17.507   7.323  31.292 -0.3127  0.0946 -0.0768
46408W        W55208  11.291   3.201   6.236 -0.1716  0.0208 -0.2317
46409W        W55209  18.139   6.962   5.786  0.2629  0.2660  0.0983
46410W        W55210  13.250   5.733  26.714 -0.0633  0.0902 -0.4238
46411W        W55211  25.025   5.735  29.771 -0.0111  0.0476 -0.1519
46412W        W55212   3.452   5.624  30.022  0.1138 -0.0803  0.0397
46413W        W55213  20.244   1.283   2.701  0.0308 -0.0403 -0.0475
46414W        W55214   7.148   1.905  25.683  0.0024 -0.1166  0.1397
46415W        W55215  21.826   4.116   0.699  0.0393 -0.0595  0.1748
46416W        W55216   3.203   4.577   2.749 -0.1062 -0.0768  0.3156
46417W        W55217  13.616   4.426  13.071 -0.2573 -0.1817 -0.2324
46418W        W55218   9.417   0.522   3.931 -0.2510  0.0233  0.0311
46419W        W55219  12.283   4.095  26.676 -0.1369 -0.1198 -0.2075
46420W        W55220  19.817   4.235  27.394  0.2090  0.0626 -0.1263
46421W        W55221   1.222   3.894   4.093 -0.0782  0.5358 -0.0557
46422W        W55222   6.320   6.325   3.381  0.2157 -0.1642  0.0540
46423W        W55223  16.832   0.507  13.397 -0.0137  0.0479  0.0111
46424W        W55224  24.182   5.546  29.228  0.1476 -0.1202  0.1852
46425W        W55225  13.556   4.581  26.372 -0.0592  0.1320 -0.2729
46426W        W55226  15.750   4.213   6.689  0.0994 -0.1425 -0.2410
46427W        W55227   3.675   7.655   5.206  0.0542  0.2109  0.0891
46428W        W55228  22.811   6.434  27.943  0.0533  0.0553 -0.1584
46429W        W55229  16.108   3.788   2.026  0.2455 -0.1148 -0.4315
46430W        W55230  25.150   2.959   6.740 -0.2950 -0.0067 -0.2970
46431W        W55231   5.655   3.954  18.170 -0.0090 -0.1218  0.1399
46432W        W55232  10.332   3.572  23.074 -0.1366 -0.2925  0.0409
46433W        W55233   3.983   2.542   4.598 -0.1231 -0.1867  0.0443
46434W        W55234   2.672   1.019  22.716  0.0395  0.0810  0.0885
46435W        W55235  14.357   5.356  31.898 -0.0957 -0.0417  0.0497
46436W        W55236   8.367   4.170  15.005  0.2528  0.0879 -0.1684
46437W        W55237  13.952   4.556  25.281  0.0830 -0.3478 -0.0659
46438W        W55238  14.943   2.580  22.062  0.0622  0.1923 -0.1512
46439W        W55239  12.791   2.714   4.040  0.0731 -0.1695 -0.1635
46440W        W55240  11.907   2.172   1.459 -0.1395 -0.0418 -0.2283
46441W        W55241  17.850   5.103   2.102  0.2227 -0.1612 -0.2421
46442W        W55242  24.993   1.155   3.328  0.1896  0.3814  0.1924
46443W        W55243  23.518   4.754   0.955 -0.0544  0.3579  0.0814
46444W        W55244  12.709   7.852  27.693  0.0483  0.4414  0.1013
46445W        W55245   6.976   5.445  28.957 -0.2277 -0.0122  0.0305
46446W        W55246   3.803   5.517  10.850  0.1802  0.0395  0.0738
46447W        W55247  16.491   7.240   4.895  0.3486  0.2478  0.1882
46448W        W55248  19.705   5.484  14.472  0.0912  0.2741  0.1551
46449W        W55249  11.619   4.576  23.160 -0.0710  0.0499 -0.1161
46450W        W55250   5.652   6.603   8.792 -0.0521  0.1127 -0.1438
46451W        W55251  10.995   5.314  29.742 -0.1284  0.0133  0.0637
46452W        W55252  14.442   0.644   1.953 -0.1944 -0.1237  0.0029
46453W        W55253  11.820   6.024  31.579  0.4258 -0.1053 -0.3676
46454W        W55254  10.902   5.497  31.582  0.1113 -0.3848  0.2039
46455W        W55255  13.785   6.491   3.968  0.0093  0.2746 -0.1664
46456W        W55256  23.360   1.910  23.662 -0.1393 -0.1102 -0.1643
46457W        W55257   6.830   1.081  28.881 -0.1129 -0.1442 -0.0834
46458W        W55258  18.966   6.167  32.094 -0.0126 -0.0462  0.3010
46459W        W55259   2.046   0.850  29.408 -0.0352 -0.0621  0.1207
46460W        W55260   6.403   3.640   4.325  0.0923  0.1437 -0.2417
46461W        W55261  22.854   0.054  24.131 -0.1823 -0.0525  0.0423
46462W        W55262  18.056   3.725   3.968 -0.2528  0.1351 -0.0731
46463W        W55263  10.986   2.432   1.285 -0.0073 -0.2016  0.0886
46464W        W55264  19.217   4.184   3.691  0.0347 -0.0405  0.0964
46465W        W55265  20.970   0.679  23.707 -0.0584  0.0318  0.0081
46466W        W55266  21.799   4.753   9.971 -0.0172 -0.1464 -0.2273
46467W        W55267   2.607   0.339  22.694 -0.1890 -0.2534 -0.1683
46468W        W55268  21.683   7.783   7.543  0.2417  0.0589 -0.1306
46469W        W55269  21.239   6.377  28.462 -0.4038 -0.1852  0.0344
46470W        W55270  10.555   6.292  16.976 -0.0115 -0.1086 -0.1606
46471W        W55271  19.030   5.353  23.943  0.0865 -0.0921  0.0856
46472W        W55272   0.561   5.637   3.833 -0.2592 -0.2032  0.2210
46473W        W55273  22.642   1.385  26.174  0.1493  0.2411  0.1837
46474W        W55274  10.726   1.724  16.815  0.1790  0.2789 -0.1612
46475W        W55275   9.804   2.164   4.590 -0.1911 -0.2495 -0.0799
46476W        W55276   2.081   5.619  18.060 -0.1940 -0.2134  0.0086
46477W        W55277   0.109   2.077   9.284 -0.0312  0.0989 -0.3747
46478W        W55278  17.870   2.974   1.621  0.3118 -0.0619  0.2217
46479W        W55279  24.140   2.877  32.319 -0.3418 -0.0696  0.2602
46480W        W55280   2.989   2.811   7.753  0.2089  0.0435  0.4171
46481W        W55281  10.418   5.342   4.000 -0.0234 -0.0226  0.1051
46482W        W55282  12.125   6.186   3.305  0.1308 -0.2013 -0.2079
46483W        W55283  10.112   6.645   1.770 -0.0608 -0.0492 -0.0666
46484W        W55284  12.492   1.312  20.368 -0.1293 -0.0208 -0.1638
46485W        W55285  21.735   0.568   7.613  0.1693  0.0093  0.0125
46486W        W55286  17.068   4.672  23.424 -0.0584 -0.1985 -0.2168
46487W        W55287  10.653   4.922  23.065 -0.0725  0.1460  0.0268
46488W        W55288  16.992   0.887  22.191 -0.1608  0.2398  0.0181
46489W        W55289   9.304   0.245   9.737 -0.1441 -0.2117  0.2849
46490W        W55290   1.922   7.042   4.039  0.0817  0.0055  0.0564
46491W        W55291  15.603   3.965  28.691 -0.2646  0.2582  0.0453
46492W        W55292  10.936   3.537   4.634  0.0281  0.4389  0.1467
46493W        W55293   0.806   0.467  23.420  0.1752 -0.0448  0.0749
46494W        W55294   1.761   3.432  24.373  0.1261 -0.0182 -0.2038
46495W        W55295   5.727   1.760  26.534  0.0310  0.1029  0.1549
46496W        W55296   6.186   7.214  25.236  0.0346  0.1209  0.3235
46497W        W55297   2.275   7.315  28.910 -0.3464  0.0761 -0.0822
46498W        W55298  22.742   0.599   4.862  0.0975  0.1034  0.2019
46499W        W55299  12.207   0.782   0.353 -0.1197  0.0805 -0.1154
46500W        W55300  24.761   1.100  21.997 -0.0615 -0.1880 -0.1028
46501W        W55301   2.755   0.512  32.076 -0.2265 -0.0218  0.1075
46502W        W55302   8.075   5.849  21.722 -0.2290  0.1259  0.3748
46503W        W55303  17.437   2.338  13.946 -0.0665 -0.4058 -0.0459
46504W        W55304  24.797   3.054   5.945  0.1768  0.1051 -0.0667
46505W        W55305  24.226   0.934  24.012  0.1184 -0.3599  0.2132
46506W        W55306  16.128   3.534  15.276 -0.0518 -0.0538 -0.0087
46507W        W55307  12.251   7.194  12.592 -0.0869 -0.2240  0.1148
46508W        W55308  24.330   3.866  25.540  0.1342 -0.0915 -0.4157
46509W        W55309   4.704   1.519  25.666 -0.0796  0.1501 -0.0310
46510W        W55310  20.136   5.314  13.155  0.0688 -0.1594  0.0454
46511W        W55311   8.831   4.506   4.432  0.0862  0.1439  0.0237
46512W        W55312   2.866   0.761  11.154 -0.1815 -0.2269  0.0062
46513W        W55313  14.624   0.581  32.483  0.1660 -0.0805  0.2713
46514W        W55314  21.003   4.933  24.597  0.0540 -0.0814  0.0161
46515W        W55315   4.634   3.108  19.137  0.0843 -0.1055  0.1320
46516W        W55316  13.424   0.144  21.163  0.1464  0.2193 -0.1201
46517W        W55317   0.947   6.237   2.859  0.2855  0.1871 -0.0243
46518W        W55318  20.303   1.107  23.300  0.1488 -0.3112 -0.2200
46519W        W55319  22.965   7.798  29.170  0.3096 -0.0395  0.0027
46520W        W55320   6.398   2.922   3.691  0.2487 -0.4054 -0.1592
46521W        W55321  14.315   5.293  21.922 -0.1521  0.0503 -0.1269
46522W        W55322   0.151   6.481   5.965 -0.0064 -0.0229  0.0905
46523W        W55323   0.085   2.171  25.657  0.0369  0.1977  0.0490
46524W        W55324   6.932   1.975  18.447  0.3653 -0.0882 -0.0413
46525W        W55325   2.793   0.009  26.226 -0.3560 -0.3910  0.2754
46526W        W55326  21.001   1.844  25.919 -0.2628 -0.0960  0.3693
46527W        W55327  21.283   4.766  29.862  0.1367  0.2329 -0.0743
46528W        W55328  22.049   2.382   9.978 -0.2442 -0.0756 -0.0676
46529W        W55329  10.507   6.139  18.628 -0.1820  0.1376 -0.6142
46530W        W55330  14.496   6.325   5.212  0.0922 -0.0300  0.1500
46531W        W55331   1.300   4.305  31.144 -0.0401 -0.0534 -0.2307
46532W        W55332  11.833   3.064  28.911 -0.1553 -0.1544 -0.2402
46533W        W55333   4.951   1.393  28.679  0.0071 -0.1575 -0.3170
46534W        W55334  16.261   7.539   7.265  0.0455  0.2748 -0.1797
46535W        W55335  23.855   7.157  14.734 -0.1395 -0.0941  0.2410
46536W        W55336  21.958   5.467  28.993  0.0163 -0.1784  0.0547
46537W        W55337  21.041   7.494   2.599 -0.0858 -0.3889  0.0502
46538W        W55338   4.763   3.782   5.840  0.1343 -0.2026  0.1967
46539W        W55339   4.678   0.587  16.834  0.1045  0.0686 -0.1044
46540W        W55340   1.598   4.733  19.723  0.1251  0.0244  0.2015
46541W        W55341   4.118   0.890   7.639  0.2541  0.2024  0.4707
46542W        W55342  10.282   5.468  16.901 -0.2452  0.1888  0.0638
46543W        W55343  15.109   7.628  10.304  0.1042 -0.3202 -0.0061
46544W        W55344  21.753   2.351   6.808 -0.0432  0.0780 -0.4424
46545W        W55345   2.883   4.466  26.834  0.3919  0.2708  0.1536
46546W        W55346  22.297   5.913  21.100 -0.0753 -0.4621 -0.1129
46547W        W55347  15.708   1.118  23.083  0.1094  0.0635 -0.0123
46548W        W55348  17.301   5.154  10.509  0.1194 -0.0839 -0.0955
46549W        W55349   6.929   6.023   5.680  0.0842  0.1160 -0.2332
46550W        W55350   2.796   4.039   7.779  0.0502 -0.2005  0.3215
46551W        W55351   9.147   5.746  15.383 -0.1774  0.0572 -0.4668
46552W        W55352   7.782   2.010  26.435  0.1488 -0.0486  0.0758
46553W        W55353  15.401   6.310  27.002  0.3663 -0.0166  0.0029
46554W        W55354  23.198   0.431  24.772 -0.2191  0.3836  0.0094
46555W        W55355   9.066   2.591   3.675 -0.2207  0.2576  0.0650
46556W        W55356   5.069   7.612   2.847  0.1046 -0.0234  0.1048
46557W        W55357  18.719   1.457   7.995  0.0955  0.0463 -0.0952
46558W        W55358   9.750   5.955   6.763  0.1766 -0.0556 -0.2307
46559W        W55359  15.035   7.471  24.523  0.2014  0.0602 -0.1501
46560W        W55360  21.764   7.447  25.859 -0.2252  0.4253  0.0284
46561W        W55361  15.439   1.723   7.063  0.0167  0.0931  0.5244
46562W        W55362  10.161   4.342  23.632 -0.0610  0.1351 -0.1452
46563W        W55363  19.173   5.289   4.408  0.0337 -0.2101  0.0521
46564W        W55364  21.550   5.875   9.987 -0.1884 -0.0496 -0.1099
46565W        W55365  22.636   7.493   1.731  0.2783  0.2166 -0.1869
46566W        W55366  23.478   1.006  14.604  0.1427  0.0887  0.0486
46567W        W55367  22.925   3.484   8.342  0.0130 -0.2007  0.1024
46568W        W55368   6.936   3.601  30.592 -0.0555  0.0529 -0.0166
46569W        W55369  22.754   6.958   9.739 -0.1059  0.2344  0.1953
46570W        W55370   6.177   6.844  20.617  0.0275 -0.2336 -0.0297
46571W        W55371   7.319   1.265  17.347  0.0968 -0.1286 -0.2008
46572W        W55372  22.016   4.977   9.073 -0.1457 -0.3504  0.2613
46573W        W55373  16.518   4.288  15.550  0.2182  0.1060 -0.0841
46574W        W55374   5.718   2.728  25.471  0.1547 -0.2294 -0.2246
46575W        W55375   1.484   4.784  27.127  0.1243  0.1336  0.6350
46576W        W55376  16.587   5.605  30.298  0.0949  0.0034  0.1235
46577W        W55377  12.800   4.074   3.895  0.2063 -0.0747 -0.1784
46578W        W55378  17.961   3.784   5.460  0.0733  0.0327 -0.1486
46579W        W55379  17.828   2.097   9.748 -0.1657 -0.2499  0.1962
46580W        W55380   3.709   1.966  29.066 -0.1313 -0.1567 -0.3556
46581W        W55381   6.790   3.879   7.162 -0.2495  0.1549  0.0098
46582W        W55382  13.501   0.807  27.136 -0.0248 -0.1384 -0.1346
46583W        W55383  10.333   0.895  23.131 -0.2536 -0.1986 -0.1955
46584W        W55384  18.295   5.166   7.200  0.1900 -0.1854  0.0223
46585W        W55385  14.597   1.675  21.663  0.3447 -0.2384 -0.2865
46586W        W55386  15.439   3.849   4.748 -0.0573 -0.1320 -0.0952
46587W        W55387   9.065   4.694  32.277 -0.1989  0.3346  0.1650
46588W        W55388  22.100   6.545  29.771  0.0677  0.0180  0.0487
46589W        W55389  17.733   5.934   8.978 -0.0442  0.4863  0.2234
46590W        W55390  17.284   4.082   2.444  0.1116 -0.3912 -0.0368
46591W        W55391   5.409   0.847  10.644  0.1466  0.1457  0.2547
46592W        W55392   1.182   6.983   8.462  0.0327 -0.2007 -0.0550
46593W        W55393  23.142   7.044   7.268 -0.1374  0.0131  0.2515
46594W        W55394   9.813   6.822   2.870 -0.1352  0.0289  0.0250
46595W        W55395  21.436   3.684   9.936 -0.1709  0.2678  0.1052
46596W        W55396   3.494   5.718  17.404 -0.1323 -0.1419 -0.2143
46597W        W55397   5.786   6.315   6.008  0.2848 -0.0921  0.0399
46598W        W55398  23.424   3.666   8.296  0.1781  0.1511  0.0530
46599W        W55399  18.687   3.400   9.844 -0.0541 -0.4710 -0.4115
46600W        W55400   3.789   5.663  32.344 -0.3322  0.1454 -0.5433
46601W        W55401  18.740   1.325  26.276 -0.2633 -0.0254  0.2051
46602W        W55402  24.397   0.505  27.177  0.0739  0.1922 -0.0675
46603W        W55403  21.490   4.108   9.197 -0.1063 -0.1298 -0.1986
46604W        W55404   1.843   1.832   7.737  0.0302 -0.0640  0.1064
46605W        W55405  20.165   7.425   7.604 -0.1312  0.0958 -0.1199
46606W        W55406  17.068   2.376   8.483 -0.1321  0.3490 -0.2278
46607W        W55407  24.390   5.431  27.015 -0.0829 -0.1385 -0.1952
46608W        W55408   4.341   0.986   3.172  0.0852  0.0268 -0.3783
46609W        W55409  18.615   3.568  25.852 -0.2745  0.1692  0.0519
46610W        W55410  11.412   5.700  20.737  0.0513 -0.1735  0.0150
46611W        W55411   4.448   5.035  27.228  0.0319 -0.2214 -0.0143
46612W        W55412  20.352   5.847  15.840 -0.0723  0.2454 -0.2288
46613W        W55413  13.960   3.213  24.989 -0.1931  0.1443 -0.1630
46614W        W55414  17.135   5.972   6.514  0.0202 -0.2154 -0.2848
46615W        W55415   9.593   4.815  29.407  0.1898 -0.0678  0.0650
46616W        W55416  11.168   0.439  26.118 -0.0146  0.0600 -0.0472
46617W        W55417   8.654   4.415   6.401 -0.0127 -0.3970  0.0025
46618W        W55418  10.527   6.835   5.162  0.2599 -0.0637 -0.0150
46619W        W55419  14.754   0.112   7.219 -0.3542  0.0830  0.1926
46620W        W55420  21.159   1.716   2.758 -0.2444 -0.4152 -0.0709
46621W        W55421  22.388   1.037  24.959  0.0532  0.0629  0.2726
46622W        W55422  24.044   7.854   9.699 -0.1594 -0.1900  0.2393
46623W        W55423   7.863   7.603   5.868 -0.1213  0.0335 -0.0845
46624W        W55424  15.463   7.141  30.020 -0.0953 -0.0460  0.0855
46625W        W55425  18.590   2.130   6.012 -0.0360 -0.4071 -0.2474
46626W        W55426  14.818   1.317  15.210  0.0193  0.0618 -0.0817
46627W        W55427   3.709   2.632  29.239 -0.1770 -0.1006  0.1795
46628W        W55428  14.291   3.906  26.051 -0.1817 -0.1998 -0.0804
46629W        W55429   0.445   4.254  29.134  0.1132  0.2004 -0.1523
46630W        W55430  20.872   3.029  27.246 -0.0221 -0.0621 -0.2760
46631W        W55431   8.778   0.747   5.364 -0.0480 -0.0774  0.0820
46632W        W55432  18.997   4.399  10.729 -0.4404  0.0674  0.0781
46633W        W55433  10.889   0.748  17.479 -0.2749  0.0051  0.2003
46634W        W55434   8.107   2.098   1.214  0.2138 -0.2043  0.1049
46635W        W55435   9.458   6.835  31.169  0.2693  0.1007 -0.0173
46636W        W55436  21.992   3.920  15.559  0.0252  0.1803 -0.3353
46637W        W55437   8.788   4.603   2.487 -0.0569  0.2110 -0.1536
46638W        W55438   6.493   7.512   7.778 -0.0240 -0.2850  0.0150
46639W        W55439  21.881   6.354  26.600 -0.2234  0.1313 -0.2734
46640W        W55440  15.857   4.422  14.242 -0.0047 -0.0717  0.2373
46641W        W55441  23.086   5.479   9.154 -0.0155  0.2623 -0.1502
46642W        W55442  18.066   5.495   6.929 -0.1183 -0.2708  0.0582
46643W        W55443  18.798   1.665  23.647 -0.0958 -0.2226 -0.0418
46644W        W55444  21.834   7.640  23.676  0.0357 -0.0443 -0.1294
46645W        W55445   3.140   4.793   4.019  0.0353  0.0329  0.0754
46646W        W55446   3.929   6.151  19.450 -0.1926  0.0506  0.2201
46647W        W55447   3.784   4.570  15.165  0.2199 -0.0455 -0.0560
46648W        W55448  22.292   5.350  11.959 -0.2065  0.0484  0.0524
46649W        W55449  11.409   2.208  24.405  0.0607 -0.1898  0.2522
46650W        W55450  19.639   6.014   8.043  0.0723  0.0386 -0.1164
46651W        W55451  17.746   3.498  24.584 -0.0229  0.1511  0.1403
46652W        W55452  11.117   4.226  27.039  0.1183 -0.1425 -0.1635
46653W        W55453   4.078   2.097   6.274  0.0306 -0.0849 -0.2882
46654W        W55454  19.118   7.151   4.639 -0.0720 -0.1549  0.1194
46655W        W55455   5.522   3.507   7.249  0.3755  0.0734  0.0243
46656W        W55456  23.195   0.670  28.886 -0.1730 -0.0463  0.0304
46657W        W55457  22.720   1.557   5.232 -0.1707 -0.1321  0.2485
46658W        W55458  10.352   7.539   7.945  0.1814 -0.1406 -0.2606
46659W        W55459  20.366   0.326  28.262 -0.3813 -0.1460 -0.2316
46660W        W55460  13.252   7.215  10.762  0.2138 -0.1886 -0.0589
46661W        W55461  21.481   2.954  31.125  0.0133  0.0498 -0.1573
46662W        W55462  24.678   6.473  11.121 -0.1066  0.1512  0.1189
46663W        W55463  12.630   3.055  22.953  0.0402 -0.1197  0.0389
46664W        W55464   6.703   3.219  19.347 -0.0113  0.2398 -0.1703
46665W        W55465   4.557   1.609   8.202 -0.1036 -0.1340  0.1310
46666W        W55466  10.218   6.701   0.304  0.0313  0.0379  0.1472
46667W        W55467  10.669   3.860  29.676 -0.2125 -0.0364 -0.2073
46668W        W55468  14.346   5.351   4.794  0.0392 -0.0806  0.2674
46669W        W55469  22.213   6.808   9.000  0.3840 -0.2330 -0.1083
46670W        W55470  13.408   7.646   4.834 -0.0585 -0.0786  0.0151
46671W        W55471  17.587   4.321  25.199  0.2232  0.1045 -0.1144
46672W        W55472  17.883   0.244   0.734  0.1443 -0.1627  0.0194
46673W        W55473  16.811   5.587  15.502  0.2836  0.0943  0.0476
46674W        W55474  10.049   1.346  26.151 -0.1667 -0.2595 -0.1882
46675W        W55475   6.999   7.169   5.932 -0.1989  0.0960  0.0101
46676W        W55476   8.180   0.387  29.195 -0.3110  0.0629  0.0354
46677W        W55477  13.081   3.658  31.273  0.2535 -0.1182  0.1473
46678W        W55478  13.108   4.185  11.585  0.1715 -0.1806  0.0319
46679W        W55479   9.978   7.102  25.236  0.1850 -0.0746 -0.1454
46680W        W55480  17.667   6.063   4.211  0.0896  0.1340 -0.0750
46681W        W55481   2.322   1.198  30.278 -0.0418  0.0347  0.0262
46682W        W55482   3.671   3.095  23.336 -0.2528 -0.4061  0.0308
46683W        W55483   6.054   2.671  30.130  0.1673  0.1568  0.0139
46684W        W55484  15.876   0.274   8.271 -0.0546 -0.1496  0.2482
46685W        W55485   0.266   6.058   5.631  0.1796 -0.1514 -0.1389
46686W        W55486   3.186   0.413  16.932 -0.1147 -0.1706  0.4214
46687W        W55487  13.048   1.309   5.487  0.1515  0.0981 -0.1155
46688W        W55488  13.575   1.549  13.087 -0.1722  0.2487  0.0371
46689W        W55489   5.332   4.858   9.379 -0.0203 -0.0184  0.1770
46690W        W55490   7.287   3.890   1.421 -0.2567 -0.2638  0.3819
46691W        W55491   5.745   7.413  25.684  0.0256 -0.1088  0.0723
46692W        W55492  14.357   7.007  29.334 -0.1288  0.1885  0.1485
46693W        W55493   4.895   6.477   3.707 -0.0535 -0.0913 -0.0442
46694W        W55494  19.887   2.732   7.478  0.0170 -0.0857  0.0700
46695W        W55495   9.958   1.492   1.701  0.2493 -0.1880 -0.1472
46696W        W55496  22.579   1.012  25.800 -0.0262 -0.2905  0.0090
46697W        W55497  14.318   6.589  32.527 -0.0286 -0.0424 -0.0001
46698W        W55498   9.807   2.301  27.222 -0.1486 -0.1404 -0.1628
46699W        W55499  23.325   5.969  29.612 -0.2763  0.0936 -0.1783
46700W        W55500   2.545   4.599  25.558 -0.3182 -0.4028  0.1130
46701W        W55501   7.597   1.259   1.162 -0.2003 -0.0447  0.2774
46702W        W55502   1.946   0.307  30.622  0.3099  0.0221  0.2636
46703W        W55503   7.355   3.288  16.127 -0.1773  0.0843  0.2070
46704W        W55504  12.970   0.238  28.623  0.0028 -0.2472 -0.1377
46705W        W55505   1.001   2.624  29.015  0.1970  0.0364 -0.0463
46706W        W55506  24.217   6.302  15.297  0.0952 -0.0176  0.2071
46707W        W55507  24.339   6.874   1.422  0.2152 -0.1253  0.1290
46708W        W55508  23.031   5.581   7.613 -0.2736  0.1036  0.1757
46709W        W55509  24.508   5.096   6.550 -0.3032  0.1501 -0.3036
46710W        W55510   9.770   0.110  22.774 -0.2173  0.3149 -0.1594
46711W        W55511   0.906   4.408  10.861 -0.0987 -0.0525  0.0681
46712W        W55512  14.741   3.605  12.457 -0.3302 -0.0826  0.2051
46713W        W55513  12.464   1.158  23.321 -0.1193 -0.0205 -0.0631
46714W        W55514  20.001   7.484  29.339  0.3329  0.2177 -0.1112
46715W        W55515  13.208   6.348  26.705  0.1596 -0.1916  0.2697
46716W        W55516  24.992   3.720  12.109  0.1170  0.2829 -0.3117
46717W        W55517  19.641   6.949  23.371  0.0439  0.2451  0.1481
46718W        W55518   7.491   0.837  13.663 -0.1253 -0.0020  0.1273
46719W        W55519  18.066   4.283   9.846  0.0832 -0.0227  0.1605
46720W        W55520   2.861   1.990  25.424  0.2103  0.0741  0.1222
46721W        W55521  17.969   2.615  15.822  0.2257 -0.0657  0.2814
46722W        W55522   2.821   5.978  20.370  0.2541 -0.0885  0.0193
46723W        W55523  24.255   6.564   0.879  0.3204  0.2259  0.2039
46724W        W55524  16.030   2.717   5.207  0.2096  0.0221 -0.1309
46725W        W55525  12.506   2.654  28.124 -0.2198 -0.3504 -0.2150
46726W        W55526  14.808   1.320   8.579  0.2587 -0.2910  0.0921
46727W        W55527   3.819   5.439  29.285 -0.0136  0.1165 -0.0195
46728W        W55528  20.415   2.331   0.703  0.2459 -0.3349 -0.0748
46729W        W55529   7.426   0.085   1.605  0.4206  0.2293 -0.1301
46730W        W55530  21.482   3.312   3.833  0.2300  0.0835 -0.2003
46731W        W55531   1.630   2.847   6.259  0.0419 -0.2728 -0.2130
46732W        W55532  10.392   3.081  22.803 -0.1354  0.2642 -0.0506
46733W        W55533  10.536   5.898   0.922 -0.0081  0.1825  0.0654
46734W        W55534  19.002   2.921   3.136 -0.1719 -0.0257 -0.2599
46735W        W55535   3.204   5.020   2.994 -0.0859  0.0340 -0.0853
46736W        W55536  21.205   2.126   0.804  0.0412  0.0931  0.3619
46737W        W55537  17.082   1.417  31.800  0.0848 -0.0153 -0.1355
46738W        W55538  13.446   0.051   3.817  0.2707  0.0611 -0.0097
46739W        W55539   8.571   3.454   7.817 -0.0279 -0.3047  0.1351
46740W        W55540  20.477   0.634  12.780  0.1578 -0.0990 -0.2836
46741W        W55541   9.651   4.576   5.476  0.2480 -0.1935 -0.1623
46742W        W55542  19.301   5.165   7.196 -0.1635  0.2413 -0.0997
46743W        W55543  14.738   2.210   1.210  0.1466 -0.3559  0.1354
46744W        W55544  11.543   6.960   5.171 -0.1570 -0.2221  0.2007
46745W        W55545  14.512   2.619  23.488  0.4247 -0.2321  0.0202
46746W        W55546   0.050   4.770  28.682 -0.2250  0.1892  0.1039
46747W        W55547  15.389   6.648   0.466  0.0924  0.2691 -0.1115
46748W        W55548   9.602   3.892   1.489 -0.2788 -0.2342 -0.1808
46749W        W55549  12.981   6.695  32.245 -0.0833 -0.1221 -0.0522
46750W        W55550  16.572   2.650   9.819 -0.1318 -0.0445  0.1345
46751W        W55551   2.210   6.920  19.179 -0.0109 -0.2018 -0.1171
46752W        W55552   3.007   3.606   4.927 -0.1767  0.0101 -0.2548
46753W        W55553   5.370   6.617  31.785 -0.0434  0.0389 -0.1083
46754W        W55554  10.425   6.854   3.435 -0.1311 -0.2270 -0.1983
46755W        W55555   9.831   2.959  22.368 -0.1320  0.0311  0.1364
46756W        W55556  12.360   7.309  23.574 -0.3710 -0.1244  0.1575
46757W        W55557   4.705   1.826  24.722 -0.1611  0.1973 -0.2617
46758W        W55558   5.172   4.772   9.860 -0.0863  0.0475  0.2248
46759W        W55559   3.885   6.054   5.857 -0.1001 -0.0671  0.1466
46760W        W55560  11.586   3.617   6.770 -0.3063 -0.1167  0.0710
46761W        W55561  15.242   2.146  11.687  0.2294  0.0428  0.0193
46762W        W55562   4.289   7.456   2.194 -0.2062 -0.2390 -0.3621
46763W        W55563  22.203   2.374  24.412 -0.1454  0.2961 -0.0700
46764W        W55564  24.619   6.243  22.467  0.0049  0.3601  0.4337
46765W        W55565   7.693   2.530   4.287 -0.0434  0.1332  0.0506
46766W        W55566  15.545   2.780  31.256 -0.1058 -0.2559 -0.2831
46767W        W55567   6.742   3.999  24.470  0.0263 -0.3093 -0.2522
46768W        W55568  19.215   7.591   0.697  0.3266  0.1527  0.3390
46769W        W55569  20.324   6.059  25.019 -0.0133  0.1744  0.2457
46770W        W55570  16.241   6.841   3.767  0.0491  0.0809  0.2968
46771W        W55571   6.848   1.987  29.726  0.0836 -0.1218 -0.1138
46772W        W55572  22.126   4.968   4.161 -0.0316 -0.1457 -0.1413
46773W        W55573  22.514   5.082  10.211  0.2919  0.2334 -0.2889
46774W        W55574  15.236   4.945   6.713 -0.1701  0.0424  0.0889
46775W        W55575  18.521   3.139  25.539 -0.0353 -0.0451 -0.0173
46776W        W55576  19.033   7.850  30.910  0.0694  0.0875  0.1130
46777W        W55577  12.068   7.206  31.130  0.1163  0.1020 -0.2105
46778W        W55578  20.175   5.274  12.649  0.1904  0.1047  0.0029
46779W        W55579  20.825   4.815  23.327 -0.0683 -0.1349  0.0704
46780W        W55580  23.039   1.646   8.600  0.3452  0.0515 -0.0054
46781W        W55581  23.012   2.507   9.758  0.0672  0.1425 -0.1484
46782W        W55582   9.696   5.978   4.958  0.2300 -0.0107  0.2453
46783W        W55583   1.263   2.218  18.260 -0.3149 -0.1093  0.0199
46784W        W55584   4.915   4.299   5.831 -0.1622 -0.1771 -0.1160
46785W        W55585  11.084   1.984  28.583 -0.3479  0.1506  0.0173
46786W        W55586  21.054   3.651  25.596  0.0165 -0.2207  0.0685
46787W        W55587  13.612   1.612  24.008 -0.0944 -0.0686  0.0273
46788W        W55588  12.832   5.189   0.446 -0.0166 -0.1291  0.0998
46789W        W55589  23.235   7.167   6.787  0.2934 -0.2614  0.1335
46790W        W55590  15.620   4.077  25.569 -0.0462  0.0973 -0.2447
46791W        W55591  16.753   5.848  26.929  0.0683  0.1767 -0.0412
46792W        W55592  19.687   4.001   9.267 -0.1972 -0.2560 -0.0758
46793W        W55593  19.919   4.731  25.791 -0.0240  0.0934  0.0352
46794W        W55594  11.993   5.892  11.184  0.0368 -0.1234  0.0469
46795W        W55595   3.058   3.952   4.543  0.1617  0.0940 -0.2776
46796W        W55596   4.548   5.824  19.731  0.1208  0.0278 -0.2708
46797W        W55597  14.978   7.325  30.730  0.0291  0.0096 -0.1502
46798W        W55598  17.423   4.404  15.855  0.0382  0.1230  0.0220
46799W        W55599  15.923   3.418  27.720 -0.1290  0.1517 -0.3376
46800W        W55600  24.975   4.203   5.677 -0.0009 -0.0341 -0.2499
46801W        W55601   0.596   6.574   3.081  0.2390 -0.1575  0.2165
46802W        W55602  19.295   4.062  24.754 -0.1847 -0.1556  0.0499
46803W        W55603   1.957   1.808  20.516  0.3204  0.0572 -0.0525
46804W        W55604   0.736   1.229   3.470  0.1442 -0.1570 -0.2220
46805W        W55605   7.967   5.549  16.077  0.2089 -0.3771  0.0005
46806W        W55606   1.184   7.639   6.809 -0.0795 -0.1797  0.1111
46807W        W55607  18.259   6.919  27.349  0.0225  0.2648  0.1622
46808W        W55608  14.168   5.339  13.746 -0.2801  0.0459 -0.3678
46809W        W55609  17.658   3.600  28.116  0.1114  0.0816  0.0458
46810W        W55610  10.859   3.768  26.827 -0.1513  0.0585  0.3840
46811W        W55611  17.397   2.913  11.668 -0.1100  0.4347  0.1436
46812W        W55612  23.402   6.569  11.684 -0.0496 -0.2526 -0.0080
46813W        W55613   2.606   6.730   4.331  0.1622 -0.1867  0.2374
46814W        W55614  21.244   3.324  10.643  0.2624  0.1691 -0.1276
46815W        W55615   0.514   0.711   5.085  0.0264 -0.1765 -0.1328
46816W        W55616   0.559   2.403  22.982  0.0569  0.1886 -0.0468
46817W        W55617  23.555   3.494  15.577  0.2743 -0.0552 -0.1698
46818W        W55618  13.699   3.754   0.480 -0.2311 -0.0855 -0.0868
46819W        W55619  16.261   1.641  30.169 -0.0199  0.1420  0.1724
46820W        W55620  25.006   5.072  25.502 -0.2527 -0.1465  0.1390
46821W        W55621   6.440   1.143  18.840  0.5232 -0.3876 -0.2463
46822W        W55622  18.228   5.977  31.445  0.0792  0.2426  0.0685
46823W        W55623  10.529   0.004   9.691 -0.0022 -0.0483 -0.4389
46824W        W55624   9.524   1.767   4.539  0.0058  0.2289 -0.1761
46825W        W55625   7.868   6.884   8.298 -0.0543  0.0286 -0.0022
46826W        W55626  14.418   1.145  22.720 -0.1254  0.1575  0.1894
46827W        W55627  22.276   6.197  22.512 -0.3892 -0.2123  0.3101
46828W        W55628   7.537   4.819  27.842 -0.0163  0.2173 -0.1659
46829W        W55629  13.000   3.997  24.282 -0.2749  0.1606  0.0594
46830W        W55630  14.952   5.351  30.572  0.1505 -0.0017  0.2806
46831W        W55631  11.047   0.259  28.322 -0.2898 -0.3729  0.2621
46832W        W55632  22.103   2.811  14.835  0.1441 -0.1234  0.0615
46833W        W55633  23.712   0.492  10.852 -0.2934  0.2744 -0.4546
46834W        W55634  13.773   2.137  29.637 -0.2183  0.0855  0.2356
46835W        W55635   9.215   0.968  23.524 -0.1222  0.1889  0.1505
46836W        W55636   3.623   4.040  25.754 -0.3894 -0.2660 -0.0198
46837W        W55637   9.410   0.124   7.706  0.1603 -0.0561  0.0434
46838W        W55638   5.243   5.754  27.429  0.1977 -0.1371  0.0260
46839W        W55639   4.375   2.401   4.312 -0.1806  0.2341 -0.0876
46840W        W55640  17.727   7.042  14.031 -0.0950  0.2602 -0.1501
46841W        W55641   2.182   4.832  17.709  0.1578 -0.0841  0.0364
46842W        W55642  19.924   0.887  23.660 -0.3556 -0.0596 -0.1800
46843W        W55643  23.513   2.984  13.540  0.0224  0.0669  0.0293
46844W        W55644   5.059   3.352   3.769  0.1580 -0.0670  0.1542
46845W        W55645  12.993   6.801   2.653 -0.1981 -0.0243 -0.0790
46846W        W55646  24.562   5.843  29.107 -0.2440 -0.3257 -0.0521
46847W        W55647   9.118   2.177  30.402  0.0229  0.0393  0.0552
46848W        W55648  14.107   7.034  31.685 -0.0032 -0.2072  0.3057
46849W        W55649  10.325   3.506  16.740 -0.2810 -0.3051  0.0686
46850W        W55650   8.620   6.476  15.080  0.2651 -0.1953 -0.2527
46851W        W55651  14.390   1.472   0.707 -0.1537 -0.0286  0.2707
46852W        W55652  23.084   0.800   9.717 -0.2077  0.1548  0.0028
46853W        W55653  24.421   3.596   7.473 -0.0443 -0.0395  0.2220
46854W        W55654   3.383   2.654  20.114 -0.1867 -0.0479  0.3470
46855W        W55655  20.208   7.759   9.779  0.0211 -0.0000 -0.0466
46856W        W55656   9.389   6.301  31.143  0.1214 -0.0941 -0.1985
46857W        W55657   3.424   4.525  28.298 -0.0547  0.0908 -0.1275
46858W        W55658   2.404   2.907   6.706  0.2513 -0.1085  0.0336
46859W        W55659  10.633   4.081  28.306  0.0993 -0.0253 -0.3078
46860W        W55660  20.170   2.764  11.354  0.2424 -0.1614 -0.1079
46861W        W55661   7.724   7.538  22.797 -0.0601  0.1186 -0.1560
46862W        W55662   6.515   6.997  26.769  0.2863 -0.0558 -0.0107
46863W        W55663  19.072   4.071  13.328  0.0147 -0.3272 -0.0285
46864W        W55664  16.230   6.686  31.172  0.2708 -0.3827 -0.1353
46865W        W55665  24.970   7.776  10.805  0.3137  0.0321 -0.0081
46866W        W55666  24.162   0.723  13.836 -0.0490 -0.0805 -0.1494
46867W        W55667  13.884   6.049  11.922 -0.0996  0.2018 -0.2839
46868W        W55668  13.837   7.228  30.044  0.1190 -0.0724 -0.0877
46869W        W55669  20.402   0.795   8.294  0.0150  0.3997 -0.0494
46870W        W55670   6.900   0.440   4.027 -0.0152  0.3232 -0.2192
46871W        W55671  15.529   5.445  12.164  0.4939  0.0393 -0.1723
46872W        W55672  15.442   2.273  14.907 -0.1919  0.2483  0.1793
46873W        W55673  20.820   5.433  31.701 -0.2262 -0.0682  0.3055
46874W        W55674  12.195   0.836   4.339  0.0888 -0.0801 -0.0592
46875W        W55675  17.643   0.965  13.218 -0.0857  0.0482  0.0327
46876W        W55676  17.891   0.015  28.768 -0.0751 -0.1566  0.2251
46877W        W55677  12.425   4.168  18.803 -0.0144  0.0608  0.1625
46878W        W55678   5.769   7.515   6.371 -0.1733 -0.3489  0.0294
46879W        W55679   9.763   7.693   1.281 -0.2181 -0.0884  0.2829
46880W        W55680   2.234   1.315  29.663 -0.1524  0.0119 -0.1959
46881W        W55681   2.724   1.880  11.267  0.0520 -0.2311 -0.1229
46882W        W55682   0.777   5.719  13.789  0.1335 -0.0125  0.0612
46883W        W55683  23.260   3.794   6.327  0.0122  0.1285  0.2598
46884W        W55684  13.120   6.994  21.374 -0.0418 -0.4514 -0.1744
46885W        W55685   4.414   6.124  22.401  0.2260 -0.1184  0.1463
46886W        W55686  15.298   2.290  32.278  0.0382 -0.0059 -0.3263
46887W        W55687   0.508   4.014  11.423  0.0521  0.0689 -0.2469
46888W        W55688  23.584   6.533  10.762  0.0790  0.1747  0.1076
46889W        W55689  10.136   4.019  29.266  0.0399  0.1439  0.0132
46890W        W55690  24.618   1.408   0.765 -0.1923  0.1555  0.1074
46891W        W55691   1.650   0.625  29.183  0.0486  0.0194  0.0978
46892W        W55692   4.756   5.960  15.585 -0.2086  0.0963  0.1071
46893W        W55693  18.130   0.173  12.834 -0.4329  0.1780 -0.0773
46894W        W55694   9.713   6.973   2.352  0.1401  0.0564 -0.1886
46895W        W55695   9.035   7.690  28.382 -0.2927  0.0724 -0.1720
46896W        W55696   5.308   6.465  32.294 -0.0508 -0.1625  0.0201
46897W        W55697   6.204   5.887  23.434 -0.1357  0.0742  0.0151
46898W        W55698  12.380   2.766  30.152  0.1455 -0.0981  0.1618
46899W        W55699  13.908   6.782  10.714  0.2755 -0.2575 -0.1102
46900W        W55700   1.266   2.957   2.767 -0.0422  0.0110  0.0202
46901W        W55701  14.727   0.933   9.248 -0.0589  0.0496 -0.1141
46902W        W55702   9.539   1.240  28.273 -0.0311  0.2120  0.1020
46903W        W55703  16.619   1.254   2.813  0.1458 -0.2063  0.0373
46904W        W55704   2.072   2.426  18.855 -0.1819  0.0245 -0.0572
46905W        W55705  16.119   1.405   9.604  0.2439 -0.1903  0.2295
46906W        W55706  13.318   0.273   5.851  0.0167  0.1916 -0.0853
46907W        W55707  13.078   7.802  13.884 -0.2916  0.0752  0.1723
46908W        W55708  15.939   3.366  27.168 -0.0441 -0.1052  0.2995
46909W        W55709  24.645   0.569   2.227 -0.2319 -0.2387 -0.3420
46910W        W55710   4.810   0.346  24.948 -0.1020 -0.0089  0.2383
46911W        W55711   5.592   5.246   2.354 -0.1910 -0.0490 -0.0172
46912W        W55712  16.063   0.007   6.088  0.1232 -0.3082 -0.0833
46913W        W55713  20.552   7.297   2.419 -0.1808 -0.0586 -0.0808
46914W        W55714   5.523   2.124  29.418 -0.2052 -0.2605 -0.0320
46915W        W55715   0.331   4.683   0.014  0.2020  0.1489 -0.0943
46916W        W55716   1.964   0.468  32.058 -0.0974  0.0895 -0.1349
46917W        W55717  17.353   3.924  24.117 -0.2484 -0.0358  0.1759
46918W        W55718  24.195   0.419  20.862 -0.0985 -0.1399  0.2864
46919W        W55719  17.384   1.271  27.589 -0.1081 -0.1326  0.1709
46920W        W55720   1.111   4.728  23.349 -0.0045 -0.1080  0.4807
46921W        W55721  22.201   0.226   7.459 -0.0283  0.0758  0.0447
46922W        W55722  20.334   2.954  16.146  0.0222  0.0215 -0.0898
46923W        W55723   8.900   5.767  23.885 -0.1611 -0.1104 -0.1564
46924W        W55724   1.049   4.731  31.282 -0.0211  0.3514 -0.0356
46925W        W55725  21.657   5.545  26.191  0.1586  0.2952  0.3268
46926W        W55726  21.512   3.354  25.580  0.0444  0.2113 -0.0546
46927W        W55727   2.876   2.782  11.069  0.1868 -0.0977  0.1778
46928W        W55728  17.086   3.269   2.191  0.0386 -0.0568  0.0670
46929W        W55729  14.699   5.065  25.414 -0.1206  0.1774  0.0526
46930W        W55730  24.544   0.380  11.228  0.0088 -0.1217 -0.0081
46931W        W55731   4.942   0.359  20.950  0.1547  0.4064  0.3178
46932W        W55732  13.475   5.348  31.489 -0.2584 -0.2288  0.0680
46933W        W55733  16.705   3.618  12.367 -0.0117  0.1067  0.0555
46934W        W55734  10.824   6.266  11.317  0.0493 -0.1684 -0.0636
46935W        W55735  19.362   1.786  14.500 -0.2110 -0.1760 -0.0397
46936W        W55736  15.028   1.451  13.386  0.1229 -0.2756  0.2255
46937W        W55737  12.010   4.579  30.238 -0.0183  0.0146  0.1500
46938W        W55738   1.437   4.320   5.449  0.4581  0.0319  0.1900
46939W        W55739  24.863   0.667  27.268 -0.0896 -0.1035  0.0229
46940W        W55740   8.011   1.627  16.713  0.1814  0.2238  0.3403
46941W        W55741  16.027   4.498   2.927  0.1880 -0.4037  0.3562
46942W        W55742   3.683   1.929  22.430 -0.0045 -0.1599 -0.1151
46943W        W55743   0.726   1.803   1.839 -0.0593 -0.2583 -0.0594
46944W        W55744   0.688   6.016   4.320  0.1458 -0.1642  0.0952
46945W        W55745  10.183   5.957   7.261 -0.0648  0.0268 -0.0449
46946W        W55746   5.283   2.393  16.225 -0.0037 -0.0413  0.1226
46947W        W55747   3.648   6.264  21.830 -0.1876  0.1518 -0.1737
46948W        W55748   2.430   3.030  29.030 -0.2489  0.1500  0.1415
46949W        W55749  15.708   4.367   8.143  0.2563 -0.0335  0.3032
46950W        W55750  17.459   5.254   1.159 -0.2739 -0.0993 -0.2390
46951W        W55751   6.114   7.809  24.534 -0.0899  0.2408 -0.0092
46952W        W55752  11.119   4.097  25.080 -0.0078  0.0870 -0.3033
46953W        W55753  18.546   2.693  23.507  0.3028 -0.1245 -0.0271
46954W        W55754   3.166   6.667  27.009 -0.0119 -0.1877 -0.4021
46955W        W55755  24.935   2.163  21.861  0.1398 -0.0062  0.4769
46956W        W55756   4.030   4.949  25.561 -0.0115  0.2287  0.0535
46957W        W55757  19.805   6.413   6.211 -0.1579  0.0443  0.0166
46958W        W55758   0.002   0.326   2.472  0.1006  0.0357  0.1991
46959W        W55759  16.506   3.975   1.864 -0.0920 -0.0375  0.0352
46960W        W55760  11.183   4.928  10.433  0.2919  0.0240 -0.0905
46961W        W55761  15.028   5.303   2.389  0.1223  0.2058  0.2826
46962W        W55762  11.716   2.820  22.491  0.3381  0.0191  0.1292
46963W        W55763  18.042   5.927   2.237  0.1921  0.0932  0.0377
46964W        W55764  18.149   7.544  12.739 -0.0576  0.1991 -0.1912
46965W        W55765   6.942   0.471   8.758  0.2329  0.1427  0.1286
46966W        W55766   8.037   7.511  29.720  0.3139  0.0351 -0.2322
46967W        W55767   7.051   5.335  25.110 -0.0077 -0.0736 -0.1559
46968W        W55768   7.816   2.732  21.328  0.0376  0.0643 -0.2296
46969W        W55769  23.393   5.938  27.107 -0.1907  0.0938  0.0570
46970W        W55770   8.548   1.659  24.473 -0.1556  0.3385  0.5675
46971W        W55771  25.043   7.644   7.345 -0.2641 -0.1833  0.1765
46972W        W55772  10.723   6.854   2.607  0.0271  0.4345 -0.0341
46973W        W55773  22.534   3.631  10.468 -0.0481 -0.0495 -0.0942
46974W        W55774  19.570   2.292   7.392 -0.2405  0.2322 -0.0697
46975W        W55775  10.865   7.206  24.869  0.3233 -0.0593  0.0275
46976W        W55776  11.438   1.309  29.109 -0.0306 -0.1911  0.4008
46977W        W55777   8.917   3.875   2.261  0.1762  0.1022 -0.0352
46978W        W55778   7.171   5.441  14.836 -0.0212  0.1126 -0.2673
46979W        W55779  10.228   2.110   1.553 -0.0731  0.1342 -0.1287
46980W        W55780  12.584   2.402  26.023 -0.6244  0.2860  0.2420
46981W        W55781  19.249   5.967   9.853  0.0733  0.1320  0.0503
46982W        W55782  19.835   0.839   5.914 -0.1809 -0.1075  0.1644
46983W        W55783  19.663   4.297   3.361 -0.1541  0.1282  0.1434
46984W        W55784  14.264   7.548   9.419 -0.1255 -0.0673 -0.3627
46985W        W55785   9.203   1.369  21.863 -0.1347  0.0566  0.0527
46986W        W55786  10.267   6.904  25.622  0.0287 -0.0818  0.2029
46987W        W55787  13.298   6.203  22.906 -0.2338 -0.0420  0.2691
46988W        W55788  12.667   1.936   7.381 -0.0509 -0.2509 -0.4156
46989W        W55789   4.527   5.964  20.760  0.3525 -0.0499 -0.0837
46990W        W55790   5.890   1.883  16.576 -0.2667  0.0225 -0.1208
46991W        W55791   8.862   4.749   0.621  0.1341  0.1969 -0.3552
46992W        W55792  14.785   5.430  14.605  0.1563 -0.1117 -0.1049
46993W        W55793  24.838   6.582   0.553 -0.0542  0.1140  0.2351
46994W        W55794  14.347   1.359   9.426 -0.0660  0.1319 -0.1148
46995W        W55795  13.085   6.419  30.982  0.0263 -0.1442  0.2205
46996W        W55796   5.203   4.586  24.684  0.1246 -0.1164  0.1841
46997W        W55797  15.571   1.309  27.730  0.1687  0.0355  0.0359
46998W        W55798   1.164   3.439  31.030 -0.0395 -0.1184 -0.0664
46999W        W55799  22.381   1.132   2.562 -0.0995  0.0880 -0.1044
47000W        W55800  16.789   5.495  22.726  0.0998 -0.0081 -0.1766
47001W        W55801   4.187   2.485  27.750 -0.0176  0.3441 -0.1283
47002W        W55802   6.776   4.081  25.333  0.0929  0.0218  0.3155
47003W        W55803   9.725   3.627  24.621 -0.1630  0.2180  0.1071
47004W        W55804  15.123   0.658  22.042 -0.1466 -0.0180 -0.0269
47005W        W55805  14.203   1.616  28.628  0.0605 -0.1676 -0.1437
47006W        W55806   5.585   5.329  32.250  0.2798 -0.1521  0.1935
47007W        W55807   4.119   1.058  20.233  0.0267 -0.1901  0.0748
47008W        W55808  15.981   7.613  27.197  0.1394  0.1241 -0.0421
47009W        W55809  23.441   3.089  22.293 -0.2817  0.2964  0.2299
47010W        W55810   9.196   6.292  20.302  0.1972  0.0589  0.2669
47011W        W55811   9.900   6.123  19.232 -0.0845 -0.0323 -0.3089
47012W        W55812  21.065   7.433   8.940  0.2204 -0.2075 -0.0336
47013W        W55813   0.818   5.831  29.632 -0.0870 -0.3021 -0.0756
47014W        W55814  16.415   0.309   5.917  0.1291  0.0086  0.0086
47015W        W55815  24.254   6.668   2.889 -0.0156 -0.0212  0.0180
47016W        W55816  21.469   0.704  30.271  0.1759  0.2114  0.2615
47017W        W55817   6.649   7.212  19.881 -0.0930 -0.0507  0.1117
47018W        W55818   5.054   5.259  10.089 -0.1538  0.2557  0.0601
47019W        W55819   8.116   5.598  27.115  0.1832 -0.0420  0.3150
47020W        W55820   1.949   2.159  23.585 -0.2553 -0.0094  0.2962
47021W        W55821   1.812   6.838   5.642  0.1113  0.0664  0.1370
47022W        W55822  10.421   6.437  31.288 -0.0932  0.2022  0.1067
47023W        W55823  18.848   4.188  15.741 -0.0661  0.1147 -0.1030
47024W        W55824  23.371   2.150   2.914  0.4108  0.3176  0.2930
47025W        W55825   7.955   1.552  29.272  0.6693 -0.2459  0.2787
47026W        W55826   0.204   5.446   0.722  0.1540  0.0501 -0.3683
47027W        W55827  20.830   6.198   5.683  0.0638  0.0189  0.0524
47028W        W55828  10.219   6.469  10.718 -0.0148 -0.3325 -0.1465
47029W        W55829   1.469   0.925   4.952  0.1214 -0.0059 -0.2794
47030W        W55830  19.605   3.351   6.491  0.0728  0.0182  0.2936
47031W        W55831  18.294   0.391  28.701 -0.0660 -0.0276  0.0627
47032W        W55832  11.893   4.394   3.820  0.0857  0.0007 -0.0395
47033W        W55833  16.364   1.798  11.102 -0.0371 -0.1225  0.1222
47034W        W55834   2.608   1.291   1.685 -0.1784 -0.0932 -0.0855
47035W        W55835  19.059   2.226  27.649 -0.1456 -0.0161 -0.1790
47036W        W55836  17.754   3.318   1.958  0.0414 -0.1589  0.1934
47037W        W55837  11.612   5.138  25.494 -0.0286  0.0638  0.0642
47038W        W55838   3.069   5.989   5.049 -0.1666  0.1468 -0.2370
47039W        W55839  15.595   1.285   1.669 -0.0688 -0.1401 -0.0488
47040W        W55840  11.467   6.058   0.209  0.3512  0.2426 -0.0188
47041W        W55841  21.607   4.318  23.690  0.2252 -0.0165 -0.4467
47042W        W55842   2.386   2.534   6.375 -0.0194 -0.0438 -0.2474
47043W        W55843  14.916   6.963  21.956  0.0034 -0.1613 -0.0727
47044W        W55844  13.975   3.311  13.267 -0.1560  0.0900 -0.2087
47045W        W55845  10.403   4.657  22.673  0.0199 -0.0841  0.0013
47046W        W55846  19.856   6.880  30.600 -0.1084  0.3088  0.1756
47047W        W55847  15.427   2.338  12.071 -0.3530  0.0065  0.4010
47048W        W55848   5.340   5.330  31.453  0.0577 -0.1817  0.0331
47049W        W55849  12.654   5.240   8.113 -0.1843  0.0507 -0.4553
47050W        W55850  19.094   3.859  12.080  0.2793 -0.5870 -0.0558
47051W        W55851   0.926   3.360  21.933 -0.0325 -0.0763  0.0060
47052W        W55852   7.023   6.165   3.100  0.0915  0.0285 -0.1316
47053W        W55853  17.860   6.337  12.896  0.1782  0.1611 -0.1876
47054W        W55854   3.960   1.895  26.631  0.3445 -0.0484  0.0390
47055W        W55855   4.744   3.765  21.739  0.2243 -0.2363  0.1660
47056W        W55856  16.516   0.399  10.316  0.0913  0.1363  0.1599
47057W        W55857   8.072   2.952   2.068  0.1785 -0.4075 -0.4432
47058W        W55858  14.017   4.485   4.218  0.1643  0.2305  0.4565
47059W        W55859   8.291   0.008   4.028  0.0788  0.2542 -0.0596
47060W        W55860   6.328   4.110   3.684  0.1739  0.1925 -0.0247
47061W        W55861  17.795   1.121  27.323  0.2589 -0.0628  0.0725
47062W        W55862   3.777   7.705  10.398  0.0530 -0.1267 -0.2350
47063W        W55863   7.444   6.850  18.735  0.1406 -0.0842  0.1178
47064W        W55864   9.597   7.112   8.874 -0.0006  0.2006  0.1478
47065W        W55865  23.811   4.571  27.967 -0.2828 -0.4279 -0.0757
47066W        W55866   4.873   5.956  27.669  0.0910 -0.4126  0.0954
47067W        W55867  20.700   5.304  27.036  0.4376 -0.1550  0.0939
47068W        W55868   7.800   5.199  24.685  0.1392 -0.1179  0.0483
47069W        W55869  14.033   1.920   5.564  0.0527 -0.1831  0.0879
47070W        W55870   8.200   3.788  31.509 -0.0603 -0.0244  0.2654
47071W        W55871   1.516   6.964  21.918 -0.0478 -0.1401  0.0272
47072W        W55872  16.042   3.360  29.132 -0.1056 -0.0203  0.0436
47073W        W55873   8.026   4.529   8.931 -0.1580  0.2602 -0.3643
47074W        W55874  23.657   7.412   8.355 -0.0159 -0.0488 -0.2894
47075W        W55875   3.688   4.754  32.388 -0.1206 -0.3129 -0.0198
47076W        W55876  11.844   7.112   4.001  0.2488  0.3282 -0.2556
47077W        W55877   6.957   0.404  27.847  0.1628  0.1760  0.0494
47078W        W55878  11.996   5.606  25.271  0.3608  0.0296 -0.0983
47079W        W55879  19.890   4.103  31.043  0.0287 -0.1375  0.0344
47080W        W55880  23.367   2.140  29.883  0.0289  0.0840 -0.0454
47081W        W55881  24.770   1.611  25.199 -0.1147 -0.0642 -0.1915
47082W        W55882  19.405   0.954   8.515 -0.0793 -0.0600 -0.2193
47083W        W55883   9.957   2.749  29.440 -0.0337 -0.0308 -0.1115
47084W        W55884  24.562   0.093   0.468 -0.4121 -0.0222 -0.1640
47085W        W55885  20.701   6.600   0.056 -0.2546  0.2148  0.0861
47086W        W55886  15.383   1.283  27.198 -0.2421 -0.1342  0.0853
47087W        W55887  22.801   2.802  22.806 -0.0166  0.3774 -0.0337
47088W        W55888  15.573   3.062  25.708 -0.2441 -0.0252  0.0705
47089W        W55889   9.053   5.937  31.195 -0.1085  0.2933  0.0951
47090W        W55890   6.674   3.771   0.289 -0.2774 -0.2430 -0.0659
47091W        W55891   3.381   3.741  19.969 -0.2197 -0.0683 -0.0175
47092W        W55892   8.111   0.697  31.191  0.0619  0.0838 -0.0694
47093W        W55893   6.556   6.765  30.177  0.1606 -0.1059 -0.2294
47094W        W55894  16.720   7.395   5.579  0.1481 -0.0447 -0.0596
47095W        W55895  18.102   1.841   2.468 -0.0516  0.0799 -0.2195
47096W        W55896  21.861   2.259   8.093  0.2871  0.0857 -0.1566
47097W        W55897  24.256   1.520  29.207  0.4125 -0.1395 -0.3805
47098W        W55898   6.585   3.064   5.067  0.2521 -0.0870  0.0263
47099W        W55899  20.416   0.482  10.651  0.4246 -0.1636  0.0888
47100W        W55900  20.068   2.888   6.064 -0.0782  0.1016 -0.1613
47101W        W55901   4.431   2.756  32.440  0.0100  0.3297 -0.1012
47102W        W55902   8.646   0.958  30.594  0.5029 -0.0526 -0.2770
47103W        W55903   2.884   0.890  16.669  0.2925 -0.0343  0.1858
47104W        W55904  12.022   6.614  32.400  0.0691  0.1663 -0.2522
47105W        W55905  17.399   6.147   7.542  0.1520  0.0409  0.1700
47106W        W55906  15.183   1.995  25.635  0.1679  0.0306  0.3321
47107W        W55907  13.747   2.834  30.080  0.2682  0.0523  0.1542
47108W        W55908   5.259   4.380   9.275  0.1681 -0.1892 -0.2648
47109W        W55909  19.999   3.475  10.807 -0.1334  0.2143  0.4417
47110W        W55910  19.001   1.610  31.205 -0.1443 -0.1168  0.2540
47111W        W55911   0.117   0.642   1.422 -0.0055  0.0176 -0.3199
47112W        W55912   6.371   2.537  24.243 -0.4658  0.2400  0.0865
47113W        W55913  17.817   6.602   4.250 -0.3642 -0.1902 -0.2580
47114W        W55914  19.212   1.874  15.255 -0.0187  0.1356  0.0427
47115W        W55915  19.580   0.930  22.784  0.3233  0.0616  0.2132
47116W        W55916   8.397   7.586   3.614 -0.0393 -0.2298 -0.1914
47117W        W55917  16.999   3.307   7.481 -0.0099 -0.2333 -0.0898
47118W        W55918  10.782   0.352  29.789 -0.2253 -0.0690 -0.0122
47119W        W55919   4.765   0.375   9.624 -0.0879 -0.1914 -0.0158
47120W        W55920  13.012   6.168  22.155 -0.0250  0.2496 -0.0220
47121W        W55921   5.687   1.175   1.969  0.0372 -0.0190  0.0191
47122W        W55922   7.498   0.841  29.329 -0.0487  0.0962 -0.1748
47123W        W55923  13.502   7.776   1.176 -0.0637  0.2795  0.0424
47124W        W55924  24.288   3.782  28.389 -0.3338  0.2239  0.3415
47125W        W55925  22.586   6.244   7.699  0.1580 -0.0250  0.0114
47126W        W55926  16.098   5.076  14.775 -0.1478 -0.1179  0.2354
47127W        W55927  17.468   3.016   9.576 -0.2967 -0.1352 -0.2025
47128W        W55928  13.410   0.324   9.016 -0.1960  0.0003 -0.1513
47129W        W55929  17.820   2.298  31.674 -0.2952 -0.0718 -0.2182
47130W        W55930  22.949   1.792  31.012 -0.3092 -0.1365  0.2631
47131W        W55931  17.599   5.440  14.805 -0.0587  0.1035 -0.2914
47132W        W55932  15.278   6.034   6.470 -0.0051 -0.1349  0.0213
47133W        W55933  16.557   7.107  10.985  0.0314  0.2633  0.0396
47134W        W55934   3.249   1.408   0.833 -0.0744 -0.0642 -0.1691
47135W        W55935  16.606   7.162   7.414  0.0853 -0.1995  0.2145
47136W        W55936   4.334   2.699  16.254  0.0739 -0.0885  0.0462
47137W        W55937   9.253   6.223   4.717  0.1320  0.0035  0.1030
47138W        W55938  24.815   1.789  30.893  0.0324 -0.2839  0.0678
47139W        W55939   8.662   4.715   3.869  0.2187 -0.1750 -0.1714
47140W        W55940  21.698   5.831   4.476 -0.1978 -0.2063  0.0524
47141W        W55941   2.663   0.760  20.805  0.0486  0.1486  0.0014
47142W        W55942   5.478   3.498  15.084  0.0469 -0.1033  0.0293
47143W        W55943  23.090   4.961  12.711 -0.1185 -0.0356 -0.0766
47144W        W55944  16.925   4.678  15.717 -0.0530 -0.0958  0.3102
47145W        W55945  13.653   5.792  31.293 -0.3432  0.2572 -0.2802
47146W        W55946   1.716   1.230   5.644  0.2864 -0.0272 -0.1391
47147W        W55947   0.208   2.514  23.779 -0.2079  0.0939  0.3064
47148W        W55948   6.805   3.654   0.760 -0.0437 -0.0776  0.0102
47149W        W55949  13.960   1.721  11.421 -0.2068 -0.4670 -0.0196
47150W        W55950  19.336   1.737  25.735  0.0257  0.3323 -0.3208
47151W        W55951   3.391   5.448  16.853  0.1502 -0.0719 -0.3289
47152W        W55952  18.744   3.945  29.422  0.1096 -0.5362 -0.2338
47153W        W55953  15.195   7.061   0.528 -0.0665 -0.0910 -0.2605
47154W        W55954   3.429   4.853  23.630 -0.0821  0.0424  0.1657
47155W        W55955   4.378   2.888  18.175 -0.0310  0.1875 -0.1180
47156W        W55956  11.066   4.361  28.131  0.2059 -0.2213  0.0672
47157W        W55957   0.092   5.784  26.569 -0.0775  0.1009  0.1158
47158W        W55958  19.733   5.701  16.906  0.0198 -0.1026  0.2150
47159W        W55959  14.960   1.695   2.508  0.2364 -0.3202  0.3259
47160W        W55960  20.994   6.055   1.984  0.1532 -0.1109  0.1834
47161W        W55961  17.627   0.401   1.629  0.0965  0.0146  0.0626
47162W        W55962  11.990   7.832   2.549 -0.0254 -0.3049 -0.0686
47163W        W55963  22.692   4.237  27.797  0.0394 -0.0897  0.1611
47164W        W55964  23.189   7.379  21.417 -0.0200  0.1270 -0.0538
47165W        W55965  24.725   7.365  12.829 -0.5113  0.1634  0.0432
47166W        W55966   4.373   0.017  17.822  0.1392  0.3100 -0.2749
47167W        W55967  12.112   7.586  26.527 -0.2591 -0.0402  0.0683
47168W        W55968  19.334   2.718  15.789 -0.2964  0.1379  0.2369
47169W        W55969  16.708   3.280  24.565  0.2487 -0.1186  0.1798
47170W        W55970  14.142   6.355   1.028 -0.2853 -0.0951  0.2665
47171W        W55971   5.234   1.493  26.683 -0.2209  0.1131  0.0763
47172W        W55972   1.637   4.977   9.001  0.2387 -0.2861  0.0842
47173W        W55973  13.866   4.603  12.667  0.0185  0.1258  0.3703
47174W        W55974  17.226   0.213   8.348 -0.2947  0.0129  0.0750
47175W        W55975   3.246   1.183  31.038  0.0199 -0.1000 -0.0859
47176W        W55976   7.334   6.348  22.716 -0.3557 -0.1592  0.1639
47177W        W55977   5.634   1.303  29.470  0.1147  0.0148 -0.0331
47178W        W55978   7.528   6.230  16.398 -0.1976 -0.0537 -0.2029
47179W        W55979  20.443   4.793  18.346 -0.0903  0.2122  0.2729
47180W        W55980  11.410   0.550  27.446 -0.4170  0.1301  0.0174
47181W        W55981   5.936   0.541  15.035 -0.1933 -0.0189 -0.2892
47182W        W55982  17.630   4.989  25.957  0.1247  0.0679 -0.1682
47183W        W55983  21.870   4.542  11.771  0.0756  0.0037 -0.0978
47184W        W55984  19.568   3.916   4.369 -0.2599 -0.1371  0.0904
47185W        W55985  20.224   5.092   6.586  0.0654  0.0114  0.1764
47186W        W55986   9.965   2.527  24.180 -0.0182  0.1402 -0.2040
47187W        W55987   9.161   3.020  28.444 -0.0239  0.0420  0.0379
47188W        W55988   1.967   3.250   1.557 -0.0693 -0.2995  0.2618
47189W        W55989  19.820   4.085   2.886  0.0754  0.0343 -0.2128
47190W        W55990  24.997   5.420  24.325 -0.1520 -0.0071 -0.0233
47191W        W55991   9.660   1.276  22.640  0.0523  0.2368  0.1490
47192W        W55992   8.014   3.588   9.499  0.4416 -0.0250 -0.1158
47193W        W55993   1.657   3.572  27.636 -0.3042  0.2204 -0.2235
47194W        W55994  23.913   6.669  27.253 -0.3170  0.0426 -0.0092
47195W        W55995   7.029   6.690   8.017 -0.1381 -0.2590 -0.1091
47196W        W55996   7.554   7.257   2.483 -0.1995  0.0571  0.0860
47197W        W55997  12.382   6.678  30.279  0.2078  0.1703 -0.3393
47198W        W55998  18.249   3.539  11.461  0.0074  0.1857  0.3319
47199W        W55999   0.142   4.529  12.939  0.0514 -0.1676 -0.0156
47200W        W56000   3.625   0.750  25.003  0.1753  0.1993  0.1227
47201W        W56001  14.064   3.554  27.365  0.2853 -0.1115 -0.3295
47202W        W56002  12.175   0.716  32.300  0.0799  0.0355  0.1353
47203W        W56003  11.228   5.438   4.617 -0.1617  0.0586  0.0793
47204W        W56004  17.769   6.061  11.262 -0.0221  0.0490 -0.0258
47205W        W56005   5.787   6.433  26.291 -0.1188  0.0100 -0.0616
47206W        W56006   1.551   7.744   9.066 -0.0310  0.0103  0.1857
47207W        W56007  24.529   0.702  21.183 -0.0271 -0.1353 -0.0141
47208W        W56008   4.717   6.161   0.838  0.2420  0.0464 -0.1263
47209W        W56009   7.154   1.549  24.777 -0.3998  0.1201 -0.0216
47210W        W56010   7.784   3.135  15.701 -0.1233 -0.0809  0.0891
47211W        W56011  20.449   4.689  24.978  0.2540 -0.1257  0.1069
47212W        W56012   8.168   3.387  21.144  0.1249 -0.2121  0.1048
47213W        W56013  24.924   1.717  12.358 -0.1883  0.0733  0.0504
47214W        W56014   9.824   3.390  21.405 -0.2620 -0.0769 -0.2341
47215W        W56015  15.695   0.727   3.152 -0.0354 -0.2955 -0.0655
47216W        W56016  20.219   1.405  32.342 -0.1912 -0.0541 -0.1139
47217W        W56017  23.733   2.087  31.480 -0.1789  0.1743 -0.0409
47218W        W56018  24.635   7.387   4.206  0.0163  0.0545  0.1437
47219W        W56019   1.096   1.391  22.362  0.0915 -0.2031  0.1554
47220W        W56020  16.190   4.294  26.770 -0.2570 -0.0988 -0.3238
47221W        W56021  14.914   0.014  14.300 -0.0510 -0.3323  0.3188
47222W        W56022   8.813   7.270  17.503  0.1438 -0.2456 -0.2233
47223W        W56023  19.387   6.952  14.815  0.0416  0.2572 -0.4563
47224W        W56024  14.171   7.102  31.076  0.0631  0.2008 -0.0082
47225W        W56025   1.152   6.506  23.586  0.1975 -0.0362 -0.0049
47226W        W56026  21.420   2.432  15.005  0.3891 -0.0646 -0.1140
47227W        W56027   6.713   1.208   9.342  0.1870 -0.1612  0.0400
47228W        W56028   8.617   0.064  32.439  0.2403  0.0433 -0.0658
47229W        W56029   0.802   3.348   7.893  0.0190 -0.0429 -0.3162
47230W        W56030  16.929   1.833   5.163  0.1016 -0.1469 -0.3611
47231W        W56031  20.918   5.190  27.926 -0.0238 -0.2246  0.0329
47232W        W56032  10.949   6.414  19.675 -0.2745  0.0536 -0.1014
47233W        W56033   9.829   0.517   8.531  0.0272 -0.3154  0.1528
47234W        W56034  19.385   2.843  14.838  0.3215 -0.2474 -0.0838
47235W        W56035   9.653   1.503   3.659  0.1502  0.1702 -0.0595
47236W        W56036  14.415   5.844  10.754  0.1707  0.1127  0.2317
47237W        W56037  23.697   0.642  28.537 -0.1929  0.2140  0.1150
47238W        W56038   3.486   6.105  20.930 -0.1841  0.0689 -0.0427
47239W        W56039   5.778   1.456  15.430  0.2103 -0.0680 -0.1364
47240W        W56040   7.359   6.627  20.139  0.1418  0.1048  0.2249
47241W        W56041   5.376   4.436   4.012 -0.0565 -0.2084 -0.0555
47242W        W56042   4.894   1.808  27.366  0.1107 -0.1329  0.1067
47243W        W56043  14.575   6.309  10.877  0.0742 -0.0523  0.1520
47244W        W56044   4.043   5.495   8.802 -0.1659 -0.1025  0.0874
47245W        W56045  10.324   0.732   2.012  0.2374  0.1250  0.2144
47246W        W56046  11.592   4.106  29.299 -0.3525 -0.3675  0.3954
47247W        W56047  10.103   3.110  18.761 -0.1284  0.1390  0.3821
47248W        W56048  11.164   7.496  20.810 -0.0843  0.0049  0.1797
47249W        W56049  18.747   4.616  32.302  0.0065  0.0878  0.1609
47250W        W56050  10.748   6.678  27.873  0.3146  0.0043 -0.2785
47251W        W56051  12.834   5.986   6.101 -0.5436 -0.2788 -0.0418
47252W        W56052   2.628   4.594   5.201  0.1523 -0.2864  0.0574
47253W        W56053   5.708   2.929  19.714  0.0977 -0.1014 -0.3660
47254W        W56054   5.737   0.626  32.228  0.0663  0.1930  0.2096
47255W        W56055  14.777   7.040   6.419  0.0738  0.2197 -0.3373
47256W        W56056  19.460   1.035   4.108  0.1166  0.0659 -0.3588
47257W        W56057  11.510   3.455  24.909 -0.2370  0.0361 -0.0186
47258W        W56058   5.614   3.293  32.321  0.1540  0.1064 -0.0542
47259W        W56059  20.793   4.286   8.568 -0.1017  0.1512 -0.0285
47260W        W56060  21.989   0.099  13.889 -0.0010  0.1862  0.0441
47261W        W56061  19.776   3.683  28.606  0.0154  0.1703 -0.1017
47262W        W56062  24.467   6.442   4.365  0.1035 -0.0565 -0.1579
47263W        W56063  19.018   6.292  31.006  0.1304  0.0810  0.2822
47264W        W56064  11.814   3.851   4.387 -0.0122  0.0864  0.0287
47265W        W56065   8.824   5.788   8.430 -0.0411 -0.0118  0.2775
47266W        W56066  17.365   4.342   3.013 -0.0317 -0.1016  0.1203
47267W        W56067  12.375   2.593  28.595  0.1196  0.0301 -0.2031
47268W        W56068  24.577   5.003  28.177  0.0003  0.0988  0.0022
47269W        W56069  14.802   2.640   9.869 -0.0664  0.0110 -0.0535
47270W        W56070  12.656   1.820  29.784 -0.0308  0.1381 -0.2808
47271W        W56071   3.830   3.290  19.351 -0.0396 -0.0775  0.0360
47272W        W56072  16.276   0.892   4.924  0.2643  0.0766 -0.1291
47273W        W56073   2.677   4.847  26.573  0.1227 -0.2936 -0.1767
47274W        W56074   2.334   2.494  30.834  0.0143  0.2768  0.3633
47275W        W56075  17.737   7.128  24.464 -0.0552 -0.3339  0.0754
47276W        W56076   9.872   1.984   9.827 -0.4265  0.0806 -0.2566
47277W        W56077   4.792   1.619  17.962  0.2093  0.0783  0.2148
47278W        W56078   4.356   1.290   1.330 -0.0557 -0.1317 -0.0398
47279W        W56079  18.599   7.145   5.762  0.0926 -0.0226  0.1849
47280W        W56080   0.927   6.320  32.147  0.2673  0.0707 -0.0791
47281W        W56081  19.391   5.789  31.204  0.1683  0.1350  0.1155
47282W        W56082  12.707   2.926  32.523 -0.0121 -0.0023  0.2298
47283W        W56083   7.075   6.465  32.092  0.0677  0.0653  0.0889
47284W        W56084  13.947   7.016  25.460 -0.0861 -0.0647  0.0080
47285W        W56085  15.014   6.443   1.801  0.1587  0.1761 -0.0811
47286W        W56086  17.089   1.687  10.978 -0.0918  0.2056  0.2052
47287W        W56087  10.150   2.057  20.089 -0.0549  0.0233 -0.0016
47288W        W56088  21.814   0.471  30.011 -0.2633  0.2443 -0.0051
47289W        W56089  22.997   2.772  15.639 -0.0224 -0.5722 -0.3199
47290W        W56090   8.946   3.823  10.266  0.1551  0.1058 -0.0464
47291W        W56091  13.274   1.189   7.648  0.0380  0.6131 -0.2007
47292W        W56092  20.031   0.324   1.076  0.1677 -0.0871  0.3114
47293W        W56093  21.230   1.321   4.478 -0.0496 -0.1960 -0.0790
47294W        W56094   4.036   2.960  29.884 -0.0629  0.2841 -0.3039
47295W        W56095  17.501   1.076  10.934 -0.3071 -0.2169  0.0803
47296W        W56096   3.288   5.118   2.423 -0.0357  0.0639 -0.1715
47297W        W56097  11.247   7.145  28.598  0.0464 -0.1442  0.1985
47298W        W56098  10.921   6.215   0.669 -0.2556  0.3038  0.3153
47299W        W56099   3.952   7.214  28.253 -0.1861 -0.1150 -0.0842
47300W        W56100   2.898   0.139  31.846  0.1190  0.0804  0.2549
47301W        W56101  16.582   7.216  31.943  0.1847  0.0506 -0.2684
47302W        W56102  20.400   5.084   8.852 -0.2213  0.2025 -0.0562
47303W        W56103  13.741   6.071   3.719 -0.1066 -0.0676  0.1327
47304W        W56104  11.123   2.303  21.532 -0.0487 -0.1488  0.0506
47305W        W56105   9.016   3.392   2.411  0.1034 -0.1509 -0.0458
47306W        W56106   9.420   4.560  21.591  0.0507 -0.2531 -0.2795
47307W        W56107  24.017   5.670   7.695  0.0574 -0.1308  0.0215
47308W        W56108  19.189   6.784  12.002 -0.1668 -0.1266 -0.0526
47309W        W56109   6.753   6.513   7.569  0.1569 -0.0725 -0.0259
47310W        W56110  22.618   1.743  11.747 -0.0511  0.2196  0.3369
47311W        W56111  24.021   1.076  26.316 -0.4980 -0.2928 -0.0962
47312W        W56112   6.537   6.582   7.046 -0.1395  0.0323 -0.2762
47313W        W56113   7.915   4.074  30.954 -0.0133  0.0741  0.0729
47314W        W56114   3.444   7.500   0.463  0.1163  0.3424  0.1144
47315W        W56115  23.018   5.468  23.969  0.0581 -0.2485 -0.1588
47316W        W56116  24.945   6.760   3.102 -0.4269  0.0465 -0.1741
47317W        W56117   8.606   7.771   5.824 -0.1659 -0.0377  0.0591
47318W        W56118  15.582   3.761   6.958  0.3004  0.1191  0.0502
47319W        W56119  11.341   3.978  18.357 -0.0228  0.0427  0.1971
47320W        W56120   3.700   7.192  25.177  0.0335 -0.0255 -0.0590
47321W        W56121  21.516   4.744  24.123  0.1344 -0.2177  0.1789
47322W        W56122  10.409   0.813  22.166  0.1746  0.0018  0.0070
47323W        W56123   1.329   1.686  29.183 -0.0117 -0.2188 -0.1880
47324W        W56124   7.030   2.344  31.293 -0.1143 -0.1534  0.2338
47325W        W56125   1.360   1.999  23.008  0.1471 -0.0107  0.1158
47326W        W56126  10.016   1.936  15.429  0.1202 -0.0686  0.1873
47327W        W56127   0.959   5.221  18.443  0.1196  0.0761 -0.0888
47328W        W56128  13.793   6.906   6.998  0.1451  0.1582 -0.1266
47329W        W56129  11.342   4.431   5.683  0.1923 -0.2385 -0.2488
47330W        W56130  12.434   1.389   4.305  0.0521 -0.6122 -0.4348
47331W        W56131   0.946   5.082  20.395 -0.1344  0.2383  0.1626
47332W        W56132  17.540   4.406  27.000 -0.0528 -0.2546  0.2826
47333W        W56133  22.651   1.395   5.850  0.1274  0.1147 -0.0505
47334W        W56134  15.390   1.745  26.909  0.0643 -0.0628  0.1903
47335W        W56135  16.285   2.505  13.299 -0.2157  0.0978  0.2050
47336W        W56136  23.053   2.543  31.333  0.0861 -0.0165 -0.0780
47337W        W56137  15.545   1.423  24.672  0.0571  0.3975 -0.2327
47338W        W56138   2.208   2.325  26.986 -0.0977 -0.1794 -0.0368
47339W        W56139  16.259   4.699  30.361  0.0795  0.1049 -0.3531
47340W        W56140  19.987   2.563  32.431 -0.1787 -0.0301 -0.0751
47341W        W56141   3.219   6.738   0.566  0.1040  0.2431  0.0729
47342W        W56142  10.993   2.033  27.944 -0.0667 -0.0518  0.3117
47343W        W56143  22.143   3.962  11.187 -0.3402 -0.1384  0.3302
47344W        W56144   7.685   0.300  23.351 -0.2350  0.2185  0.2415
47345W        W56145   6.275   5.917  30.083  0.0228 -0.0813 -0.1234
47346W        W56146  17.021   0.252  23.181 -0.2187  0.0898 -0.2546
47347W        W56147  21.898   0.171  24.985 -0.2476  0.2530 -0.0990
47348W        W56148   8.280   1.564  17.221 -0.0618 -0.2614  0.1808
47349W        W56149  17.062   0.980   6.315 -0.0728 -0.2236  0.1639
47350W        W56150   7.938   0.172  29.957  0.0980  0.0826 -0.3220
47351W        W56151   5.567   2.763   8.684 -0.3673  0.0221 -0.1193
47352W        W56152  22.705   5.301  14.502  0.0726 -0.1810 -0.2012
47353W        W56153   8.696   6.741  20.329 -0.0018  0.4314  0.0726
47354W        W56154  20.907   0.015  28.901 -0.0709 -0.1775  0.4482
47355W        W56155   9.377   0.016  10.175  0.4382  0.1912  0.0529
47356W        W56156   5.717   1.550  18.599 -0.0123  0.2706  0.0358
47357W        W56157  24.329   2.337  11.900 -0.2521 -0.0022  0.0889
47358W        W56158  20.827   4.635  16.166 -0.1674  0.0628  0.1295
47359W        W56159   9.107   4.259   6.645  0.1107  0.2424 -0.1033
47360W        W56160  20.900   0.535   1.771  0.1823 -0.0708  0.2523
47361W        W56161   9.052   3.323  23.442  0.0708  0.1179 -0.0497
47362W        W56162   0.759   5.224  27.759  0.0155 -0.0817 -0.0251
47363W        W56163  13.197   4.919   7.961  0.1917  0.0689 -0.1234
47364W        W56164  10.044   1.865  22.903 -0.0812  0.1325  0.0360
47365W        W56165  18.331   4.329  12.205 -0.1590  0.1578 -0.0065
47366W        W56166  11.107   3.782  16.811 -0.1340 -0.1745 -0.1178
47367W        W56167  15.103   1.073  29.821 -0.1584 -0.3346  0.1520
47368W        W56168   9.524   2.223  17.470  0.1926 -0.0948 -0.0768
47369W        W56169   4.957   0.768  10.136 -0.1609 -0.1466  0.2547
47370W        W56170   9.131   0.388   4.899 -0.1228  0.1078  0.0570
47371W        W56171   7.695   5.394  30.693  0.3176  0.0758 -0.0381
47372W        W56172   6.881   5.100   9.283 -0.0467 -0.0360 -0.1829
47373W        W56173  11.268   2.919   2.187  0.2186  0.2455  0.0155
47374W        W56174  20.822   4.382  12.006  0.1891  0.0203  0.1260
47375W        W56175  14.223   6.331  21.247 -0.0687 -0.0787 -0.0028
47376W        W56176  10.269   1.938  19.295  0.1287 -0.1957  0.1148
47377W        W56177  22.068   1.494  12.967 -0.1779 -0.1768 -0.0395
47378W        W56178  20.019   1.235   3.896 -0.0147  0.2301  0.1065
47379W        W56179  21.418   1.433  10.738  0.1413 -0.3996  0.1515
47380W        W56180  13.826   0.192  30.730  0.1865  0.2478  0.0787
47381W        W56181   1.835   5.257  28.517  0.1815 -0.4902  0.0072
47382W        W56182  20.738   5.834  25.172 -0.0379  0.0589 -0.2746
47383W        W56183  18.223   2.695   8.718 -0.4183  0.3078 -0.0524
47384W        W56184   3.986   2.889  17.654 -0.1246  0.1637  0.1263
47385W        W56185  19.700   7.476  24.510  0.1237 -0.0849 -0.1216
47386W        W56186   6.082   3.001   5.879  0.1198  0.0351  0.1775
47387W        W56187   2.744   3.641  22.455  0.2724 -0.1654  0.0448
47388W        W56188  20.701   0.883  24.081 -0.2575 -0.0023 -0.1977
47389W        W56189   9.955   2.944   6.788  0.0124 -0.1778  0.0049
47390W        W56190  22.222   5.118   6.944 -0.1216 -0.3965 -0.1615
47391W        W56191   5.671   3.063   4.175 -0.1723 -0.2193 -0.1288
47392W        W56192  15.292   7.531   0.657 -0.0512  0.0949  0.1521
47393W        W56193  23.399   5.965  30.732 -0.1463  0.1971 -0.2145
47394W        W56194  11.923   6.923   0.614  0.2689  0.1943  0.0750
47395W        W56195   1.555   7.214  11.261 -0.1155  0.0769  0.0144
47396W        W56196  20.362   4.084  23.823 -0.2395  0.0944 -0.2678
47397W        W56197  19.058   2.724  27.732  0.1303  0.0996 -0.1781
47398W        W56198   9.494   7.832  28.578 -0.1674 -0.0283  0.1753
47399W        W56199  20.238   2.269  29.960  0.1367  0.1443  0.0525
47400W        W56200  15.005   7.772   8.260  0.0103  0.3216  0.2724
47401W        W56201   8.127   3.220   5.936 -0.0836 -0.1009  0.0651
47402W        W56202   0.297   4.048   1.169 -0.1874  0.0172  0.1799
47403W        W56203  17.315   5.006   2.759 -0.0241 -0.4216  0.0958
47404W        W56204  13.740   3.868  31.887 -0.1680 -0.1148 -0.3463
47405W        W56205   0.153   2.987  30.640 -0.2081  0.1609 -0.3259
47406W        W56206  19.987   3.783  14.134  0.0005  0.1877 -0.0546
47407W        W56207  15.648   2.069  25.230  0.1100 -0.0328 -0.2198
47408W        W56208  12.329   2.523  24.117 -0.3133  0.3971  0.1597
47409W        W56209  12.014   2.900  20.683 -0.2476  0.2649 -0.2577
47410W        W56210  12.944   7.533   5.529 -0.3839  0.0282 -0.2440
47411W        W56211  15.080   2.459  26.777  0.1351 -0.2667  0.1754
47412W        W56212  20.298   6.699  13.915 -0.1843 -0.0944 -0.2643
47413W        W56213  18.310   2.342  15.971 -0.1712 -0.1689  0.0473
47414W        W56214  21.997   4.575   2.654  0.1799 -0.5314  0.0526
47415W        W56215  10.476   0.642   3.544  0.0868  0.1189 -0.0454
47416W        W56216  17.458   3.478   0.020 -0.2198 -0.1183 -0.3916
47417W        W56217   8.481   2.151  31.780  0.1324  0.0070 -0.2123
47418W        W56218  13.230   0.701  23.798 -0.2973  0.1097 -0.0752
47419W        W56219  16.096   4.497  23.641 -0.1045 -0.1427 -0.3255
47420W        W56220  23.734   0.753   9.149  0.2262  0.4266 -0.0146
47421W        W56221   1.457   2.818  23.897  0.1053 -0.2562 -0.1483
47422W        W56222   2.977   2.294  23.544 -0.2949  0.3341 -0.2784
47423W        W56223   9.029   5.725  31.657  0.1150  0.3817 -0.0189
47424W        W56224   2.014   4.242  23.140 -0.0458 -0.0674  0.0621
47425W        W56225  19.675   5.443  25.243  0.1113  0.0607 -0.0195
47426W        W56226   8.441   3.581   1.091 -0.0952  0.0665 -0.0353
47427W        W56227   4.588   0.093  28.100 -0.1532  0.1805  0.0223
47428W        W56228  19.389   2.370  12.056 -0.1664 -0.0140  0.0083
47429W        W56229  17.793   6.907  22.582  0.2134 -0.0126 -0.1686
47430W        W56230  20.628   6.310  26.151  0.1506 -0.2512 -0.1837
47431W        W56231  22.970   0.124   1.862 -0.0532 -0.4351  0.0397
47432W        W56232   0.913   0.260   0.365 -0.1634  0.2678  0.0467
47433W        W56233   7.249   6.328   8.995  0.0609  0.0347  0.1074
47434W        W56234  11.347   2.620   0.437  0.2042 -0.1361  0.1839
47435W        W56235  24.863   2.426   2.643  0.3820  0.3705 -0.0467
47436W        W56236  16.422   7.119  17.897 -0.1226  0.1729  0.1186
47437W        W56237  16.429   2.022  13.444  0.0635  0.0781  0.1396
47438W        W56238  14.697   3.505  29.669  0.2295  0.1004  0.0731
47439W        W56239  13.166   3.799  23.222  0.2756  0.2671 -0.0506
47440W        W56240  14.891   4.567  14.484 -0.1564 -0.0373  0.0427
47441W        W56241   6.301   0.005  14.442  0.0263  0.0785 -0.2190
47442W        W56242  21.993   7.045  32.369 -0.1750 -0.0931  0.2544
47443W        W56243   7.694   4.636   0.306 -0.0597  0.2373  0.2778
47444W        W56244  23.957   7.860  11.917 -0.1873 -0.1476 -0.1305
47445W        W56245  14.285   5.949  29.872 -0.0215 -0.0444 -0.0168
47446W        W56246  12.036   6.383  21.080  0.1504  0.0418 -0.3017
47447W        W56247  19.403   7.416  29.274 -0.2241 -0.1129 -0.0763
47448W        W56248  18.365   3.567   0.999 -0.3075 -0.0489 -0.0846
47449W        W56249  10.912   4.477  21.825  0.2510  0.2211 -0.1138
47450W        W56250  11.176   4.517   7.868  0.1716 -0.1217 -0.1877
47451W        W56251  16.767   2.727  22.916 -0.1465 -0.1964 -0.0941
47452W        W56252  15.982   6.106   7.472 -0.0564  0.3787  0.2117
47453W        W56253   3.781   2.304  28.005  0.0701 -0.3019 -0.0123
47454W        W56254   7.515   7.310   7.112 -0.1711  0.0766  0.2396
47455W        W56255  21.549   3.041   5.482  0.3510  0.0240  0.0787
47456W        W56256   8.079   3.477   0.476  0.1139  0.1916 -0.2141
47457W        W56257  25.084   0.556  10.125  0.0347 -0.1496  0.1443
47458W        W56258   5.526   4.286  10.969  0.0725 -0.0767 -0.1259
47459W        W56259   0.414   6.858  24.229  0.4190  0.1696  0.0968
47460W        W56260  10.413   0.388  27.152  0.1577  0.1881 -0.0356
47461W        W56261  11.658   3.010  24.757  0.0218 -0.0957 -0.0174
47462W        W56262  15.977   7.305  13.547  0.2091  0.0803 -0.0667
47463W        W56263  19.196   1.718  25.154  0.2552  0.2467  0.2814
47464W        W56264   4.394   7.125   4.320 -0.3205  0.1615 -0.1285
47465W        W56265  17.347   5.770   5.096 -0.1090  0.3766  0.0960
47466W        W56266   4.592   6.458  23.999 -0.3174  0.1125  0.1000
47467W        W56267  15.942   0.699   4.212 -0.0558 -0.3234  0.0565
47468W        W56268  13.964   1.632  31.447 -0.1728 -0.0657  0.2311
47469W        W56269   2.843   7.634  20.476  0.0824  0.0280  0.0843
47470W        W56270  18.270   0.762  15.045 -0.2505  0.1639 -0.0775
47471W        W56271   4.190   6.748  10.253  0.0021  0.2500 -0.0003
47472W        W56272  18.407   1.495  27.942  0.1749  0.1601  0.0119
47473W        W56273  15.699   2.087  25.812  0.2904  0.3891  0.3833
47474W        W56274   7.577   7.483  32.119  0.2689 -0.1747  0.1480
47475W        W56275  21.711   5.681  10.387 -0.0029  0.2168  0.2071
47476W        W56276   4.459   5.564  29.708  0.0415 -0.3038 -0.1682
47477W        W56277   2.149   6.944  31.378  0.3007  0.0084 -0.1240
47478W        W56278  24.748   6.664   5.763 -0.2059 -0.0930 -0.0600
47479W        W56279  18.852   3.792  24.866  0.3090 -0.1069  0.1196
47480W        W56280  19.949   3.478   8.532 -0.1131  0.3637  0.1335
47481W        W56281  18.236   6.609   1.781 -0.3208  0.0510 -0.3703
47482W        W56282  12.015   4.726  25.675 -0.1029 -0.2752 -0.1367
47483W        W56283  14.777   6.776   0.675  0.0726 -0.2275  0.0409
47484W        W56284   3.761   6.638   5.299  0.0736  0.0649  0.2493
47485W        W56285  18.083   6.632   5.386 -0.3753  0.0530 -0.1029
47486W        W56286  10.596   6.688  22.207 -0.2451  0.1260 -0.0184
47487W        W56287  12.887   5.695  23.990  0.3246  0.3051 -0.1119
47488W        W56288  16.428   5.546   4.170 -0.2851  0.0843  0.1365
47489W        W56289  23.757   6.940  11.541  0.2497 -0.1099  0.0170
47490W        W56290   3.374   2.737   6.389  0.3257 -0.1387 -0.1009
47491W        W56291  23.061   1.148  12.978  0.3853 -0.1820  0.0466
47492W        W56292  19.722   7.591  10.432 -0.1272  0.1940 -0.2514
47493W        W56293   7.834   0.520   6.631 -0.0532  0.0215  0.2792
47494W        W56294  21.036   6.462  32.290  0.0119 -0.0566 -0.3700
47495W        W56295   5.131   7.239  25.380 -0.2555  0.1457  0.1185
47496W        W56296   0.323   5.991   7.511 -0.0811  0.1247 -0.0201
47497W        W56297  14.008   4.412   2.458 -0.1319 -0.1950 -0.0073
47498W        W56298   5.611   0.815  15.915 -0.2961  0.1260  0.0884
47499W        W56299   5.946   7.498  22.219 -0.4664  0.0630 -0.2712
47500W        W56300  19.595   4.655   9.925  0.0339  0.0813 -0.1735
47501W        W56301   5.789   0.180  23.308  0.1267 -0.1528  0.0424
47502W        W56302   0.726   3.433  31.294 -0.0115 -0.1434 -0.1773
47503W        W56303  17.973   1.199   0.522 -0.2723 -0.1164 -0.0664
47504W        W56304   7.866   6.413  30.930  0.0435  0.2038 -0.3730
47505W        W56305  15.113   3.115  15.013  0.2323  0.1162 -0.1710
47506W        W56306  18.978   7.481  16.909  0.1012  0.2703  0.2344
47507W        W56307   8.633   3.828  30.555 -0.2266 -0.1048  0.0041
47508W        W56308  10.344   5.397  10.198 -0.1189  0.0596  0.1001
47509W        W56309  15.662   7.638  22.796 -0.3041 -0.0695 -0.1535
47510W        W56310  19.328   7.088  22.958 -0.2979  0.0506  0.0740
47511W        W56311   8.802   7.115  19.978  0.4275 -0.0071  0.0367
47512W        W56312  11.295   1.701  23.738  0.1688 -0.0324  0.0026
47513W        W56313   5.606   4.509  26.582  0.3443 -0.0136 -0.0664
47514W        W56314   5.518   4.288  22.655 -0.0530  0.1979 -0.0842
47515W        W56315  12.965   2.511  25.726  0.0024  0.1072 -0.0215
47516W        W56316   3.082   4.515  22.592 -0.2474 -0.0630  0.1288
47517W        W56317   5.467   5.925   6.462 -0.0922  0.0033  0.3035
47518W        W56318   9.783   1.566  20.990 -0.0007 -0.1307 -0.0763
47519W        W56319   1.606   2.345  19.192  0.1465  0.0200  0.2268
47520W        W56320  22.202   4.741  25.353 -0.1854 -0.0041 -0.0837
47521W        W56321  23.245   3.751  15.886 -0.0382 -0.2641 -0.2002
47522W        W56322  21.871   1.144   5.604  0.2591 -0.2414 -0.0305
47523W        W56323  15.564   6.204  16.567 -0.3523 -0.1057  0.1754
47524W        W56324  11.170   4.509   2.279  0.0751 -0.3024 -0.2021
47525W        W56325  14.524   7.423   2.148  0.2285  0.2358 -0.0209
47526W        W56326   8.610   4.470   5.890  0.0748  0.2139 -0.0173
47527W        W56327   2.077   4.124  18.986  0.2740  0.0195 -0.0319
47528W        W56328  14.040   3.749   2.496  0.1852  0.1546 -0.0745
47529W        W56329   0.295   2.798   5.837 -0.3055 -0.2137  0.1136
47530W        W56330  15.279   6.212  13.363 -0.1311 -0.1754  0.2272
47531W        W56331  12.862   1.898  21.185  0.0953 -0.2318  0.1519
47532W        W56332  10.086   4.946  26.657 -0.0575 -0.0079  0.1821
47533W        W56333   6.296   4.737  19.324 -0.0846 -0.0039  0.1700
47534W        W56334  18.933   5.819  18.042 -0.1698 -0.0675  0.0664
47535W        W56335  18.420   3.999  13.905  0.2439 -0.2478  0.0665
47536W        W56336  17.823   6.268  26.483  0.0249  0.0302  0.1728
47537W        W56337   0.970   3.589  29.095 -0.1128  0.1617 -0.0337
47538W        W56338  19.826   4.114  13.687  0.1990  0.0567 -0.1180
47539W        W56339   0.487   5.791  10.744 -0.2812  0.1271 -0.0302
47540W        W56340   7.782   5.889  30.815  0.0475 -0.0733 -0.0576
47541W        W56341  24.171   1.815   2.880  0.1536  0.0616  0.0923
47542W        W56342  18.615   1.104   3.374 -0.0479  0.0818  0.1579
47543W        W56343  18.703   1.324  10.627 -0.1063  0.1565  0.1071
47544W        W56344  20.717   2.870  31.725 -0.0612 -0.1066 -0.0255
47545W        W56345  10.421   7.177  19.814 -0.2388  0.0490 -0.0466
47546W        W56346   6.955   6.976  17.766 -0.0999 -0.2982 -0.0189
47547W        W56347   6.405   7.802  32.366 -0.4181  0.2776 -0.1727
47548W        W56348  15.790   0.484  14.783  0.2868 -0.1757  0.0248
47549W        W56349   3.119   1.057   6.976 -0.0097  0.1369 -0.0401
47550W        W56350  12.384   1.631  22.003 -0.1112  0.0366 -0.2530
47551W        W56351   0.229   6.882  22.132 -0.0834 -0.1776  0.1807
47552W        W56352   3.167   3.106  27.082 -0.1546  0.0176 -0.1485
47553W        W56353  14.055   0.669   1.277 -0.0093 -0.0515 -0.2616
47554W        W56354   7.844   4.517   6.893  0.2545  0.1541  0.0339
47555W        W56355   9.418   1.975  16.509 -0.2591 -0.0478 -0.0140
47556W        W56356  12.240   0.041  11.558 -0.1344 -0.2297 -0.0191
47557W        W56357   9.648   0.987  24.383  0.1407  0.2311 -0.2257
47558W        W56358  18.000   3.403   1.392 -0.1359 -0.1214 -0.4113
47559W        W56359  11.860   2.170  27.729 -0.0065 -0.2052  0.0326
47560W        W56360   9.097   2.707   1.890 -0.1212 -0.1513 -0.1538
47561W        W56361   7.222   4.012  21.200 -0.0464 -0.1022 -0.0090
47562W        W56362  22.285   5.795  27.872  0.0911 -0.1599  0.0245
47563W        W56363  19.428   7.401  28.373 -0.1322 -0.0245 -0.1086
47564W        W56364   5.000   6.595  28.492 -0.0044 -0.2157 -0.1181
47565W        W56365   4.204   5.785  18.140  0.1880 -0.0235 -0.0225
47566W        W56366  10.896   5.887   5.397  0.0662  0.1010 -0.0710
47567W        W56367   6.411   5.364  17.180 -0.1211  0.0530 -0.0862
47568W        W56368   1.708   1.132  31.019  0.1225 -0.0890 -0.1598
47569W        W56369  11.645   0.519   8.730 -0.0162 -0.2901 -0.3976
47570W        W56370  16.973   1.458   0.612 -0.2035 -0.0490  0.1981
47571W        W56371  11.704   5.578   9.632  0.0705 -0.4909 -0.1515
47572W        W56372   4.177   5.346  19.162  0.1082 -0.0857  0.1464
47573W        W56373  17.033   2.066  30.917  0.2262 -0.0814 -0.0621
47574W        W56374  11.170   6.800  20.046 -0.1911 -0.3251  0.1079
47575W        W56375  21.780   4.460   6.788 -0.3961 -0.0725 -0.2675
47576W        W56376   1.925   1.577  20.057  0.1563  0.1482 -0.1047
47577W        W56377  24.172   0.754  24.915 -0.0305 -0.1468  0.1878
47578W        W56378  23.249   3.479  11.763  0.1295  0.2723  0.1393
47579W        W56379  17.758   6.612  30.334 -0.2386  0.0292 -0.0214
47580W        W56380  16.572   0.908   6.681  0.4704 -0.0003  0.3086
47581W        W56381   1.790   5.311  29.047 -0.3672 -0.0242  0.0473
47582W        W56382   0.750   5.789  21.619  0.1847  0.1553  0.0734
47583W        W56383   3.180   4.290  29.920  0.0893 -0.4889  0.0637
47584W        W56384  21.236   2.501   3.831  0.0344  0.1942  0.0176
47585W        W56385   6.645   1.145  20.982  0.1517  0.0030 -0.2519
47586W        W56386  18.860   5.499  28.747  0.0588 -0.0130  0.0881
47587W        W56387  18.050   0.072  13.498  0.1706 -0.0450 -0.1038
47588W        W56388   6.872   6.073   1.463  0.0031  0.2002 -0.2201
47589W        W56389  11.512   2.354   6.948 -0.0312  0.1778  0.3396
47590W        W56390   8.674   3.496   6.826 -0.1044 -0.1545  0.0561
47591W        W56391   3.769   5.147   3.748  0.1386 -0.5915  0.2220
47592W        W56392   3.281   6.162   4.621  0.2303  0.1055  0.2565
47593W        W56393   1.755   6.267   8.770 -0.2346 -0.1353  0.2891
47594W        W56394  12.144   2.919   1.928 -0.2037  0.2480 -0.0206
47595W        W56395  24.670   5.836   5.069 -0.5311 -0.0811 -0.0242
47596W        W56396  16.232   0.202   4.931 -0.1162  0.2746 -0.1535
47597W        W56397   0.362   0.712  29.437 -0.2134 -0.0420  0.0077
47598W        W56398   2.981   1.333  24.468 -0.3933  0.3214  0.3755
47599W        W56399   2.997   4.351   3.156  0.0118  0.0247  0.3235
47600W        W56400   3.886   1.560  17.518  0.1417 -0.2610  0.1206
47601W        W56401   0.868   1.823   5.832 -0.0843  0.0338 -0.3350
47602W        W56402   8.568   3.373   0.611  0.2455  0.2552  0.1381
47603W        W56403  18.732   3.144   2.793  0.0775 -0.1292  0.2598
47604W        W56404   1.647   7.113  30.605 -0.4831 -0.0190  0.0887
47605W        W56405   2.635   4.103   9.816 -0.0313  0.2677 -0.0605
47606W        W56406  13.252   5.285  10.783  0.1905 -0.4693 -0.0527
47607W        W56407  11.251   0.256  29.987  0.1244 -0.2547  0.0221
47608W        W56408  13.441   5.833   6.628 -0.0840  0.2410 -0.2885
47609W        W56409   7.079   3.043  16.892 -0.1707  0.0877 -0.4648
47610W        W56410  15.685   3.708  15.017  0.1327 -0.1758 -0.1372
47611W        W56411  15.910   2.567  13.606 -0.1143 -0.0115 -0.2784
47612W        W56412  17.927   2.261   8.469  0.0224 -0.1284 -0.1172
47613W        W56413   0.047   7.114  27.129  0.2377 -0.0659  0.0791
47614W        W56414  21.516   4.283  29.992 -0.3212 -0.2918 -0.1038
47615W        W56415  10.593   1.830  24.263 -0.1543 -0.2365  0.4118
47616W        W56416   1.696   6.555  21.695 -0.2848 -0.1251 -0.1298
47617W        W56417   6.910   1.685   9.390 -0.0758 -0.1907 -0.1846
47618W        W56418  10.201   0.293   3.775 -0.1212 -0.0443 -0.3364
47619W        W56419  12.258   2.183  32.547 -0.3647 -0.2054  0.1150
47620W        W56420  12.883   3.439  29.619 -0.2011 -0.2862  0.0159
47621W        W56421   8.146   0.223   6.932  0.0523  0.0790 -0.3603
47622W        W56422   5.802   1.394   8.321 -0.0900  0.2387  0.0703
47623W        W56423  18.099   3.787  15.233 -0.2903  0.0846  0.1080
47624W        W56424  11.112   3.610   2.991 -0.1061  0.1274 -0.3073
47625W        W56425   2.922   6.097  26.234 -0.2321  0.1818  0.2340
47626W        W56426  19.021   5.656   1.899 -0.1431 -0.1417 -0.3561
47627W        W56427   8.612   2.835  15.525  0.1468 -0.0485  0.2067
47628W        W56428   2.306   6.953  29.950 -0.0678  0.0508  0.0874
47629W        W56429  19.246   5.506  30.821 -0.0763 -0.0662 -0.0491
47630W        W56430  12.721   6.666  19.130  0.3890 -0.1900 -0.1740
47631W        W56431   2.829   6.541  24.435 -0.3242 -0.2921 -0.0986
47632W        W56432  16.314   5.851  32.301  0.3414 -0.1747 -0.0424
47633W        W56433  22.729   5.378  10.787 -0.0523 -0.2639  0.0197
47634W        W56434  20.994   4.779  31.131 -0.0502 -0.1874  0.1496
47635W        W56435  18.476   3.451  24.413  0.2542  0.0620  0.3797
47636W        W56436   1.084   4.996  32.180 -0.0686  0.0147  0.0845
47637W        W56437  19.390   7.661  30.286 -0.0811  0.1334 -0.1302
47638W        W56438   1.929   2.642  22.831  0.2278  0.3316 -0.1146
47639W        W56439   4.613   7.493  19.738  0.0650  0.0598 -0.0655
47640W        W56440  15.381   0.522   7.032  0.0640 -0.0097 -0.0382
47641W        W56441   1.800   2.428  30.777 -0.0073  0.2192  0.1321
47642W        W56442  23.847   0.975   7.816 -0.0679  0.2272  0.0217
47643W        W56443  20.572   5.104  22.894 -0.1992 -0.0055  0.2589
47644W        W56444   9.000   1.956  22.720  0.1101 -0.4125  0.0314
47645W        W56445   1.019   6.020  11.443 -0.0549  0.0036  0.3285
47646W        W56446  16.184   4.127  23.278 -0.1043  0.0979  0.0057
47647W        W56447  10.520   0.599   9.037 -0.2100  0.0634  0.0170
47648W        W56448  17.223   1.572  26.626 -0.2071  0.1887 -0.0513
47649W        W56449  24.831   4.143   1.986  0.1864 -0.3099  0.0934
47650W        W56450  13.955   5.229  30.754 -0.0995  0.0945  0.0901
47651W        W56451  14.142   3.405   7.478  0.0549 -0.1969 -0.2438
47652W        W56452  14.549   1.522  13.276  0.2245 -0.1658  0.0852
47653W        W56453  23.888   7.848  24.355 -0.0034 -0.1400  0.1928
47654W        W56454  16.615   6.493  27.977  0.0427  0.0312  0.0370
47655W        W56455  21.926   2.302  22.297 -0.1230  0.1501  0.1750
47656W        W56456   2.483   4.473   8.420 -0.0537 -0.1477 -0.2014
47657W        W56457   3.739   5.266   9.176 -0.0113 -0.0242 -0.5095
47658W        W56458  12.223   0.765  28.616  0.0465  0.3570 -0.0857
47659ION     NA56459  15.954   3.813  28.373  0.0942  0.0397  0.5436
47660ION     NA56460  21.351   2.626  11.217  0.1043 -0.3037  0.1078
47661ION     NA56461  24.006   0.397   8.603 -0.0603  0.1037 -0.2660
47662ION     NA56462  21.803   2.200  32.445  0.3783 -0.0715  0.6148
47663ION     NA56463   2.184   4.983   0.104  0.1501 -0.1238 -0.1247
47664ION     NA56464   7.301   7.201   3.966  0.3168 -0.1880 -0.4114
47665ION     NA56465  13.264   7.754  32.382 -0.3565  0.0862  0.1680
47666ION     NA56466   2.502   1.607  26.282  0.3492  0.0670  0.2094
47667ION     NA56467   1.691   4.010  23.306 -0.2682  0.2155 -0.0849
47668ION     NA56468  17.107   5.960   4.708  0.2154 -0.2752  0.0202
47669ION     NA56469  16.945   4.991   0.517 -0.2758  0.5566  0.2547
47670ION     NA56470   9.093   7.350   0.991 -0.0831 -0.2212 -0.4129
47671ION     NA56471  21.500   4.836  26.742  0.0926 -0.1095  0.1106
47672ION     NA56472   2.363   3.391  18.809 -0.1760  0.1944 -0.3142
47673ION     NA56473  16.272   6.490   4.412 -0.2149 -0.0547  0.0647
47674ION     NA56474   4.049   6.095  21.578  0.0284  0.2268  0.0584
47675ION     NA56475   8.746   2.876   8.434 -0.2622 -0.4092  0.3833
47676ION     NA56476  18.847   2.927  25.652  0.1414  0.2404  0.0047
47677ION     NA56477   9.968   0.793   6.148 -0.0358 -0.0098 -0.2220
47678ION     NA56478  10.664   0.328  28.574  0.0084  0.2945  0.2899
47679ION     NA56479  16.929   1.365  24.638  0.1371  0.0547 -0.0715
47680ION     NA56480  21.087   5.316  28.371  0.3857  0.0300  0.0076
47681ION     NA56481  23.584   3.757  11.079 -0.0471  0.2359 -0.5643
47682ION     NA56482   2.546   6.765   3.529  0.1304  0.2398  0.6297
47683ION     NA56483  16.599   5.821  27.366 -0.5579  0.1330 -0.1301
47684ION     NA56484  18.717   2.851  27.980  0.1800  0.0193  0.1833
47685ION     NA56485   9.324   2.297   3.794 -0.2461  0.3791 -0.1924
47686ION     NA56486  14.193   5.408   4.317 -0.3341  0.4108  0.3899
47687ION     NA56487  24.741   4.695  31.081  0.5146  0.3282  0.1470
47688ION     NA56488  23.081   0.365  28.095 -0.0854  0.6346 -0.2669
47689ION     NA56489   8.745   6.296   3.289 -0.0667  0.0916  0.1988
47690ION     NA56490  14.182   7.010  23.615 -0.3532  0.3752 -0.2025
47691ION     NA56491   4.604   6.476  17.168 -0.2433 -0.3132 -0.2566
47692ION     NA56492  17.617   0.327  12.273  0.0043  0.1444 -0.1445
47693ION     NA56493  13.167   4.869  24.243  0.0974 -0.2642  0.1324
47694ION     NA56494   1.709   6.976   1.209 -0.0305 -0.0622  0.0972
47695ION     NA56495  19.650   2.009   7.707 -0.1821 -0.5792  0.3802
47696ION     NA56496  12.078   2.248  28.679 -0.0798 -0.4353  0.1827
47697ION     NA56497   5.244   7.466   5.771 -0.1381 -0.1063 -0.2781
47698ION     NA56498  10.020   0.033  22.444 -0.1858  0.4438 -0.1293
47699ION     NA56499  17.662   1.791   4.013 -0.0701  0.1188  0.1060
47700ION     NA56500  23.927   4.117  31.464  0.2031  0.2119 -0.0385
47701ION     NA56501  21.264   4.167  27.175  0.2901 -0.2919  0.0184
47702ION     NA56502   2.287   0.184   3.000 -0.2868  0.1974 -0.3503
47703ION     NA56503  15.013   5.655  10.244  0.0286  0.0049 -0.1882
47704ION     NA56504  10.144   1.221   8.155  0.1747  0.3250 -0.4135
47705ION     NA56505   9.558   4.078   7.532  0.0365  0.0601 -0.2112
47706ION     NA56506  12.798   3.920  11.531  0.1071  0.1396 -0.0457
47707ION     NA56507  16.050   0.443   6.110  0.3532 -0.3438  0.5853
47708ION     NA56508  20.664   2.792  29.700 -0.0051  0.4206 -0.0101
47709ION     NA56509  16.557   5.730  26.527 -0.0434 -0.1391 -0.1186
47710ION     NA56510  23.962   3.482  26.759  0.0770  0.1938 -0.5419
47711ION     NA56511  20.655   1.180   2.556 -0.0429 -0.0965  0.0675
47712ION     NA56512   4.908   4.657   6.471 -0.1978  0.5105  0.2659
47713ION     NA56513  19.978   2.227   4.034  0.1713 -0.2398 -0.1297
47714ION     NA56514  19.977   2.766  23.303  0.3131  0.0818 -0.0872
47715ION     NA56515   2.616   7.000  31.312  0.1863 -0.3375  0.4075
47716ION     NA56516   3.410   0.967  19.587 -0.2245  0.0068  0.1064
47717ION     NA56517   1.326   1.204  23.152 -0.2717 -0.0443  0.3867
47718ION     NA56518  21.136   2.003  32.266  0.2207  0.0002  0.3311
47719ION     NA56519  14.836   3.338  27.104 -0.1298 -0.0412 -0.1379
47720ION     NA56520  15.656   2.297  30.314 -0.1453  0.1588 -0.1126
47721ION     NA56521  20.387   7.601   4.860  0.2525  0.1265  0.2185
47722ION     NA56522   7.340   1.302   3.137 -0.0701 -0.0596  0.6442
47723ION     NA56523  19.326   5.332   1.739  0.4000 -0.1828 -0.1850
47724ION     NA56524   8.705   4.934  28.228 -0.1520  0.3542 -0.0657
47725ION     NA56525  22.847   3.149  28.053 -0.0058 -0.0834 -0.4705
47726ION     NA56526   3.985   6.970  23.653 -0.1938 -0.1320 -0.0682
47727ION     NA56527  17.006   4.068  29.437  0.0164 -0.1062  0.0249
47728ION     NA56528  10.265   2.985  18.373  0.4673  0.1646  0.1425
47729ION     NA56529   2.303   5.316  31.686 -0.1694 -0.6004  0.1326
47730ION     NA56530  24.708   5.759  23.204  0.1009 -0.2124 -0.2028
47731ION     NA56531   1.223   5.209   9.290 -0.1274  0.0080  0.1489
47732ION     NA56532  18.452   3.802  31.334  0.1161  0.4702  0.1114
47733ION     NA56533  18.815   6.099  12.198 -0.2951  0.3866  0.2756
47734ION     NA56534  20.364   1.586  25.665 -0.1305 -0.1213 -0.2486
47735ION     NA56535   0.951   5.162  11.410 -0.4192 -0.2044  0.5868
47736ION     NA56536   8.165   6.979  29.110  0.0739  0.3745 -0.2586
47737ION     NA56537   4.471   5.525  19.402 -0.3555  0.1524  0.1362
47738ION     NA56538   0.515   2.241   2.142  0.3268 -0.5780 -0.2599
47739ION     NA56539   4.037   6.970  31.283  0.1816  0.2850 -0.1170
47740ION     NA56540  21.143   3.655   0.738 -0.2118  0.3131  0.1877
47741ION     NA56541  14.410   0.544   1.491 -0.0327 -0.0892 -0.1040
47742ION     NA56542  10.521   1.398  28.218  0.0763 -0.3254  0.0763
47743ION     NA56543   8.308   2.354   2.076 -0.0951 -0.0066  0.0195
47744ION     NA56544  24.115   1.319  31.430  0.0391 -0.1803 -0.5441
47745ION     NA56545  21.763   4.112   1.551 -0.0875 -0.1472 -0.5721
47746ION     NA56546  21.241   3.297  27.293  0.0451  0.0036  0.0349
47747ION     NA56547  13.028   5.172  27.538 -0.0671 -0.0140 -0.3806
47748ION     NA56548   5.966   3.168  20.276  0.0847 -0.0713 -0.2954
47749ION     NA56549   2.819   1.127  30.976  0.2612 -0.2856 -0.0851
47750ION     NA56550  13.268   2.890   1.152 -0.3608 -0.0950 -0.1739
47751ION     NA56551  14.246   0.291  13.012 -0.1191  0.1461 -0.1330
47752ION     NA56552  23.518   1.296   2.417 -0.2490  0.1607  0.0408
47753ION     NA56553  13.952   6.642   0.673  0.1996 -0.0814 -0.0233
47754ION     NA56554   0.029   3.675   5.326 -0.1718 -0.3515  0.0130
47755ION     NA56555  14.802   2.954  32.533 -0.2732 -0.6156  0.3172
47756ION     NA56556  14.217   5.029  32.151  0.1533  0.5351 -0.4877
47757ION     NA56557   6.795   5.081  16.325 -0.2109  0.0943 -0.4439
47758ION     NA56558   5.093   3.355   7.982  0.3782 -0.3241 -0.0512
47759ION     NA56559  24.867   3.799   7.449  0.1145  0.0186  0.0776
47760ION     NA56560  12.027   0.018   2.085  0.4784 -0.0994 -0.1532
47761ION     NA56561  24.341   3.720  10.484 -0.0795 -0.3566  0.3243
47762ION     NA56562  24.991   3.995  30.642  0.6711  0.3929 -0.0023
47763ION     NA56563  20.371   0.795  24.512 -0.0124  0.1460  0.0362
47764ION     NA56564  22.533   5.390   0.255 -0.0101  0.1125  0.1002
47765ION     NA56565   7.250   3.840  28.697  0.1638 -0.0210  0.2313
47766ION     NA56566  19.101   5.159  28.925 -0.2819 -0.3646 -0.0104
47767ION     NA56567   9.396   6.929  28.740 -0.1081  0.3791  0.1122
47768ION     NA56568  17.812   0.968  14.314 -0.2449 -0.1175  0.4014
47769ION     NA56569  17.267   7.574  12.811  0.0215 -0.0315  0.1438
47770ION     NA56570  15.096   2.612  23.957 -0.2620  0.1987 -0.1285
47771ION     NA56571  25.059   4.257  23.866  0.5549  0.0704 -0.0735
47772ION     NA56572   6.066   7.723  19.639 -0.2774  0.2058 -0.0384
47773ION     NA56573   4.305   2.842   5.208 -0.2810 -0.4525  0.1216
47774ION     NA56574  18.352   5.687   4.433 -0.3125 -0.3530 -0.0374
47775ION     NA56575   2.010   5.983  20.194 -0.0756 -0.3178  0.1283
47776ION     NA56576  12.718   5.428   0.871 -0.3414  0.3070  0.1251
47777ION     NA56577   0.209   0.882  31.895 -0.1404  0.2020 -0.0131
47778ION     NA56578  17.826   6.540  22.861  0.0700 -0.3577  0.2336
47779ION     NA56579  20.281   2.839  14.704 -0.0901 -0.2573  0.0300
47780ION     NA56580   2.670   5.777  24.917 -0.0863  0.0102 -0.2078
47781ION     NA56581   3.453   6.017  23.118 -0.4827 -0.1368 -0.0755
47782ION     NA56582   8.226   4.299   9.298 -0.0165  0.3543 -0.2349
47783ION     NA56583  22.160   0.409  24.722  0.5009  0.0504 -0.4443
47784ION     NA56584   0.377   0.198  10.083  0.1062  0.1546 -0.1333
47785ION     NA56585   7.438   2.795  24.542 -0.1290  0.0408  0.1463
47786ION     NA56586   7.290   5.909   1.413 -0.5221 -0.0542  0.3173
47787ION     NA56587   3.688   2.743   8.467  0.1721 -0.4837 -0.3296
47788ION     NA56588   9.560   5.804   5.356  0.1509 -0.0998  0.1623
47789ION     NA56589  24.931   1.123   7.279 -0.0846 -0.5295  0.2308
47790ION     NA56590  21.314   3.379   1.489  0.0162 -0.5135 -0.0031
47791ION     NA56591  23.183   1.381   3.404 -0.1345 -0.3883 -0.4102
47792ION     NA56592  24.943   1.164  32.406 -0.2317 -0.1717 -0.1313
47793ION     NA56593   5.278   4.653  23.241  0.6082  0.3199 -0.0061
47794ION     NA56594  18.019   3.865  10.518 -0.1989 -0.1546  0.3281
47795ION     NA56595  10.324   1.363  30.584 -0.1185  0.2610 -0.0309
47796ION     NA56596  21.951   1.452  29.683 -0.2125  0.7023  0.1760
47797ION     NA56597  22.793   6.543  25.929 -0.0865 -0.1857 -0.2212
47798ION     NA56598   5.136   0.913   1.059 -0.1333 -0.1432  0.1957
47799ION     NA56599  11.514   5.800  25.903  0.3381 -0.0549 -0.0524
47800ION     NA56600  12.779   1.214   6.666 -0.1342 -0.0885  0.1402
47801ION     NA56601   5.860   4.330  26.281 -0.0690  0.3767 -0.1105
47802ION     NA56602  16.777   2.141   7.211  0.0096 -0.2874  0.2713
47803ION     NA56603   3.036   1.009  18.001  0.1882 -0.3961  0.0136
47804ION     CL56604   9.465   5.484   4.234  0.0189  0.0798  0.3676
47805ION     CL56605   3.928   1.295   1.539 -0.2649  0.0173 -0.5574
47806ION     CL56606  23.386   4.504  13.812  0.3302  0.2282  0.2627
47807ION     CL56607  16.308   2.773   0.588 -0.0122 -0.4298 -0.3204
47808ION     CL56608   9.764   7.391   3.626 -0.2044  0.4141  0.0888
47809ION     CL56609  14.810   3.293   8.420  0.1038  0.4103  0.1712
47810ION     CL56610  18.922   0.923  23.675 -0.0974  0.2411  0.2135
47811ION     CL56611  20.087   2.514   4.697 -0.0870  0.3772  0.0205
47812ION     CL56612  18.538   2.868   6.995 -0.1048  0.2819  0.4870
47813ION     CL56613   0.593   7.142  25.119  0.4505 -0.1160  0.1187
47814ION     CL56614  22.327   1.870  10.636 -0.3577 -0.1700 -0.0707
47815ION     CL56615  19.921   7.060  17.680 -0.2250 -0.1586 -0.0016
47816ION     CL56616  24.718   3.981   5.352  0.2046  0.2303 -0.0041
47817ION     CL56617  20.217   2.058  29.561  0.0470 -0.1318 -0.2324
47818ION     CL56618   4.327   7.573  20.048  0.0060  0.2434  0.0691
47819ION     CL56619  18.606   0.349  10.920 -0.1284  0.3106 -0.0862
47820ION     CL56620   2.400   1.775   0.142  0.1136 -0.3587  0.0262
47821ION     CL56621   9.580   1.406  24.988 -0.0683  0.4671 -0.3783
47822ION     CL56622   8.063   0.333  24.564  0.4587  0.0075  0.5284
47823ION     CL56623  21.376   1.438   2.486  0.1591  0.2737  0.2829
47824ION     CL56624  21.889   1.782  28.504 -0.2162 -0.2268  0.4465
47825ION     CL56625  13.227   7.859  31.216  0.0090  0.1738 -0.2016
47826ION     CL56626  12.629   7.854  27.261 -0.2983 -0.3885  0.0520
47827ION     CL56627   0.627   1.125   3.955 -0.4457  0.1093 -0.2125
47828ION     CL56628  13.529   5.557  26.406  0.2733  0.1761 -0.3945
47829ION     CL56629  16.177   3.840  24.124  0.0238 -0.5661  0.0034
47830ION     CL56630   8.223   7.335  25.599  0.0344 -0.1972 -0.0243
47831ION     CL56631  19.488   4.992   4.366  0.2350  0.0926 -0.0910
47832ION     CL56632  15.836   1.728  30.069  0.2822 -0.2194 -0.0807
47833ION     CL56633   6.842   3.499  28.319 -0.0615 -0.0652  0.2094
47834ION     CL56634  16.703   1.184   2.309  0.2153  0.0350  0.4471
47835ION     CL56635  14.130   3.636   5.674  0.0936  0.1524 -0.1652
47836ION     CL56636  22.105   0.673  15.712 -0.8142  0.1274 -0.2057
47837ION     CL56637   5.056   0.325   4.005  0.1233 -0.5362 -0.4812
47838ION     CL56638  17.738   5.996  23.364 -0.2363  0.0113 -0.1562
47839ION     CL56639  17.231   0.504  10.906 -0.2910  0.8570  0.7024
47840ION     CL56640  20.715   1.106  23.708 -0.3618 -0.3834 -0.2973
47841ION     CL56641  19.674   2.523   0.159 -0.0035 -0.2231  0.1409
47842ION     CL56642  10.827   1.894  22.470 -0.0927 -0.2401  0.0601
47843ION     CL56643   8.761   7.392  18.370 -0.1994  0.2297  0.1816
47844ION     CL56644   4.668   4.855   6.583 -0.1378 -0.3825 -0.3698
47845ION     CL56645  13.255   1.634   4.483  0.3164  0.2536 -0.1494
47846ION     CL56646   8.593   4.454   2.885 -0.2243 -0.1911 -0.0620
47847ION     CL56647  12.932   0.982   6.883  0.0955  0.3311 -0.0574
47848ION     CL56648   4.243   2.469   1.965  0.4673 -0.0302 -0.3162
47849ION     CL56649  17.411   6.511   4.901 -0.1720 -0.0863 -0.2858
47850ION     CL56650  18.352   4.493   4.602  0.1978  0.0744 -0.0697
47851ION     CL56651   1.131   4.585  30.251  0.2506  0.1050 -0.0598
47852ION     CL56652  16.965   6.487   4.166  0.3318 -0.2048 -0.3869
47853ION     CL56653  17.060   5.578   9.439  0.3450  0.2265 -0.4041
47854ION     CL56654  12.794   2.913   1.347 -0.0394  0.2300 -0.0167
47855ION     CL56655  14.690   6.812  32.291 -0.0709 -0.1743 -0.1651
47856ION     CL56656  21.193   3.771   1.521 -0.6052 -0.1065 -0.0365
47857ION     CL56657   9.426   6.331   8.762 -0.0358  0.1907 -0.2791
47858ION     CL56658  14.030   2.082  25.999 -0.0418 -0.3006  0.2382
47859ION     CL56659  20.975   7.130  12.131 -0.2420  0.3332  0.2428
47860ION     CL56660   5.327   3.034  28.012 -0.1809  0.0561  0.0687
47861ION     CL56661   0.553   6.800   4.738  0.1695  0.2186 -0.2049
47862ION     CL56662   4.501   7.609  18.888  0.1758 -0.0352 -0.4955
47863ION     CL56663   4.037   7.512  32.379 -0.0379  0.3096  0.0051
47864ION     CL56664   2.656   5.030   0.613 -0.0252  0.3744  0.4450
47865ION     CL56665   6.988   4.974  31.324 -0.2009 -0.0616 -0.2188
47866ION     CL56666  10.375   1.547   7.450  0.0328 -0.2555 -0.2880
47867ION     CL56667  11.900   0.773  19.673 -0.1867  0.0360  0.2771
47868ION     CL56668   6.821   3.851   4.408  0.1450  0.0096 -0.2037
47869ION     CL56669  15.349   0.865   7.261  0.2587 -0.2672  0.3299
47870ION     CL56670   7.828   3.544  32.336 -0.1300 -0.1332  0.1688
47871ION     CL56671   9.855   7.172  23.646 -0.3027 -0.4071 -0.1899
47872ION     CL56672  22.076   2.372   7.716  0.2678  0.0562  0.0656
47873ION     CL56673   9.234   4.368  21.143 -0.7789 -0.1578 -0.1858
47874ION     CL56674   5.642   1.390   2.336 -0.3436 -0.1560 -0.5029
47875ION     CL56675   9.176   0.718  22.258 -0.6879  0.4824 -0.1998
47876ION     CL56676  23.303   5.123  25.607 -0.1453 -0.2978 -0.3797
47877ION     CL56677  23.967   2.905  29.727 -0.3832 -0.0127 -0.1345
47878ION     CL56678  18.002   0.878   8.985 -0.1285  0.3966  0.1161
47879ION     CL56679  21.540   6.680  11.017 -0.0548 -0.2970  0.2663
47880ION     CL56680   1.658   1.666  32.455  0.0954  0.3690 -0.3673
47881ION     CL56681  19.779   0.980  24.364  0.1411 -0.2858  0.3271
47882ION     CL56682  10.585   3.164  18.735 -0.1905 -0.0646 -0.2016
47883ION     CL56683  15.165   1.137  26.496 -0.3281  0.3999 -0.1555
47884ION     CL56684   6.504   4.945  26.145 -0.4463  0.0479  0.1396
47885ION     CL56685   1.649   2.346  24.774 -0.3174 -1.0738  0.2610
47886ION     CL56686  17.355   7.766  23.053 -0.1364  0.0258 -0.0305
47887ION     CL56687  14.486   4.716  26.709 -0.2295  0.2569 -0.0891
47888ION     CL56688   6.470   4.522  30.536  0.3551 -0.0812  0.1329
47889ION     CL56689   6.973   4.886   9.991  0.3038  0.2191 -0.2032
47890ION     CL56690  16.628   7.513   6.001  0.3455  0.2688 -0.5183
47891ION     CL56691  21.638   0.749   4.602 -0.0835  0.0194 -0.2842
47892ION     CL56692   4.143   4.891  16.898 -0.1466  0.4643 -0.0049
47893ION     CL56693  10.831   7.689  26.074  0.5424 -0.0897  0.2545
47894ION     CL56694  10.919   1.311  19.112  0.1049  0.0130 -0.1764
47895ION     CL56695   9.132   1.917  26.710  0.1474  0.2637 -0.3055
47896ION     CL56696  15.383   3.620  28.738 -0.1039  0.1114 -0.0534
47897ION     CL56697  12.842   1.985   9.900 -0.4032  0.1085  0.0111
47898ION     CL56698   6.806   0.285   7.886 -0.0237  0.0726  0.1689
47899ION     CL56699  11.421   1.831   0.654  0.0657  0.3480 -0.1081
47900ION     CL56700   9.056   4.353   4.764 -0.0923 -0.1319  0.1922
47901ION     CL56701   1.715   6.829   0.892 -0.3488  0.2689 -0.0001
47902ION     CL56702   9.386   5.018   9.622  0.0787  0.3249  0.4231
47903ION     CL56703  11.706   3.813  31.178  0.0314  0.1130  0.2692
47904ION     CL56704   5.759   7.716  21.905 -0.0802 -0.0165  0.1936
47905ION     CL56705   4.333   4.314  28.149 -0.2536  0.3000  0.2003
47906ION     CL56706   0.967   5.516   9.435  0.1638  0.0198  0.0936
47907ION     CL56707  24.803   5.426   6.654 -0.1007  0.1743 -0.2680
47908ION     CL56708   8.988   1.350   4.074 -0.5947 -0.1959 -0.0454
47909ION     CL56709  14.112   2.946  11.101 -0.0534  0.2189  0.0211
47910ION     CL56710  17.436   7.835  24.066  0.0688 -0.2824 -0.0763
47911ION     CL56711  21.561   1.485  32.270 -0.1844 -0.0773 -0.1837
47912ION     CL56712  23.690   1.412   5.212 -0.2018 -0.0016 -0.4290
47913ION     CL56713   6.724   5.720   3.937 -0.0381 -0.3250  0.1224
47914ION     CL56714   2.068   3.406   5.449  0.2323 -0.2345 -0.3706
47915ION     CL56715   4.672   4.283   3.507 -0.4786  0.0468 -0.6085
47916ION     CL56716  17.391   6.195   9.693 -0.2889 -0.3968  0.1041
47917ION     CL56717   6.078   2.806  20.484 -0.2308  0.3389 -0.4099
47918ION     CL56718  22.830   0.565  28.059 -0.3673  0.5814 -0.0760
47919ION     CL56719  19.950   1.690   3.951  0.0976  0.1701 -0.3727
47920ION     CL56720  13.011   5.851  23.605 -0.2645  0.0792 -0.0029
47921ION     CL56721  13.054   4.020  29.969 -0.0920 -0.5896 -0.1844
47922ION     CL56722  22.945   5.360  14.869  0.1081  0.1664 -0.1116
47923ION     CL56723  23.516   2.528   5.450  0.1063  0.1197 -0.2140
47924ION     CL56724  24.227   0.361  13.426 -0.1759 -0.2778 -0.2430
47925ION     CL56725  22.696   6.723  13.618 -0.1155  0.3424  0.0084
47926ION     CL56726  18.690   0.957   4.247 -0.1112  0.3669 -0.1303
47927ION     CL56727   9.092   5.703   3.399 -0.2299  0.0027 -0.4991
47928ION     CL56728  14.702   2.400   7.600  0.6097  0.2314  0.5160
47929ION     CL56729   2.417   5.297  20.417  0.0944 -0.2115 -0.2564
47930ION     CL56730  15.193   5.086  11.526 -0.4102 -0.3541 -0.2940
47931ION     CL56731  13.794   7.340   3.599  0.1579 -0.1424  0.1462
47932ION     CL56732   6.900   3.088  15.101  0.2703  0.0207 -0.2858
47933ION     CL56733  15.420   6.827   9.950 -0.2217 -0.0340  0.0037
47934ION     CL56734  18.595   2.787  25.359 -0.0868  0.0197  0.1615
47935ION     CL56735  15.661   5.668  23.281 -0.6172  0.4817 -0.1285
47936ION     CL56736  18.249   7.669  14.923 -0.0333 -0.1450  0.2649
47937ION     CL56737   5.485   2.647  21.434 -0.3592  0.5328  0.1814
47938ION     CL56738   5.774   4.634   3.336  0.5875 -0.2360  0.2451
47939ION     CL56739   9.565   4.035  19.020  0.0710 -0.1080 -0.2882
47940ION     CL56740   5.959   3.739   4.476  0.5959 -0.3150  0.3950
47941ION     CL56741  18.574   6.952   6.835  0.0031  0.0779 -0.0575
47942ION     CL56742  15.891   3.744  14.636  0.0136 -0.1218 -0.1983
47943ION     CL56743   4.407   6.203  16.480 -0.0261 -0.2141  0.2321
47944ION     CL56744   1.262   3.346  28.548  0.2008 -0.3735  0.0465
47945ION     CL56745  24.186   0.596  27.569 -0.4146  0.0221 -0.0110
47946ION     CL56746  12.903   6.974   4.404 -0.3242  0.4255  0.1366
47947ION     CL56747   6.541   1.855  23.516  0.1757 -0.0661  0.1748
47948ION     CL56748  20.494   2.445   7.386 -0.2247 -0.0092 -0.2933
  25.15308   7.86032  32.58056
