INSANE! Membrane UpperLeaflet>DOPC=100.0 LowerLeaflet>DOPC=100.0
56748
    1DOPC   NC3    1   9.174   5.342  15.246 -0.1170 -0.1788 -0.2334
    1DOPC   PO4    2   9.148   5.685  15.205 -0.1170  0.1074  0.2259
    1DOPC   GL1    3   9.138   5.815  14.866  0.0553  0.5062  0.0609
    1DOPC   GL2    4   9.353   5.987  14.757  0.0514 -0.3309 -0.1505
    1DOPC   C1A    5   8.862   5.845  14.476  0.2335 -0.0244  0.3408
    1DOPC   D2A    6   8.559   5.768  14.047 -0.1125  0.1388 -0.0003
    1DOPC   C3A    7   8.693   5.553  13.643  0.2034  0.0427 -0.0691
    1DOPC   C4A    8   8.737   5.106  13.524 -0.2564  0.2939  0.1041
    1DOPC   C1B    9   9.340   6.076  14.291 -0.0495 -0.3397 -0.1180
    1DOPC   D2B   10   9.665   5.966  13.945  0.0475  0.1439  0.0960
    1DOPC   C3B   11   9.902   5.787  13.574 -0.1414  0.1871  0.0931
    1DOPC   C4B   12  10.233   5.635  13.256  0.0711 -0.0762  0.0620
    2DOPC   NC3   13  28.270   4.317  15.104 -0.2142  0.1875  0.2089
    2DOPC   PO4   14  28.104   4.115  14.832  0.2423  0.2280  0.2219
    2DOPC   GL1   15  28.013   4.139  14.444  0.1568 -0.0977 -0.1569
    2DOPC   GL2   16  27.959   4.379  14.517  0.1196 -0.1141  0.0033
    2DOPC   C1A   17  27.893   3.995  14.070  0.0375 -0.0817  0.0401
    2DOPC   D2A   18  27.520   3.893  13.711 -0.2938  0.3057 -0.1286
    2DOPC   C3A   19  27.348   3.803  13.270 -0.4007 -0.0228 -0.0161
    2DOPC   C4A   20  26.936   3.829  12.965  0.0844 -0.1784 -0.3826
    2DOPC   C1B   21  27.847   4.465  14.055  0.1370 -0.0743  0.1741
    2DOPC   D2B   22  27.661   4.514  13.576 -0.2432 -0.1514 -0.1218
    2DOPC   C3B   23  27.249   4.315  13.624 -0.0790 -0.0194  0.0690
    2DOPC   C4B   24  26.878   4.013  13.411 -0.2793 -0.0914  0.2695
    3DOPC   NC3   25   2.975   1.826  15.000 -0.1126 -0.1989  0.1714
    3DOPC   PO4   26   3.282   1.579  15.001 -0.1021  0.0280 -0.0603
    3DOPC   GL1   27   3.553   1.665  14.631 -0.0872  0.2678  0.1321
    3DOPC   GL2   28   3.343   1.865  14.543 -0.0832  0.2529  0.5070
    3DOPC   C1A   29   3.601   1.461  14.305  0.0843  0.0641 -0.3102
    3DOPC   D2A   30   3.281   1.090  14.080 -0.0586  0.0423  0.3012
    3DOPC   C3A   31   3.188   0.880  13.667  0.2989 -0.2500 -0.1983
    3DOPC   C4A   32   2.931   0.628  13.315  0.1028 -0.2195  0.0190
    3DOPC   C1B   33   3.374   2.239  14.264 -0.0236 -0.1221  0.1664
    3DOPC   D2B   34   3.471   2.656  13.985  0.0697  0.1272 -0.0687
    3DOPC   C3B   35   3.561   2.650  13.527  0.1458 -0.2919 -0.1352
    3DOPC   C4B   36   3.668   2.357  13.169 -0.2178 -0.3127 -0.0412
    4DOPC   NC3   37  12.278   1.959  15.858 -0.3676 -0.2013  0.0215
    4DOPC   PO4   38  12.546   2.203  15.622 -0.1085 -0.2406 -0.1854
    4DOPC   GL1   39  12.799   2.266  15.252  0.1727 -0.0870  0.3419
    4DOPC   GL2   40  12.618   2.563  15.292  0.0820  0.0065  0.1877
    4DOPC   C1A   41  12.851   2.261  14.874 -0.0468  0.2345  0.1089
    4DOPC   D2A   42  12.946   2.200  14.395 -0.0758 -0.0473 -0.2274
    4DOPC   C3A   43  12.882   2.285  13.939 -0.0764 -0.0723 -0.1017
    4DOPC   C4A   44  12.945   2.397  13.463  0.1591  0.3594  0.0821
    4DOPC   C1B   45  12.227   2.651  15.106 -0.1174  0.0445  0.3205
    4DOPC   D2B   46  12.129   2.919  14.658  0.2167  0.3363  0.0016
    4DOPC   C3B   47  12.487   2.987  14.357 -0.0104 -0.1380 -0.0367
    4DOPC   C4B   48  12.716   3.141  13.935 -0.1512  0.2091  0.3540
    5DOPC   NC3   49   9.401   0.775  15.133 -0.0030 -0.2195 -0.0593
    5DOPC   PO4   50   9.642   1.061  15.201 -0.2974 -0.1072  0.0128
    5DOPC   GL1   51  10.018   1.002  14.867  0.1741  0.1450  0.0909
    5DOPC   GL2   52   9.733   0.866  14.777 -0.1039  0.3120  0.1434
    5DOPC   C1A   53  10.239   1.186  14.544  0.0398  0.1084  0.2893
    5DOPC   D2A   54  10.363   1.421  14.154 -0.1520  0.0272 -0.1825
    5DOPC   C3A   55  10.312   1.791  13.869 -0.1924  0.1114 -0.2480
    5DOPC   C4A   56  10.198   2.130  13.562 -0.1176 -0.0503 -0.4830
    5DOPC   C1B   57   9.924   0.772  14.441 -0.0331 -0.0123  0.3900
    5DOPC   D2B   58  10.371   0.794  14.240 -0.1434 -0.0557 -0.1017
    5DOPC   C3B   59  10.418   0.972  13.790 -0.0361 -0.2289  0.1526
    5DOPC   C4B   60  10.423   1.183  13.344  0.1115  0.1710  0.1616
    6DOPC   NC3   61   8.644   4.809  15.329  0.0677  0.0594 -0.2353
    6DOPC   PO4   62   8.835   5.022  15.014  0.1000  0.0948 -0.0228
    6DOPC   GL1   63   8.878   4.666  14.713  0.0252  0.0431 -0.2347
    6DOPC   GL2   64   8.612   4.774  14.623 -0.0090 -0.4369 -0.1458
    6DOPC   C1A   65   8.864   4.772  14.275  0.1036  0.0104  0.2508
    6DOPC   D2A   66   9.110   4.592  13.881 -0.0285  0.1633  0.4660
    6DOPC   C3A   67   9.144   4.750  13.432 -0.0093 -0.0054  0.1482
    6DOPC   C4A   68   9.290   4.931  13.029  0.2340  0.0115 -0.1933
    6DOPC   C1B   69   8.226   4.510  14.652 -0.0637  0.2041  0.0064
    6DOPC   D2B   70   7.838   4.204  14.500 -0.1373  0.2426  0.1264
    6DOPC   C3B   71   7.743   3.850  14.210 -0.3250 -0.0262  0.0172
    6DOPC   C4B   72   7.318   3.675  14.119  0.0837 -0.1538 -0.1890
    7DOPC   NC3   73  14.333   3.649  15.197 -0.0349  0.0703 -0.1804
    7DOPC   PO4   74  14.744   3.604  15.303  0.1814 -0.1517 -0.0082
    7DOPC   GL1   75  14.784   3.360  14.954 -0.1399 -0.1262 -0.0467
    7DOPC   GL2   76  14.776   3.106  15.023  0.0072  0.3260  0.1702
    7DOPC   C1A   77  14.753   3.472  14.537 -0.1448 -0.0445  0.1087
    7DOPC   D2A   78  14.695   3.566  14.044 -0.0217 -0.1859 -0.0672
    7DOPC   C3A   79  15.020   3.764  13.837 -0.1917  0.2940  0.1718
    7DOPC   C4A   80  15.102   3.750  13.351 -0.2547  0.0137 -0.1836
    7DOPC   C1B   81  14.381   3.193  14.886  0.0330  0.0255 -0.2423
    7DOPC   D2B   82  13.986   3.298  14.568 -0.0868 -0.0235  0.0777
    7DOPC   C3B   83  13.732   3.580  14.271 -0.2827 -0.1748  0.0324
    7DOPC   C4B   84  13.675   3.838  13.912  0.2537 -0.3638 -0.1453
    8DOPC   NC3   85  26.815   7.039  15.211 -0.0247  0.0635 -0.0870
    8DOPC   PO4   86  26.980   7.286  14.956 -0.3509 -0.1102 -0.0197
    8DOPC   GL1   87  26.946   7.296  14.493 -0.2118 -0.0027 -0.1283
    8DOPC   GL2   88  27.117   7.031  14.491 -0.1541  0.0801 -0.1633
    8DOPC   C1A   89  26.837   7.295  14.073 -0.0102  0.1792 -0.1312
    8DOPC   D2A   90  26.534   7.117  13.705 -0.3570 -0.0237 -0.2251
    8DOPC   C3A   91  26.413   6.831  13.473  0.1703 -0.1864 -0.0986
    8DOPC   C4A   92  26.292   6.651  13.041  0.0945 -0.1190  0.1050
    8DOPC   C1B   93  27.248   6.984  14.100 -0.2255  0.0124 -0.2364
    8DOPC   D2B   94  27.469   7.021  13.654  0.0710  0.0416 -0.1967
    8DOPC   C3B   95  27.353   7.254  13.198 -0.2086 -0.0322 -0.2322
    8DOPC   C4B   96  27.281   7.717  12.979  0.1942 -0.1401 -0.0462
    9DOPC   NC3   97  17.891   1.213  15.214  0.4152 -0.0806  0.0446
    9DOPC   PO4   98  17.516   1.076  15.291  0.0289 -0.0291 -0.0819
    9DOPC   GL1   99  17.113   1.173  15.125  0.2012  0.0320 -0.0347
    9DOPC   GL2  100  17.222   1.453  15.066  0.1834 -0.0835 -0.3147
    9DOPC   C1A  101  17.174   1.131  14.640  0.3429 -0.1243 -0.0331
    9DOPC   D2A  102  17.118   1.434  14.260 -0.1601  0.0788  0.4890
    9DOPC   C3A  103  17.298   1.441  13.886 -0.0572  0.3531  0.0058
    9DOPC   C4A  104  17.602   1.507  13.512 -0.3653 -0.1006  0.0194
    9DOPC   C1B  105  17.104   1.716  14.750 -0.0594  0.3387  0.0299
    9DOPC   D2B  106  17.032   2.009  14.318  0.4680  0.0313 -0.0571
    9DOPC   C3B  107  16.981   2.314  14.039 -0.0543 -0.4075 -0.1590
    9DOPC   C4B  108  17.001   2.679  13.668  0.0571 -0.0066 -0.1749
   10DOPC   NC3  109   9.713   6.854  15.108 -0.3104  0.1902 -0.1292
   10DOPC   PO4  110   9.925   6.846  14.758 -0.2184  0.1451  0.0842
   10DOPC   GL1  111   9.941   6.739  14.327  0.3181 -0.0205  0.0525
   10DOPC   GL2  112   9.727   6.652  14.395  0.0631 -0.2759 -0.1498
   10DOPC   C1A  113  10.184   6.656  13.941 -0.0053  0.2224  0.0329
   10DOPC   D2A  114  10.421   6.516  13.468  0.3013 -0.1650 -0.2418
   10DOPC   C3A  115  10.740   6.344  13.147 -0.1360  0.1760  0.0651
   10DOPC   C4A  116  11.049   6.287  12.738  0.2946 -0.2503  0.2328
   10DOPC   C1B  117   9.609   6.458  14.053  0.1198  0.0872 -0.0685
   10DOPC   D2B  118   9.398   6.235  13.631  0.0939 -0.1705 -0.4372
   10DOPC   C3B  119   9.375   6.711  13.502 -0.3222  0.1762  0.3094
   10DOPC   C4B  120   9.271   7.190  13.320 -0.2984  0.1152  0.0336
   11DOPC   NC3  121   3.418   5.887  14.825  0.0246  0.0539  0.0437
   11DOPC   PO4  122   3.536   5.721  14.515  0.3085 -0.0792  0.0068
   11DOPC   GL1  123   3.621   6.005  14.188 -0.1621 -0.1982 -0.4906
   11DOPC   GL2  124   3.326   5.970  14.175  0.1192 -0.5812  0.1048
   11DOPC   C1A  125   3.974   6.282  14.001 -0.1094 -0.0899 -0.2421
   11DOPC   D2A  126   4.447   6.245  13.780  0.0538  0.2851 -0.2056
   11DOPC   C3A  127   4.709   5.866  13.516 -0.0568  0.0103 -0.1605
   11DOPC   C4A  128   5.123   5.725  13.443  0.1272  0.0171  0.0183
   11DOPC   C1B  129   3.118   5.874  13.788  0.0333 -0.1368 -0.1220
   11DOPC   D2B  130   2.777   5.830  13.431 -0.0221 -0.0249 -0.0088
   11DOPC   C3B  131   2.712   5.940  12.968 -0.0374 -0.0046  0.1302
   11DOPC   C4B  132   2.628   6.008  12.476  0.0077 -0.0854 -0.0269
   12DOPC   NC3  133  30.125   3.333  14.868  0.1099 -0.0809  0.0097
   12DOPC   PO4  134  29.717   3.362  14.750  0.0857  0.1190  0.3733
   12DOPC   GL1  135  29.643   3.308  14.254 -0.1200  0.1136  0.2066
   12DOPC   GL2  136  29.643   3.067  14.285  0.0636 -0.2597 -0.2423
   12DOPC   C1A  137  29.759   3.614  13.924  0.0349  0.1052  0.0431
   12DOPC   D2A  138  29.789   4.081  13.723  0.4467 -0.0631  0.1082
   12DOPC   C3A  139  29.769   3.759  13.380 -0.2010 -0.1079 -0.0413
   12DOPC   C4A  140  29.690   3.585  12.923  0.0297  0.0440  0.2446
   12DOPC   C1B  141  29.482   3.008  13.847  0.1175 -0.0829  0.0922
   12DOPC   D2B  142  29.457   2.777  13.429  0.2997 -0.1082 -0.1514
   12DOPC   C3B  143  29.579   2.751  13.017  0.0629  0.1096 -0.0181
   12DOPC   C4B  144  29.828   2.581  12.573 -0.2801  0.2235  0.0819
   13DOPC   NC3  145   7.022   0.943  14.776  0.1562 -0.0041  0.0525
   13DOPC   PO4  146   6.975   0.653  14.515 -0.2443 -0.1021 -0.1659
   13DOPC   GL1  147   6.981   0.709  14.021  0.2605  0.5451 -0.4537
   13DOPC   GL2  148   6.892   0.463  14.017  0.0769  0.5556 -0.0156
   13DOPC   C1A  149   7.041   1.002  13.697  0.3797 -0.2963 -0.3209
   13DOPC   D2A  150   6.695   1.255  13.392 -0.2229  0.1357 -0.2144
   13DOPC   C3A  151   6.371   1.098  13.112 -0.0308  0.1076  0.2328
   13DOPC   C4A  152   5.936   1.274  12.989  0.1937  0.2238 -0.0964
   13DOPC   C1B  153   6.861   0.118  13.732  0.0065  0.0639  0.0933
   13DOPC   D2B  154   6.676  -0.064  13.319  0.1302  0.1496  0.2379
   13DOPC   C3B  155   6.365  -0.234  13.017 -0.2656  0.0454  0.1094
   13DOPC   C4B  156   6.039  -0.313  12.653  0.1212  0.1947 -0.2056
   14DOPC   NC3  157  23.500   7.660  15.327 -0.1721  0.2234 -0.0192
   14DOPC   PO4  158  23.584   7.334  15.183  0.0806  0.0443 -0.1133
   14DOPC   GL1  159  23.892   7.311  14.860  0.2227 -0.3947  0.4876
   14DOPC   GL2  160  23.681   7.371  14.697  0.2195  0.0325  0.0218
   14DOPC   C1A  161  24.168   7.033  14.607 -0.1335  0.1003  0.6130
   14DOPC   D2A  162  24.529   6.882  14.322  0.0828 -0.1418  0.1404
   14DOPC   C3A  163  24.923   6.904  14.006  0.1341 -0.1360 -0.0168
   14DOPC   C4A  164  25.285   6.695  13.632  0.1845 -0.0908  0.1359
   14DOPC   C1B  165  23.387   7.186  14.462  0.1105  0.0166 -0.1997
   14DOPC   D2B  166  23.385   7.032  13.932  0.0941  0.2463  0.0196
   14DOPC   C3B  167  23.384   6.781  13.504 -0.1727  0.1982  0.1810
   14DOPC   C4B  168  23.356   7.045  13.080 -0.3335 -0.1129  0.1581
   15DOPC   NC3  169  11.777   1.519  15.700 -0.0298  0.2478  0.0738
   15DOPC   PO4  170  12.186   1.506  15.727 -0.0333 -0.1849  0.2571
   15DOPC   GL1  171  12.224   1.837  15.399 -0.1335 -0.1241 -0.1102
   15DOPC   GL2  172  12.510   1.825  15.430 -0.1137  0.2283 -0.1793
   15DOPC   C1A  173  12.001   1.860  15.042 -0.0154 -0.1194 -0.0034
   15DOPC   D2A  174  12.120   1.947  14.670  0.1252 -0.1434  0.2689
   15DOPC   C3A  175  12.529   1.852  14.419  0.0038 -0.2185  0.0182
   15DOPC   C4A  176  12.951   1.790  14.131 -0.0885  0.1826 -0.0593
   15DOPC   C1B  177  12.756   1.752  15.075  0.4084 -0.1363  0.3578
   15DOPC   D2B  178  13.120   1.789  14.705 -0.0160  0.0935  0.0009
   15DOPC   C3B  179  13.122   1.396  14.471 -0.1232 -0.0603 -0.2055
   15DOPC   C4B  180  13.013   0.873  14.405  0.1815 -0.0188 -0.0751
   16DOPC   NC3  181  25.148   4.672  15.019  0.0884  0.2318 -0.3454
   16DOPC   PO4  182  25.137   5.067  15.072 -0.3999 -0.0165  0.5551
   16DOPC   GL1  183  24.996   5.007  14.666  0.0736 -0.6200 -0.1800
   16DOPC   GL2  184  25.109   5.358  14.651  0.1164 -0.3259 -0.0543
   16DOPC   C1A  185  24.963   4.850  14.296 -0.1860 -0.1104  0.0010
   16DOPC   D2A  186  24.958   4.824  13.847 -0.4142  0.0159 -0.2078
   16DOPC   C3A  187  24.794   4.857  13.441 -0.0029 -0.2011  0.0543
   16DOPC   C4A  188  24.679   5.050  12.993  0.0132  0.0133 -0.0776
   16DOPC   C1B  189  25.074   5.559  14.232 -0.0213  0.1261 -0.0934
   16DOPC   D2B  190  24.796   5.410  13.879  0.1266 -0.1842 -0.0393
   16DOPC   C3B  191  25.055   5.267  13.450 -0.0365  0.1876 -0.4341
   16DOPC   C4B  192  25.020   5.410  13.026  0.1751 -0.4882  0.1751
   17DOPC   NC3  193  17.231   4.514  15.872 -0.0010 -0.1090 -0.1858
   17DOPC   PO4  194  17.248   4.488  15.483  0.0681  0.0664 -0.4556
   17DOPC   GL1  195  17.172   4.359  15.163 -0.0373  0.5086  0.2420
   17DOPC   GL2  196  17.020   4.087  15.095  0.2543  0.1967  0.4281
   17DOPC   C1A  197  16.991   4.568  14.839 -0.0652  0.1611 -0.2136
   17DOPC   D2A  198  16.835   4.886  14.480  0.1267  0.0289  0.2178
   17DOPC   C3A  199  16.685   5.331  14.390  0.1882  0.0628  0.1575
   17DOPC   C4A  200  16.845   5.829  14.384  0.0380 -0.2038  0.1310
   17DOPC   C1B  201  16.885   4.025  14.628 -0.0571  0.1195 -0.0437
   17DOPC   D2B  202  16.707   3.792  14.179 -0.0502 -0.0493 -0.0998
   17DOPC   C3B  203  16.707   4.118  13.822 -0.0595 -0.1027  0.0901
   17DOPC   C4B  204  16.498   4.546  13.651 -0.0123 -0.1747 -0.0806
   18DOPC   NC3  205  22.497   4.165  15.555 -0.0403 -0.1406 -0.0440
   18DOPC   PO4  206  22.898   4.276  15.550  0.1158 -0.0838  0.2695
   18DOPC   GL1  207  23.014   4.324  15.134  0.0294  0.0140  0.1108
   18DOPC   GL2  208  22.831   4.048  15.103  0.3220 -0.0165 -0.2567
   18DOPC   C1A  209  23.209   4.080  14.861 -0.0439 -0.1540 -0.0283
   18DOPC   D2A  210  23.386   3.626  14.690 -0.0497 -0.0415  0.2441
   18DOPC   C3A  211  23.231   3.545  14.265 -0.0756 -0.2044 -0.1699
   18DOPC   C4A  212  23.203   3.350  13.857  0.1423 -0.1174 -0.1409
   18DOPC   C1B  213  22.615   4.197  14.729  0.3405  0.3064 -0.1443
   18DOPC   D2B  214  22.353   4.068  14.312 -0.1089 -0.1580  0.0608
   18DOPC   C3B  215  22.478   3.847  13.932  0.1285 -0.0841  0.1791
   18DOPC   C4B  216  22.586   3.489  13.596 -0.0646  0.1218 -0.0249
   19DOPC   NC3  217  23.646   2.483  14.926 -0.1307 -0.2418 -0.1407
   19DOPC   PO4  218  24.026   2.364  15.002 -0.0301 -0.1385 -0.0902
   19DOPC   GL1  219  24.140   2.191  14.614 -0.3991  0.1497 -0.0537
   19DOPC   GL2  220  24.364   2.030  14.689 -0.1720  0.0334  0.1761
   19DOPC   C1A  221  24.091   2.288  14.177 -0.1070  0.2352  0.1399
   19DOPC   D2A  222  23.946   2.317  13.720 -0.0372  0.1471 -0.1250
   19DOPC   C3A  223  23.566   1.985  13.586 -0.0990 -0.1189 -0.2101
   19DOPC   C4A  224  23.281   1.593  13.412 -0.0027  0.1524  0.2134
   19DOPC   C1B  225  24.477   1.796  14.340  0.0800 -0.1218 -0.0433
   19DOPC   D2B  226  24.602   1.478  13.985  0.0201  0.2587  0.1606
   19DOPC   C3B  227  24.487   1.335  13.536 -0.2364  0.3115  0.0200
   19DOPC   C4B  228  24.501   1.405  13.035 -0.0888 -0.2292 -0.0217
   20DOPC   NC3  229  18.036   2.769  15.808 -0.2727 -0.1897 -0.1415
   20DOPC   PO4  230  18.225   2.845  15.455 -0.0501 -0.0387  0.2979
   20DOPC   GL1  231  18.099   2.693  15.101  0.0653 -0.3447 -0.1750
   20DOPC   GL2  232  17.776   2.708  15.163 -0.0478 -0.0046 -0.0538
   20DOPC   C1A  233  18.441   2.519  14.857 -0.2709  0.5063  0.1629
   20DOPC   D2A  234  18.742   2.290  14.539 -0.1712 -0.1166 -0.2987
   20DOPC   C3A  235  18.753   2.321  14.102 -0.0985 -0.4270 -0.1507
   20DOPC   C4A  236  18.744   2.408  13.661 -0.0183 -0.1645 -0.0525
   20DOPC   C1B  237  17.697   3.046  14.940 -0.0061  0.0214 -0.4195
   20DOPC   D2B  238  17.616   3.498  14.710 -0.0445 -0.2416  0.3960
   20DOPC   C3B  239  17.789   3.783  14.318 -0.0898  0.1722  0.1137
   20DOPC   C4B  240  17.900   3.886  13.897  0.0602 -0.0235 -0.1922
   21DOPC   NC3  241   1.303   6.453  14.585  0.1160  0.1171  0.1695
   21DOPC   PO4  242   0.913   6.277  14.508  0.1541 -0.0846  0.0123
   21DOPC   GL1  243   1.006   6.630  14.251  0.1295  0.0780  0.2129
   21DOPC   GL2  244   0.759   6.732  14.337 -0.1555  0.3176 -0.2684
   21DOPC   C1A  245   0.837   6.553  13.820  0.0425 -0.0456  0.0934
   21DOPC   D2A  246   0.610   6.646  13.412 -0.1565 -0.0957  0.3259
   21DOPC   C3A  247   0.756   6.927  13.051 -0.0517  0.0308  0.0113
   21DOPC   C4A  248   0.428   7.120  12.759  0.0483  0.1468 -0.1396
   21DOPC   C1B  249   0.542   6.926  14.026 -0.1347  0.1345  0.0747
   21DOPC   D2B  250   0.335   7.028  13.517  0.0278  0.0163 -0.1183
   21DOPC   C3B  251   0.108   6.857  13.080 -0.1388 -0.0971  0.1570
   21DOPC   C4B  252   0.022   6.769  12.614 -0.0997  0.0219  0.0766
   22DOPC   NC3  253   4.212   6.417  14.486  0.0608 -0.1556 -0.2395
   22DOPC   PO4  254   3.922   6.701  14.566  0.3595 -0.1468  0.1339
   22DOPC   GL1  255   3.801   6.689  14.177 -0.1598 -0.1601  0.1619
   22DOPC   GL2  256   3.596   6.449  14.256  0.1651 -0.3764  0.1075
   22DOPC   C1A  257   3.631   6.828  13.767 -0.0937 -0.0015 -0.1994
   22DOPC   D2A  258   3.943   7.221  13.668  0.4495  0.0171 -0.1651
   22DOPC   C3A  259   3.756   7.540  13.404  0.1039  0.0567  0.3356
   22DOPC   C4A  260   3.616   7.836  13.098  0.2376 -0.3187  0.1287
   22DOPC   C1B  261   3.446   6.292  13.853  0.1915  0.2771 -0.3403
   22DOPC   D2B  262   3.460   6.389  13.377 -0.1796 -0.2659 -0.3662
   22DOPC   C3B  263   3.624   6.144  12.996 -0.0815 -0.2010  0.3763
   22DOPC   C4B  264   3.942   5.990  12.658  0.0014  0.1246  0.3919
   23DOPC   NC3  265  14.428   0.279  15.169  0.2303  0.0717 -0.0899
   23DOPC   PO4  266  14.309  -0.098  15.161  0.1842 -0.0471  0.0435
   23DOPC   GL1  267  13.920  -0.264  15.008  0.0768  0.1040 -0.0804
   23DOPC   GL2  268  14.022  -0.536  15.004 -0.2434  0.1241  0.0853
   23DOPC   C1A  269  13.695  -0.143  14.624 -0.1329 -0.2097  0.1066
   23DOPC   D2A  270  13.524   0.043  14.197  0.2215 -0.0405 -0.2131
   23DOPC   C3A  271  13.234   0.297  13.917  0.0459  0.1709 -0.1709
   23DOPC   C4A  272  12.939   0.446  13.525  0.0621 -0.3502  0.0319
   23DOPC   C1B  273  14.112  -0.383  14.558  0.2493 -0.0658 -0.1628
   23DOPC   D2B  274  14.128   0.007  14.206 -0.0009 -0.0683 -0.0089
   23DOPC   C3B  275  14.318   0.175  13.830 -0.1431  0.1643 -0.2515
   23DOPC   C4B  276  14.181   0.344  13.386  0.0937  0.0411 -0.1427
   24DOPC   NC3  277  21.550   2.741  15.501 -0.3215 -0.2200  0.0503
   24DOPC   PO4  278  21.715   2.769  15.149  0.0503 -0.0722  0.0237
   24DOPC   GL1  279  21.761   2.904  14.730  0.4905  0.0231  0.0153
   24DOPC   GL2  280  21.794   2.707  14.567 -0.1798  0.1637 -0.1434
   24DOPC   C1A  281  21.970   3.196  14.436  0.0631  0.0503  0.1272
   24DOPC   D2A  282  22.335   3.083  14.073 -0.2362  0.2526  0.1825
   24DOPC   C3A  283  22.292   3.034  13.599 -0.0413  0.1203 -0.0076
   24DOPC   C4A  284  22.156   3.425  13.358 -0.1094 -0.1172 -0.1158
   24DOPC   C1B  285  21.801   2.823  14.111 -0.2219  0.1236  0.3086
   24DOPC   D2B  286  21.844   3.150  13.762 -0.0390  0.3780 -0.1587
   24DOPC   C3B  287  22.140   3.492  13.912  0.1440 -0.0098  0.0609
   24DOPC   C4B  288  22.383   3.590  14.392  0.0646 -0.1716 -0.2481
   25DOPC   NC3  289  20.715   7.032  15.566  0.1891 -0.0149 -0.1320
   25DOPC   PO4  290  20.913   6.714  15.655 -0.0601 -0.3030  0.1656
   25DOPC   GL1  291  21.206   6.770  15.310  0.0032  0.0551 -0.0277
   25DOPC   GL2  292  21.141   6.504  15.188 -0.0696 -0.2826  0.1097
   25DOPC   C1A  293  21.270   6.870  14.962 -0.2841  0.1192  0.0173
   25DOPC   D2A  294  21.598   6.960  14.601 -0.1022  0.0080 -0.3161
   25DOPC   C3A  295  21.372   6.868  14.207 -0.0997 -0.1976 -0.0321
   25DOPC   C4A  296  21.285   6.980  13.734  0.3228 -0.2856  0.2662
   25DOPC   C1B  297  21.267   6.357  14.795 -0.2143 -0.2061  0.2086
   25DOPC   D2B  298  21.303   6.384  14.302 -0.0641 -0.0301  0.0914
   25DOPC   C3B  299  21.490   6.426  13.913 -0.0750  0.1022  0.1298
   25DOPC   C4B  300  21.853   6.572  13.655  0.4319 -0.0448  0.0734
   26DOPC   NC3  301  27.516   2.582  15.306  0.2537  0.0157  0.0356
   26DOPC   PO4  302  27.754   2.625  15.012 -0.0429  0.4219 -0.1410
   26DOPC   GL1  303  27.596   2.381  14.735  0.2928 -0.0538  0.2124
   26DOPC   GL2  304  27.555   2.567  14.553  0.0637  0.1555  0.2696
   26DOPC   C1A  305  27.329   2.144  14.454 -0.0646  0.4951 -0.2310
   26DOPC   D2A  306  27.193   2.162  14.017 -0.0541 -0.3859 -0.1306
   26DOPC   C3A  307  26.954   2.100  13.653  0.0092 -0.0711  0.0164
   26DOPC   C4A  308  26.597   2.017  13.285 -0.0122  0.3152 -0.0062
   26DOPC   C1B  309  27.862   2.919  14.326 -0.0241  0.1698  0.1643
   26DOPC   D2B  310  28.146   3.273  14.064 -0.1539  0.2754  0.0732
   26DOPC   C3B  311  28.131   3.245  13.622  0.1948 -0.0055  0.3492
   26DOPC   C4B  312  28.085   3.173  13.172 -0.1613 -0.0417  0.1017
   27DOPC   NC3  313   8.689   7.464  14.789  0.2744  0.0889  0.1556
   27DOPC   PO4  314   8.599   7.049  14.736 -0.1083 -0.1082  0.1616
   27DOPC   GL1  315   8.600   6.837  14.357  0.2304  0.2182 -0.0373
   27DOPC   GL2  316   8.616   6.552  14.440  0.0757 -0.1922 -0.1487
   27DOPC   C1A  317   8.737   6.781  13.943 -0.3256  0.1095 -0.1284
   27DOPC   D2A  318   8.874   6.916  13.455 -0.2283  0.0326  0.0074
   27DOPC   C3A  319   8.713   7.039  13.068 -0.1491 -0.2015 -0.0373
   27DOPC   C4A  320   8.376   7.283  12.723 -0.0402 -0.2151  0.1435
   27DOPC   C1B  321   8.855   6.298  14.185 -0.2065  0.1476 -0.0059
   27DOPC   D2B  322   9.054   5.901  13.928  0.0493 -0.0917 -0.1576
   27DOPC   C3B  323   8.999   5.879  13.435  0.1232 -0.3717 -0.1804
   27DOPC   C4B  324   8.837   5.511  13.167 -0.3715 -0.1498  0.0251
   28DOPC   NC3  325   6.255   4.033  15.107 -0.2977 -0.0255  0.1379
   28DOPC   PO4  326   6.576   4.192  14.971  0.0509  0.3586  0.2936
   28DOPC   GL1  327   6.712   4.000  14.599  0.3227 -0.4305  0.4599
   28DOPC   GL2  328   6.501   4.160  14.468 -0.0896 -0.6272 -0.3292
   28DOPC   C1A  329   6.906   3.956  14.210  0.0609 -0.0954 -0.3814
   28DOPC   D2A  330   7.008   3.893  13.779 -0.2659  0.1425 -0.4131
   28DOPC   C3A  331   6.680   3.996  13.446  0.1311  0.0498 -0.0861
   28DOPC   C4A  332   6.219   4.034  13.336 -0.0286  0.2165  0.0530
   28DOPC   C1B  333   6.545   4.234  13.993 -0.1262  0.0572 -0.0402
   28DOPC   D2B  334   6.973   4.420  13.740  0.0253  0.2688 -0.0811
   28DOPC   C3B  335   7.115   4.484  13.313 -0.0807 -0.0072 -0.1136
   28DOPC   C4B  336   7.132   4.665  12.849 -0.1411  0.0448  0.1640
   29DOPC   NC3  337  30.187   6.635  14.693 -0.1069  0.0391 -0.3041
   29DOPC   PO4  338  29.823   6.717  14.833  0.1833 -0.0549  0.2311
   29DOPC   GL1  339  29.629   6.936  14.483 -0.0404  0.0467  0.3291
   29DOPC   GL2  340  29.790   6.669  14.326 -0.2399 -0.0673  0.1525
   29DOPC   C1A  341  29.767   7.130  14.061  0.0793 -0.1502 -0.0664
   29DOPC   D2A  342  29.699   7.163  13.564 -0.1023  0.0951  0.0526
   29DOPC   C3A  343  29.813   7.156  13.064 -0.2795  0.1790  0.0261
   29DOPC   C4A  344  30.120   7.130  12.726 -0.1143 -0.3226  0.0360
   29DOPC   C1B  345  29.847   6.647  13.885  0.2755  0.0157  0.1867
   29DOPC   D2B  346  29.820   6.507  13.351  0.2671 -0.0356 -0.2378
   29DOPC   C3B  347  30.078   6.703  13.009  0.0736 -0.1041  0.1040
   29DOPC   C4B  348  30.407   6.705  12.646 -0.0599 -0.0387 -0.1050
   30DOPC   NC3  349  30.682   4.288  14.503  0.2133  0.2183 -0.0225
   30DOPC   PO4  350  30.919   3.989  14.450 -0.1501  0.0278 -0.1732
   30DOPC   GL1  351  30.863   3.570  14.258 -0.0351  0.1227 -0.0870
   30DOPC   GL2  352  31.092   3.598  14.163 -0.2514  0.0597  0.2307
   30DOPC   C1A  353  30.607   3.415  13.983 -0.1346  0.3828 -0.1736
   30DOPC   D2A  354  30.388   3.274  13.543 -0.1109 -0.0213  0.0004
   30DOPC   C3A  355  30.237   3.404  13.074 -0.1112  0.3693 -0.0162
   30DOPC   C4A  356  30.137   3.494  12.617  0.0106  0.1001  0.1741
   30DOPC   C1B  357  30.996   3.685  13.660 -0.1355 -0.1833  0.0507
   30DOPC   D2B  358  30.598   3.703  13.253 -0.2276 -0.0168  0.0458
   30DOPC   C3B  359  30.640   3.723  12.802 -0.2257 -0.0612  0.2236
   30DOPC   C4B  360  30.704   3.575  12.297  0.1106 -0.3577 -0.1061
   31DOPC   NC3  361   1.962   6.123  14.554 -0.0701  0.0826  0.1902
   31DOPC   PO4  362   1.795   6.458  14.436 -0.0023  0.2937  0.2221
   31DOPC   GL1  363   1.458   6.640  14.209  0.2339  0.0619 -0.0885
   31DOPC   GL2  364   1.632   6.864  14.166  0.1441 -0.3873 -0.0876
   31DOPC   C1A  365   1.375   6.394  13.807  0.0412 -0.2461  0.3181
   31DOPC   D2A  366   1.031   6.356  13.408  0.0316 -0.2727  0.1418
   31DOPC   C3A  367   0.800   6.343  13.011  0.2248  0.0194 -0.0289
   31DOPC   C4A  368   0.573   6.529  12.577 -0.0701 -0.2414  0.0581
   31DOPC   C1B  369   1.714   6.847  13.744  0.1944 -0.0669 -0.0604
   31DOPC   D2B  370   1.847   6.951  13.287 -0.0753 -0.0897 -0.1157
   31DOPC   C3B  371   1.662   6.856  12.828  0.1679 -0.1743 -0.2063
   31DOPC   C4B  372   1.401   6.891  12.382  0.1839 -0.1108  0.0516
   32DOPC   NC3  373  30.702   1.637  15.008  0.2633  0.1069 -0.0075
   32DOPC   PO4  374  30.851   1.789  14.676  0.2455 -0.2926  0.0889
   32DOPC   GL1  375  30.787   1.873  14.309  0.5494 -0.2867 -0.0593
   32DOPC   GL2  376  30.539   1.798  14.255  0.0039 -0.3612 -0.3305
   32DOPC   C1A  377  30.926   1.633  13.933  0.0018  0.0314  0.0049
   32DOPC   D2A  378  31.318   1.423  13.743  0.0065  0.1016  0.1968
   32DOPC   C3A  379  31.578   1.312  13.389  0.1666 -0.2020  0.1044
   32DOPC   C4A  380  31.868   1.213  12.992  0.0904  0.0000  0.2316
   32DOPC   C1B  381  30.427   1.760  13.793 -0.0716 -0.0710 -0.1017
   32DOPC   D2B  382  30.072   1.721  13.485 -0.1218 -0.3687  0.1306
   32DOPC   C3B  383  30.147   1.974  13.099 -0.0047  0.0696 -0.0040
   32DOPC   C4B  384  30.180   2.128  12.640  0.1173  0.1978 -0.1021
   33DOPC   NC3  385  25.515   4.575  15.320  0.1342 -0.0021  0.3138
   33DOPC   PO4  386  25.664   4.684  14.959 -0.0231 -0.2293 -0.1306
   33DOPC   GL1  387  25.439   4.923  14.753  0.0790 -0.0836 -0.2530
   33DOPC   GL2  388  25.379   4.653  14.627  0.2834 -0.1342  0.0738
   33DOPC   C1A  389  25.369   5.130  14.384 -0.0233 -0.1256  0.1420
   33DOPC   D2A  390  25.273   5.280  13.895 -0.0504  0.1671 -0.2976
   33DOPC   C3A  391  25.367   5.717  13.869 -0.0147 -0.1564  0.0371
   33DOPC   C4A  392  25.511   6.058  13.510  0.1581 -0.1391 -0.1645
   33DOPC   C1B  393  25.432   4.406  14.261  0.0544 -0.0567 -0.2533
   33DOPC   D2B  394  25.112   4.375  13.863  0.3180  0.1444 -0.1323
   33DOPC   C3B  395  25.024   4.105  13.493  0.0973  0.0002  0.0518
   33DOPC   C4B  396  24.890   3.954  13.149  0.0795  0.0530 -0.0585
   34DOPC   NC3  397  19.186   0.858  15.268 -0.0466  0.1127 -0.0845
   34DOPC   PO4  398  18.891   0.701  15.517 -0.2057 -0.0667  0.0020
   34DOPC   GL1  399  18.604   0.573  15.126  0.1118 -0.1051 -0.1866
   34DOPC   GL2  400  18.883   0.418  15.085 -0.3530 -0.3186 -0.0296
   34DOPC   C1A  401  18.671   0.750  14.712  0.1824 -0.1357  0.0451
   34DOPC   D2A  402  18.486   1.015  14.310  0.1949 -0.3624  0.0928
   34DOPC   C3A  403  18.146   1.316  14.138  0.0901  0.0136 -0.2285
   34DOPC   C4A  404  17.762   1.548  13.992  0.2776 -0.1380  0.0552
   34DOPC   C1B  405  19.022   0.215  14.725 -0.0641 -0.1811 -0.0233
   34DOPC   D2B  406  19.008  -0.047  14.271 -0.0392 -0.3495  0.3371
   34DOPC   C3B  407  19.103   0.003  13.853  0.0718  0.1780  0.1888
   34DOPC   C4B  408  19.436   0.009  13.408  0.1241 -0.2078  0.3390
   35DOPC   NC3  409  22.432   6.798  15.745 -0.0324 -0.2546 -0.0103
   35DOPC   PO4  410  22.534   6.942  15.384  0.2277  0.0616 -0.1115
   35DOPC   GL1  411  22.518   6.621  15.092 -0.2507 -0.0552  0.0184
   35DOPC   GL2  412  22.580   6.744  14.878 -0.0546 -0.1043 -0.0053
   35DOPC   C1A  413  22.363   6.334  14.827 -0.1280 -0.0671 -0.1842
   35DOPC   D2A  414  22.438   6.057  14.410 -0.2385 -0.1413 -0.1910
   35DOPC   C3A  415  22.619   6.134  13.958  0.0414  0.2056 -0.3775
   35DOPC   C4A  416  22.679   6.016  13.444 -0.0788  0.1467 -0.1685
   35DOPC   C1B  417  22.805   6.879  14.512  0.1918 -0.0764 -0.2860
   35DOPC   D2B  418  22.966   7.135  14.113 -0.1107 -0.2204 -0.2003
   35DOPC   C3B  419  23.243   7.513  13.986 -0.1990  0.1050 -0.2693
   35DOPC   C4B  420  23.550   7.875  13.920 -0.0402 -0.0545 -0.1569
   36DOPC   NC3  421  13.872   6.854  15.179 -0.0890 -0.0522  0.1536
   36DOPC   PO4  422  14.142   6.545  15.152  0.0197  0.0636  0.0951
   36DOPC   GL1  423  14.105   6.410  14.821  0.1360 -0.1889 -0.2805
   36DOPC   GL2  424  14.348   6.272  14.787 -0.2061 -0.4352  0.2709
   36DOPC   C1A  425  13.877   6.665  14.518 -0.1828 -0.1044 -0.0675
   36DOPC   D2A  426  13.692   6.675  14.043  0.0123 -0.1805  0.0213
   36DOPC   C3A  427  13.402   6.470  13.786 -0.0296  0.1347 -0.0126
   36DOPC   C4A  428  13.162   6.257  13.387  0.1995  0.1793 -0.3426
   36DOPC   C1B  429  14.178   6.226  14.350  0.1761 -0.1021 -0.1093
   36DOPC   D2B  430  14.171   6.352  13.890 -0.1183  0.2736  0.0201
   36DOPC   C3B  431  13.860   6.422  13.547  0.3176 -0.1159 -0.1135
   36DOPC   C4B  432  13.569   6.528  13.145 -0.1971  0.1994  0.0073
   37DOPC   NC3  433  15.842   6.317  15.371  0.1043  0.1843 -0.3275
   37DOPC   PO4  434  15.486   6.525  15.309 -0.0707  0.1261  0.4044
   37DOPC   GL1  435  15.419   6.541  14.900  0.0147 -0.1125  0.3430
   37DOPC   GL2  436  15.124   6.514  14.882 -0.1656 -0.2136 -0.2003
   37DOPC   C1A  437  15.620   6.552  14.512 -0.1647 -0.3814  0.1683
   37DOPC   D2A  438  15.849   6.652  14.065  0.1201 -0.2717 -0.0016
   37DOPC   C3A  439  16.072   6.714  13.601  0.1734 -0.2706 -0.0482
   37DOPC   C4A  440  16.271   6.869  13.200 -0.1396  0.2072  0.0542
   37DOPC   C1B  441  15.009   6.667  14.504 -0.0106 -0.2113 -0.2739
   37DOPC   D2B  442  14.762   6.667  14.133 -0.0496  0.2146 -0.0398
   37DOPC   C3B  443  14.605   6.251  14.136  0.0588 -0.1368  0.0234
   37DOPC   C4B  444  14.320   5.863  13.901 -0.0544 -0.1913  0.0524
   38DOPC   NC3  445  10.205   1.766  14.800 -0.0157 -0.2425 -0.1020
   38DOPC   PO4  446   9.842   1.930  14.876  0.0252 -0.0057 -0.0278
   38DOPC   GL1  447   9.802   2.160  14.516  0.0220  0.2339 -0.1892
   38DOPC   GL2  448  10.098   2.319  14.610 -0.0994 -0.3514  0.2615
   38DOPC   C1A  449   9.655   2.153  14.064  0.4219  0.1939  0.1867
   38DOPC   D2A  450   9.217   2.047  13.815 -0.0508 -0.1711  0.0176
   38DOPC   C3A  451   9.121   1.606  13.598  0.2659  0.2130  0.1655
   38DOPC   C4A  452   8.820   1.499  13.184  0.0571 -0.0406 -0.1371
   38DOPC   C1B  453  10.168   2.135  14.206  0.2370 -0.2232  0.4130
   38DOPC   D2B  454   9.896   1.705  14.090 -0.2748 -0.2944  0.2198
   38DOPC   C3B  455   9.696   1.760  13.670  0.0419 -0.2359 -0.1501
   38DOPC   C4B  456   9.780   1.810  13.203  0.3248  0.2627  0.2069
   39DOPC   NC3  457  27.022   5.540  15.427  0.0381  0.2714  0.0235
   39DOPC   PO4  458  27.187   5.341  15.105 -0.3241 -0.2020 -0.3025
   39DOPC   GL1  459  27.326   5.476  14.701 -0.2347  0.0462 -0.1352
   39DOPC   GL2  460  27.401   5.218  14.690  0.0504 -0.2038  0.1946
   39DOPC   C1A  461  27.306   5.657  14.361 -0.2957 -0.1864 -0.1050
   39DOPC   D2A  462  27.253   6.093  14.011  0.0885  0.0733 -0.0952
   39DOPC   C3A  463  27.216   5.978  13.560 -0.2849  0.1045 -0.1280
   39DOPC   C4A  464  26.916   5.921  13.153 -0.1812  0.3627  0.1374
   39DOPC   C1B  465  27.119   5.020  14.308 -0.1455 -0.0281 -0.0254
   39DOPC   D2B  466  26.724   5.153  13.982 -0.0036 -0.1804  0.1171
   39DOPC   C3B  467  26.621   5.046  13.528  0.0285 -0.1149 -0.1381
   39DOPC   C4B  468  26.606   4.944  13.038 -0.2087 -0.0827  0.0898
   40DOPC   NC3  469  15.853   7.307  15.389 -0.0501  0.2787  0.0026
   40DOPC   PO4  470  16.216   7.235  15.228 -0.1417 -0.1114  0.0552
   40DOPC   GL1  471  16.237   7.254  14.821  0.1602 -0.3171  0.0146
   40DOPC   GL2  472  16.556   7.249  14.767  0.3652  0.4915  0.0051
   40DOPC   C1A  473  16.125   7.412  14.454  0.1314  0.2376 -0.1017
   40DOPC   D2A  474  16.379   7.583  14.043  0.2998  0.1055 -0.0671
   40DOPC   C3A  475  16.290   7.978  13.754 -0.0679  0.1979 -0.0263
   40DOPC   C4A  476  16.130   8.471  13.692  0.1091 -0.1027 -0.1498
   40DOPC   C1B  477  16.711   7.321  14.351 -0.1367  0.2608  0.0875
   40DOPC   D2B  478  16.898   7.480  13.953 -0.1613 -0.1855 -0.1954
   40DOPC   C3B  479  16.851   7.792  13.653  0.1003  0.3993 -0.0455
   40DOPC   C4B  480  16.717   8.252  13.622  0.0472  0.4471  0.3445
   41DOPC   NC3  481  12.920   6.584  15.386 -0.0218  0.0613 -0.0572
   41DOPC   PO4  482  12.723   6.844  15.157 -0.2854  0.1998 -0.2218
   41DOPC   GL1  483  12.698   6.882  14.718  0.0560 -0.1110  0.1516
   41DOPC   GL2  484  12.803   6.666  14.649 -0.0962  0.0291  0.1699
   41DOPC   C1A  485  12.325   6.864  14.412 -0.2786 -0.0712  0.2749
   41DOPC   D2A  486  11.986   6.799  14.053  0.1735  0.0120 -0.1741
   41DOPC   C3A  487  12.069   6.965  13.623  0.3399  0.1413 -0.2346
   41DOPC   C4A  488  11.665   7.047  13.338 -0.3724 -0.0758  0.3888
   41DOPC   C1B  489  12.826   6.731  14.236  0.0546  0.0896 -0.4353
   41DOPC   D2B  490  12.919   6.461  13.853 -0.1064 -0.0608  0.3457
   41DOPC   C3B  491  13.017   6.763  13.511  0.1693 -0.3035  0.2574
   41DOPC   C4B  492  13.356   6.993  13.152 -0.0412 -0.0292 -0.4370
   42DOPC   NC3  493  14.019   1.958  15.241  0.0148  0.1235  0.1876
   42DOPC   PO4  494  14.176   1.611  15.151 -0.1157  0.0687  0.0022
   42DOPC   GL1  495  13.890   1.364  15.032  0.1070 -0.0699  0.0584
   42DOPC   GL2  496  13.715   1.557  15.093 -0.1379  0.0424 -0.2030
   42DOPC   C1A  497  13.919   1.265  14.640 -0.0139  0.1074  0.1976
   42DOPC   D2A  498  13.946   1.387  14.134  0.3310  0.1096 -0.1897
   42DOPC   C3A  499  13.914   1.622  13.725 -0.0447 -0.1681 -0.0464
   42DOPC   C4A  500  14.015   1.916  13.316  0.1477 -0.2600 -0.2074
   42DOPC   C1B  501  13.638   1.670  14.656 -0.2417 -0.2703 -0.0925
   42DOPC   D2B  502  13.448   1.689  14.228 -0.0325  0.0042  0.0001
   42DOPC   C3B  503  13.432   1.899  13.845 -0.1535  0.0437  0.0585
   42DOPC   C4B  504  13.584   2.272  13.500  0.1601  0.3946 -0.1280
   43DOPC   NC3  505  27.358   4.534  15.352  0.0560 -0.1176 -0.0764
   43DOPC   PO4  506  27.173   4.283  15.129  0.0050 -0.0848 -0.1299
   43DOPC   GL1  507  27.158   4.211  14.681  0.3145 -0.0722 -0.1825
   43DOPC   GL2  508  27.233   3.885  14.612  0.1346  0.0957  0.1038
   43DOPC   C1A  509  27.078   4.532  14.303  0.1949  0.2405  0.1402
   43DOPC   D2A  510  26.944   4.724  13.876  0.1417  0.2230  0.1850
   43DOPC   C3A  511  26.988   4.654  13.374  0.3142 -0.1701  0.1206
   43DOPC   C4A  512  26.671   4.398  13.102 -0.2580 -0.1732  0.0191
   43DOPC   C1B  513  27.224   3.639  14.286 -0.0331 -0.0886  0.2532
   43DOPC   D2B  514  27.171   3.214  14.013 -0.1175 -0.2615 -0.2391
   43DOPC   C3B  515  26.998   3.008  13.625 -0.2282 -0.0997  0.2565
   43DOPC   C4B  516  26.754   2.938  13.239 -0.1056 -0.3657  0.3112
   44DOPC   NC3  517  13.643   2.630  15.674  0.0771 -0.0108 -0.2082
   44DOPC   PO4  518  13.717   2.402  15.345 -0.2328  0.2923  0.0085
   44DOPC   GL1  519  14.027   2.389  15.100 -0.3078  0.0312  0.2056
   44DOPC   GL2  520  14.160   2.700  15.046  0.2729 -0.2275  0.1238
   44DOPC   C1A  521  13.984   2.092  14.708  0.4217  0.0046 -0.4854
   44DOPC   D2A  522  13.970   1.879  14.250 -0.0866  0.1781  0.0150
   44DOPC   C3A  523  13.928   2.135  13.852 -0.1094 -0.0344 -0.0471
   44DOPC   C4A  524  13.788   2.620  13.824 -0.1730 -0.0492 -0.0448
   44DOPC   C1B  525  14.014   2.784  14.663  0.2761  0.3227 -0.0175
   44DOPC   D2B  526  14.046   2.973  14.202 -0.0447  0.0379  0.2223
   44DOPC   C3B  527  13.828   3.270  13.916  0.0320 -0.0409  0.1776
   44DOPC   C4B  528  13.730   3.533  13.508  0.0586 -0.2805 -0.0452
   45DOPC   NC3  529   3.686   3.113  14.753  0.2597 -0.0698 -0.0985
   45DOPC   PO4  530   4.048   3.178  14.633 -0.0585 -0.1380 -0.0350
   45DOPC   GL1  531   4.159   3.119  14.195  0.3248  0.0414 -0.1073
   45DOPC   GL2  532   4.146   2.786  14.256  0.0802  0.1122  0.1250
   45DOPC   C1A  533   4.226   3.403  13.907 -0.0391 -0.2718  0.2447
   45DOPC   D2A  534   4.048   3.748  13.628 -0.0619 -0.0327  0.1937
   45DOPC   C3A  535   4.013   3.772  13.165  0.1033  0.0496  0.0787
   45DOPC   C4A  536   4.184   4.099  12.846 -0.1647 -0.0338 -0.2971
   45DOPC   C1B  537   4.402   2.811  13.885 -0.3382  0.3208  0.0960
   45DOPC   D2B  538   4.670   3.187  13.729 -0.3096  0.2241 -0.0819
   45DOPC   C3B  539   4.915   3.326  13.405  0.1916 -0.2509  0.2100
   45DOPC   C4B  540   5.198   3.601  13.152  0.1099 -0.1249 -0.0514
   46DOPC   NC3  541   9.524   2.845  14.843 -0.1809  0.1444  0.0908
   46DOPC   PO4  542   9.177   2.993  14.830  0.2189 -0.0934  0.1764
   46DOPC   GL1  543   9.050   2.914  14.443 -0.4044  0.2250 -0.1461
   46DOPC   GL2  544   8.869   3.120  14.400 -0.0449  0.2417  0.0625
   46DOPC   C1A  545   9.082   2.922  14.052 -0.0251 -0.1430  0.0653
   46DOPC   D2A  546   9.213   3.126  13.584  0.1642  0.1907 -0.0714
   46DOPC   C3A  547   8.849   3.415  13.424  0.3888 -0.0947 -0.0618
   46DOPC   C4A  548   8.341   3.385  13.495  0.1759 -0.1171 -0.0005
   46DOPC   C1B  549   8.943   3.431  14.125 -0.0137 -0.0786 -0.1110
   46DOPC   D2B  550   8.771   3.758  13.754  0.0406  0.1292 -0.1516
   46DOPC   C3B  551   8.388   3.886  13.542  0.2056 -0.2641 -0.1824
   46DOPC   C4B  552   7.923   4.148  13.395  0.0984 -0.0782 -0.0224
   47DOPC   NC3  553  23.608   1.431  14.906  0.0671  0.0040 -0.2988
   47DOPC   PO4  554  23.303   1.585  14.721 -0.0307 -0.0928  0.1050
   47DOPC   GL1  555  23.492   1.793  14.444  0.1758 -0.2057 -0.1318
   47DOPC   GL2  556  23.348   1.689  14.227  0.2670 -0.5774  0.2012
   47DOPC   C1A  557  23.640   2.214  14.490 -0.0677  0.0051 -0.0310
   47DOPC   D2A  558  23.861   2.698  14.437 -0.0174 -0.1290  0.0529
   47DOPC   C3A  559  24.321   2.709  14.359  0.0961 -0.1309 -0.2082
   47DOPC   C4A  560  24.706   2.691  14.059 -0.1615 -0.1378 -0.2033
   47DOPC   C1B  561  23.215   1.971  13.983  0.0370 -0.1881 -0.1090
   47DOPC   D2B  562  23.195   2.403  13.653 -0.0417 -0.0736  0.1110
   47DOPC   C3B  563  23.024   2.759  13.364 -0.2802  0.1386 -0.0553
   47DOPC   C4B  564  22.892   3.226  13.270 -0.3218  0.1566 -0.1188
   48DOPC   NC3  565  20.203   3.423  16.229  0.0282 -0.0208  0.3513
   48DOPC   PO4  566  19.847   3.552  16.005 -0.4120  0.2092  0.2054
   48DOPC   GL1  567  19.725   3.610  15.618 -0.3318  0.1420  0.1076
   48DOPC   GL2  568  19.586   3.852  15.693  0.0470 -0.1889  0.2324
   48DOPC   C1A  569  19.844   3.648  15.173  0.0333  0.0763 -0.0675
   48DOPC   D2A  570  19.973   4.025  14.816  0.1789 -0.2977  0.1173
   48DOPC   C3A  571  20.110   4.127  14.401 -0.0651 -0.1805 -0.0471
   48DOPC   C4A  572  20.158   4.404  13.975 -0.0396  0.1039  0.3114
   48DOPC   C1B  573  19.445   3.912  15.280 -0.1258  0.0363  0.0432
   48DOPC   D2B  574  19.464   3.695  14.824  0.0179  0.2643 -0.2527
   48DOPC   C3B  575  19.650   3.218  14.767  0.1377  0.1257  0.0534
   48DOPC   C4B  576  20.025   2.933  14.663  0.2344 -0.0380  0.3598
   49DOPC   NC3  577  19.978   6.674  15.312  0.1343  0.0369  0.1785
   49DOPC   PO4  578  19.621   6.674  15.355  0.2497  0.1666  0.0176
   49DOPC   GL1  579  19.454   6.384  15.078 -0.2063 -0.0619  0.2647
   49DOPC   GL2  580  19.752   6.369  15.004  0.0491 -0.1916  0.1708
   49DOPC   C1A  581  19.401   6.402  14.642 -0.1117  0.1272  0.0995
   49DOPC   D2A  582  19.609   6.151  14.257 -0.1619  0.5115  0.0922
   49DOPC   C3A  583  19.632   6.356  13.858  0.2489 -0.1805 -0.1050
   49DOPC   C4A  584  19.659   6.621  13.445  0.0515  0.0859  0.0528
   49DOPC   C1B  585  19.892   6.571  14.645 -0.1687 -0.1520 -0.1887
   49DOPC   D2B  586  20.285   6.855  14.508  0.2054  0.2088 -0.0484
   49DOPC   C3B  587  20.488   6.734  14.160  0.2352 -0.1317 -0.0884
   49DOPC   C4B  588  20.432   6.654  13.730  0.3046  0.1137  0.0447
   50DOPC   NC3  589  27.077   3.861  15.358  0.1179 -0.2940  0.3054
   50DOPC   PO4  590  27.303   3.655  15.101 -0.0086 -0.0239 -0.2788
   50DOPC   GL1  591  27.265   3.369  14.807  0.0402 -0.0641 -0.1598
   50DOPC   GL2  592  27.490   3.469  14.644  0.4346 -0.1683 -0.1403
   50DOPC   C1A  593  26.943   3.320  14.546 -0.0753  0.3013 -0.0129
   50DOPC   D2A  594  26.573   3.379  14.120  0.1261  0.0870 -0.0503
   50DOPC   C3A  595  26.616   3.299  13.661 -0.2518  0.0484 -0.2608
   50DOPC   C4A  596  26.417   3.375  13.258 -0.2042 -0.1319 -0.0497
   50DOPC   C1B  597  27.655   3.397  14.275 -0.3948  0.1711  0.0263
   50DOPC   D2B  598  27.676   3.257  13.817  0.1385 -0.0344  0.2556
   50DOPC   C3B  599  27.349   3.368  13.551 -0.0993 -0.3037  0.1075
   50DOPC   C4B  600  27.024   3.426  13.288  0.4768 -0.0637  0.1549
   51DOPC   NC3  601  27.822   0.091  14.746  0.0284 -0.0956  0.1544
   51DOPC   PO4  602  28.212   0.069  14.597  0.1285 -0.0151 -0.1996
   51DOPC   GL1  603  28.334   0.050  14.235 -0.1788 -0.2103 -0.3538
   51DOPC   GL2  604  28.445  -0.203  14.209  0.2211  0.1229  0.0047
   51DOPC   C1A  605  28.247   0.293  13.924  0.2192 -0.2903  0.1593
   51DOPC   D2A  606  28.367   0.595  13.502 -0.0986  0.1093 -0.1463
   51DOPC   C3A  607  28.300   1.033  13.292 -0.1540 -0.0631 -0.0781
   51DOPC   C4A  608  28.385   1.478  13.036 -0.0471 -0.0534 -0.3658
   51DOPC   C1B  609  28.375  -0.320  13.722  0.1818  0.2844 -0.0125
   51DOPC   D2B  610  28.305  -0.313  13.239 -0.3663  0.1382 -0.2989
   51DOPC   C3B  611  28.089  -0.270  12.774 -0.2291  0.0512 -0.1386
   51DOPC   C4B  612  27.809  -0.061  12.418 -0.1373  0.0403 -0.1555
   52DOPC   NC3  613   5.927   7.453  14.892 -0.0498  0.1256  0.1195
   52DOPC   PO4  614   6.081   7.431  14.522  0.1863  0.1560 -0.0300
   52DOPC   GL1  615   6.031   7.078  14.252 -0.0706  0.5221 -0.5367
   52DOPC   GL2  616   5.773   7.214  14.098 -0.1166 -0.4383  0.2515
   52DOPC   C1A  617   6.265   6.916  13.888  0.0406 -0.4248  0.1045
   52DOPC   D2A  618   6.593   6.645  13.594 -0.0776  0.0743 -0.2715
   52DOPC   C3A  619   6.715   6.857  13.193 -0.0488 -0.0236 -0.0315
   52DOPC   C4A  620   7.089   6.971  12.887  0.0427 -0.0221  0.1952
   52DOPC   C1B  621   5.848   7.170  13.655 -0.1251 -0.1285  0.0915
   52DOPC   D2B  622   6.113   6.822  13.396 -0.0166 -0.0364 -0.0840
   52DOPC   C3B  623   6.311   6.491  13.145  0.0959  0.1007  0.1506
   52DOPC   C4B  624   6.413   6.144  12.828  0.2167  0.2607  0.1498
   53DOPC   NC3  625   7.621   4.249  15.256 -0.1951  0.0068  0.0565
   53DOPC   PO4  626   7.536   3.969  14.980  0.1212 -0.0713  0.0632
   53DOPC   GL1  627   7.403   4.241  14.612  0.3712  0.0882 -0.0981
   53DOPC   GL2  628   7.159   4.224  14.712 -0.1504  0.3970  0.0024
   53DOPC   C1A  629   7.343   4.251  14.126 -0.2543 -0.1511 -0.2640
   53DOPC   D2A  630   7.466   4.335  13.619 -0.0768  0.1151 -0.1006
   53DOPC   C3A  631   7.319   4.046  13.332  0.2289 -0.0518  0.2022
   53DOPC   C4A  632   7.022   3.657  13.143 -0.2520 -0.0678  0.2127
   53DOPC   C1B  633   6.947   4.399  14.366 -0.1892 -0.0087  0.1717
   53DOPC   D2B  634   6.719   4.785  14.033  0.2516  0.1306 -0.1887
   53DOPC   C3B  635   6.305   4.726  13.940  0.3178 -0.2867  0.0556
   53DOPC   C4B  636   5.984   4.978  13.668 -0.2901 -0.1151  0.2317
   54DOPC   NC3  637  20.023   4.022  15.508  0.0300  0.1655 -0.1068
   54DOPC   PO4  638  20.401   4.051  15.605  0.1457  0.2159  0.0264
   54DOPC   GL1  639  20.484   4.240  15.244  0.0240 -0.1549 -0.3107
   54DOPC   GL2  640  20.185   4.338  15.230  0.1160 -0.1092 -0.1349
   54DOPC   C1A  641  20.438   4.167  14.806  0.0537  0.2093  0.1669
   54DOPC   D2A  642  20.360   3.742  14.513  0.0180 -0.1757  0.0405
   54DOPC   C3A  643  20.361   3.686  14.037 -0.1515 -0.1159 -0.3717
   54DOPC   C4A  644  20.384   3.607  13.558  0.1867  0.2394 -0.2144
   54DOPC   C1B  645  20.098   4.547  14.835  0.0013  0.1852  0.0295
   54DOPC   D2B  646  20.118   4.897  14.515 -0.0452  0.5124  0.2210
   54DOPC   C3B  647  19.985   4.908  14.045 -0.0158  0.2491  0.1145
   54DOPC   C4B  648  19.942   4.810  13.540  0.3344 -0.3186  0.0572
   55DOPC   NC3  649   8.227   6.058  15.105  0.0903 -0.2670  0.2699
   55DOPC   PO4  650   8.605   5.862  15.101 -0.0667 -0.0655  0.0220
   55DOPC   GL1  651   8.653   5.468  14.894 -0.3079  0.0931 -0.1636
   55DOPC   GL2  652   8.903   5.460  14.831  0.0166  0.0467 -0.2874
   55DOPC   C1A  653   8.407   5.389  14.507 -0.0549 -0.1473 -0.1959
   55DOPC   D2A  654   8.128   5.528  14.091  0.0183 -0.1075  0.2969
   55DOPC   C3A  655   8.390   5.208  13.890 -0.0364 -0.1828 -0.3166
   55DOPC   C4A  656   8.581   4.736  13.846 -0.2695  0.1579 -0.2240
   55DOPC   C1B  657   8.941   5.240  14.450  0.2013 -0.2214  0.1346
   55DOPC   D2B  658   9.089   5.097  13.995  0.0677  0.1837  0.1351
   55DOPC   C3B  659   9.420   5.129  13.634  0.2327  0.1209 -0.0314
   55DOPC   C4B  660   9.821   5.318  13.463  0.4258  0.0130 -0.1177
   56DOPC   NC3  661  22.940   3.773  15.453 -0.1305  0.0397  0.2004
   56DOPC   PO4  662  22.699   3.433  15.516  0.0274 -0.0660 -0.0512
   56DOPC   GL1  663  22.632   3.461  15.090 -0.1820 -0.2195 -0.0144
   56DOPC   GL2  664  22.766   3.200  15.054 -0.1947 -0.0130  0.2670
   56DOPC   C1A  665  22.829   3.687  14.721 -0.1172 -0.0124  0.2901
   56DOPC   D2A  666  22.849   3.849  14.254  0.0370 -0.0857 -0.2923
   56DOPC   C3A  667  22.740   3.435  14.059 -0.3066 -0.1091  0.0160
   56DOPC   C4A  668  22.740   2.995  13.794  0.1090 -0.1538 -0.1040
   56DOPC   C1B  669  23.120   3.150  14.817  0.2148 -0.0036  0.2556
   56DOPC   D2B  670  23.465   3.194  14.498  0.0169  0.3073 -0.2179
   56DOPC   C3B  671  23.640   3.126  14.031 -0.4028  0.0297  0.2995
   56DOPC   C4B  672  23.643   3.242  13.579  0.1554 -0.0496 -0.0799
   57DOPC   NC3  673  16.685   1.575  15.426  0.2429  0.1037  0.2184
   57DOPC   PO4  674  16.324   1.441  15.307 -0.0361 -0.0258  0.0344
   57DOPC   GL1  675  16.105   1.284  14.982  0.0801 -0.1741  0.2634
   57DOPC   GL2  676  15.852   1.435  14.910 -0.0696  0.1836  0.0902
   57DOPC   C1A  677  16.208   1.423  14.553 -0.3121 -0.1020 -0.0292
   57DOPC   D2A  678  16.156   1.559  14.069 -0.0536  0.0527 -0.2720
   57DOPC   C3A  679  15.822   1.842  14.056  0.0670 -0.3119 -0.1271
   57DOPC   C4A  680  15.751   2.059  13.623  0.0796 -0.2520 -0.1081
   57DOPC   C1B  681  15.706   1.386  14.441 -0.2577 -0.4690 -0.2798
   57DOPC   D2B  682  15.671   1.414  13.918 -0.5974  0.0380 -0.0670
   57DOPC   C3B  683  15.849   1.579  13.476  0.2092 -0.1136 -0.1121
   57DOPC   C4B  684  15.814   1.404  13.008  0.2097  0.2006 -0.1572
   58DOPC   NC3  685   1.507   1.263  14.290  0.0241  0.3549  0.1327
   58DOPC   PO4  686   1.340   1.581  14.240  0.0371 -0.3622 -0.2570
   58DOPC   GL1  687   1.453   1.848  13.906 -0.0324 -0.5971 -0.1528
   58DOPC   GL2  688   1.668   1.993  14.006  0.0492  0.0573  0.2003
   58DOPC   C1A  689   1.473   2.109  13.570  0.3793  0.5492  0.1718
   58DOPC   D2A  690   1.414   2.276  13.037  0.0876  0.2268  0.0202
   58DOPC   C3A  691   1.549   2.547  12.662 -0.1288  0.0478  0.3210
   58DOPC   C4A  692   1.752   3.017  12.687  0.1501 -0.1245  0.1082
   58DOPC   C1B  693   1.907   1.907  13.634  0.1086  0.0780  0.1264
   58DOPC   D2B  694   1.925   1.870  13.100  0.1024  0.1398 -0.1093
   58DOPC   C3B  695   1.660   1.958  12.719 -0.5328  0.1950  0.2861
   58DOPC   C4B  696   1.531   1.748  12.298 -0.0986 -0.2758  0.1267
   59DOPC   NC3  697   4.195   7.437  14.600  0.1588  0.1191  0.0138
   59DOPC   PO4  698   3.996   7.711  14.434 -0.2636  0.1902 -0.1448
   59DOPC   GL1  699   3.848   7.587  14.082  0.1367  0.1414 -0.0812
   59DOPC   GL2  700   4.188   7.559  13.981 -0.0557  0.4428 -0.1993
   59DOPC   C1A  701   3.493   7.614  13.876 -0.0130 -0.2078 -0.1292
   59DOPC   D2A  702   3.228   7.689  13.396  0.1018 -0.1530  0.1010
   59DOPC   C3A  703   3.011   7.662  12.979  0.0732 -0.1327  0.0697
   59DOPC   C4A  704   2.819   7.626  12.513  0.0610  0.4586  0.1233
   59DOPC   C1B  705   4.214   7.600  13.554  0.1167  0.3796  0.0006
   59DOPC   D2B  706   4.133   7.610  13.052  0.3040 -0.2677 -0.1019
   59DOPC   C3B  707   4.116   7.296  12.720 -0.1453 -0.0756 -0.0949
   59DOPC   C4B  708   4.187   6.845  12.519  0.0317 -0.0633 -0.3165
   60DOPC   NC3  709   5.180   2.999  15.021  0.0528 -0.0665  0.0214
   60DOPC   PO4  710   4.889   2.804  14.847  0.3532 -0.0706 -0.2278
   60DOPC   GL1  711   4.914   2.587  14.524  0.1735  0.1550  0.2532
   60DOPC   GL2  712   5.162   2.562  14.460  0.0154 -0.0291  0.5105
   60DOPC   C1A  713   4.884   2.710  14.093 -0.1912  0.1850 -0.0828
   60DOPC   D2A  714   4.845   2.694  13.560  0.0747 -0.0966 -0.1748
   60DOPC   C3A  715   4.371   2.896  13.374  0.0200  0.0728 -0.1175
   60DOPC   C4A  716   3.961   2.816  13.149  0.2131 -0.1478 -0.0641
   60DOPC   C1B  717   5.368   2.606  14.090  0.2953  0.0098  0.1291
   60DOPC   D2B  718   5.398   2.557  13.631  0.3684 -0.1547  0.1656
   60DOPC   C3B  719   5.615   2.421  13.258  0.2688 -0.0277 -0.0505
   60DOPC   C4B  720   5.943   2.239  12.988  0.2631 -0.4913  0.1713
   61DOPC   NC3  721  11.061   6.607  14.991 -0.0558 -0.0812  0.1055
   61DOPC   PO4  722  11.056   6.991  14.912  0.4172  0.0336 -0.1697
   61DOPC   GL1  723  10.954   7.110  14.550 -0.0135 -0.0685 -0.0114
   61DOPC   GL2  724  10.652   7.215  14.588 -0.1504 -0.2998  0.3009
   61DOPC   C1A  725  10.967   7.091  14.076 -0.2699  0.1872 -0.1271
   61DOPC   D2A  726  11.033   7.209  13.587 -0.1079 -0.1874 -0.1197
   61DOPC   C3A  727  10.841   7.258  13.236  0.3986 -0.3108 -0.0318
   61DOPC   C4A  728  10.511   7.442  12.911 -0.2030  0.0023 -0.2218
   61DOPC   C1B  729  10.566   7.380  14.217 -0.0636 -0.0268  0.3160
   61DOPC   D2B  730  10.628   7.602  13.749 -0.1026  0.0163 -0.0738
   61DOPC   C3B  731  10.726   7.772  13.373 -0.1075  0.3954  0.1385
   61DOPC   C4B  732  10.813   8.070  12.989  0.2854 -0.3594 -0.1064
   62DOPC   NC3  733   6.293   4.443  15.391  0.1125  0.1767  0.0184
   62DOPC   PO4  734   6.145   4.557  15.039 -0.2204  0.1549  0.1665
   62DOPC   GL1  735   6.161   4.216  14.721  0.0283  0.0219  0.0308
   62DOPC   GL2  736   5.870   4.098  14.807 -0.0551  0.1104 -0.0445
   62DOPC   C1A  737   6.067   4.326  14.321 -0.0840 -0.0225  0.0524
   62DOPC   D2A  738   5.682   4.419  14.092 -0.0092 -0.1116 -0.4219
   62DOPC   C3A  739   5.565   4.632  13.680 -0.0551  0.0031  0.0466
   62DOPC   C4A  740   5.310   4.644  13.359  0.1631  0.0688 -0.0713
   62DOPC   C1B  741   5.821   3.954  14.410  0.0581  0.2676  0.2534
   62DOPC   D2B  742   5.623   3.899  13.927 -0.0202  0.0457  0.0771
   62DOPC   C3B  743   5.799   3.780  13.552  0.2339 -0.0354  0.0820
   62DOPC   C4B  744   5.937   3.464  13.216  0.0002  0.1705  0.0744
   63DOPC   NC3  745  17.246   6.936  15.321  0.0326 -0.1945  0.0639
   63DOPC   PO4  746  17.202   7.302  15.183  0.2763 -0.0152 -0.0751
   63DOPC   GL1  747  16.956   7.178  14.830  0.0936  0.0001 -0.1949
   63DOPC   GL2  748  17.070   7.340  14.684 -0.1394  0.1273 -0.1047
   63DOPC   C1A  749  16.824   6.848  14.550  0.0977 -0.1043 -0.0110
   63DOPC   D2A  750  16.787   6.457  14.244 -0.2006  0.0226 -0.0522
   63DOPC   C3A  751  16.589   6.099  13.948  0.0442  0.0565  0.0238
   63DOPC   C4A  752  16.324   5.817  13.616  0.2329 -0.3153  0.1475
   63DOPC   C1B  753  17.159   7.111  14.320  0.1614  0.2168 -0.0990
   63DOPC   D2B  754  17.414   6.938  13.979  0.3001  0.1908 -0.2299
   63DOPC   C3B  755  17.081   6.900  13.622 -0.1662 -0.3879  0.0121
   63DOPC   C4B  756  16.717   6.781  13.381  0.0271  0.0059 -0.2640
   64DOPC   NC3  757  15.608   4.576  14.895 -0.2240 -0.0244 -0.1165
   64DOPC   PO4  758  15.470   4.180  15.016  0.0564  0.1620  0.0327
   64DOPC   GL1  759  15.424   3.905  14.652 -0.0580 -0.0079 -0.0203
   64DOPC   GL2  760  15.407   4.090  14.480 -0.0114 -0.0812  0.2524
   64DOPC   C1A  761  14.947   3.951  14.563  0.1139 -0.1833 -0.1600
   64DOPC   D2A  762  14.570   4.064  14.269  0.0388  0.1952  0.3308
   64DOPC   C3A  763  14.583   4.132  13.790 -0.0301  0.1363  0.2627
   64DOPC   C4A  764  14.429   4.159  13.278 -0.0441  0.0636  0.0713
   64DOPC   C1B  765  15.215   4.176  14.087  0.1990 -0.0816 -0.1708
   64DOPC   D2B  766  15.235   4.139  13.637  0.2546  0.0897 -0.0251
   64DOPC   C3B  767  14.896   4.421  13.370  0.1419  0.0166 -0.0447
   64DOPC   C4B  768  14.703   4.628  12.983 -0.2911 -0.0556 -0.2320
   65DOPC   NC3  769   2.183   1.489  14.783 -0.3196 -0.2581 -0.1371
   65DOPC   PO4  770   1.883   1.468  14.517 -0.1141  0.0307 -0.1162
   65DOPC   GL1  771   1.928   1.343  14.153  0.0696 -0.0544 -0.0938
   65DOPC   GL2  772   1.929   1.580  14.011  0.1618 -0.0803  0.2092
   65DOPC   C1A  773   1.887   0.950  13.927 -0.0306  0.1277  0.1110
   65DOPC   D2A  774   1.927   0.614  13.543 -0.0003 -0.0685 -0.3657
   65DOPC   C3A  775   1.934   0.870  13.180 -0.0896 -0.3054 -0.0239
   65DOPC   C4A  776   1.941   0.950  12.672 -0.0281  0.0901 -0.0979
   65DOPC   C1B  777   1.635   1.373  13.734 -0.0269 -0.1396  0.1658
   65DOPC   D2B  778   1.518   1.236  13.277  0.0062  0.2360  0.2911
   65DOPC   C3B  779   1.809   1.360  12.932  0.0373  0.0693 -0.1584
   65DOPC   C4B  780   2.136   1.478  12.545 -0.2940  0.0627 -0.2456
   66DOPC   NC3  781  18.643   0.222  15.423  0.0477  0.3025  0.0428
   66DOPC   PO4  782  18.343   0.004  15.334 -0.0004  0.0447  0.0725
   66DOPC   GL1  783  18.060   0.038  14.941 -0.1193 -0.2170 -0.1157
   66DOPC   GL2  784  18.211  -0.228  14.898  0.1553 -0.0466  0.1591
   66DOPC   C1A  785  17.985   0.362  14.676 -0.0339 -0.2270  0.0885
   66DOPC   D2A  786  17.848   0.599  14.215  0.0071  0.0004  0.3985
   66DOPC   C3A  787  18.045   0.443  13.783 -0.0305 -0.4544  0.1761
   66DOPC   C4A  788  18.115   0.214  13.351 -0.0560 -0.0205 -0.1815
   66DOPC   C1B  789  18.118  -0.466  14.479  0.0869  0.0343  0.0637
   66DOPC   D2B  790  18.148  -0.453  14.007 -0.1212  0.2161 -0.1280
   66DOPC   C3B  791  18.262  -0.481  13.566 -0.0332  0.4071 -0.1835
   66DOPC   C4B  792  18.076  -0.682  13.109  0.1726  0.0179  0.4781
   67DOPC   NC3  793  20.949   3.157  15.490 -0.2013 -0.0255  0.1745
   67DOPC   PO4  794  21.326   3.115  15.312 -0.1812 -0.0625 -0.0432
   67DOPC   GL1  795  21.298   3.016  14.846 -0.1539 -0.0854  0.1708
   67DOPC   GL2  796  21.089   3.034  14.815 -0.2040 -0.2639  0.1778
   67DOPC   C1A  797  21.463   3.223  14.497  0.1954  0.1459  0.1610
   67DOPC   D2A  798  21.631   3.471  14.019 -0.3009 -0.1344 -0.1676
   67DOPC   C3A  799  21.749   3.643  13.571  0.2115 -0.0796  0.0451
   67DOPC   C4A  800  21.756   3.686  13.084 -0.5028  0.0598 -0.2321
   67DOPC   C1B  801  21.000   3.001  14.369  0.2223  0.0811  0.1777
   67DOPC   D2B  802  20.822   2.983  13.888 -0.0899 -0.0532 -0.4589
   67DOPC   C3B  803  21.041   2.856  13.528  0.3106  0.1003 -0.0614
   67DOPC   C4B  804  21.269   2.950  13.115 -0.0124  0.1770 -0.1922
   68DOPC   NC3  805  28.040   4.716  14.950  0.1392 -0.2524  0.2130
   68DOPC   PO4  806  28.275   5.051  14.916  0.1281 -0.3227 -0.1605
   68DOPC   GL1  807  28.229   5.083  14.483 -0.1474  0.2968  0.0077
   68DOPC   GL2  808  28.139   4.791  14.430 -0.2271  0.1951  0.2152
   68DOPC   C1A  809  28.106   5.252  14.031  0.0343  0.0918 -0.1604
   68DOPC   D2A  810  28.059   5.548  13.657 -0.0273  0.2192 -0.2369
   68DOPC   C3A  811  28.070   5.532  13.187 -0.1530 -0.1176  0.0789
   68DOPC   C4A  812  27.676   5.600  12.839 -0.0111  0.2081 -0.1780
   68DOPC   C1B  813  28.238   4.808  13.914  0.0596 -0.0448 -0.2759
   68DOPC   D2B  814  28.276   5.102  13.574 -0.2204  0.0449  0.3382
   68DOPC   C3B  815  28.281   5.069  13.085 -0.0221 -0.0771  0.1956
   68DOPC   C4B  816  28.261   5.071  12.610 -0.3399  0.1776 -0.2551
   69DOPC   NC3  817  23.076   5.905  15.373 -0.0651 -0.1528  0.0634
   69DOPC   PO4  818  23.129   5.571  15.166 -0.0171  0.2964 -0.3112
   69DOPC   GL1  819  23.142   5.415  14.754 -0.4006 -0.2143 -0.0259
   69DOPC   GL2  820  23.111   5.176  14.815 -0.1250 -0.2389  0.2560
   69DOPC   C1A  821  23.362   5.510  14.419  0.0162 -0.2284 -0.0763
   69DOPC   D2A  822  23.497   5.701  13.940 -0.0632  0.1724 -0.1216
   69DOPC   C3A  823  23.354   5.828  13.522  0.0977 -0.0620  0.0261
   69DOPC   C4A  824  23.082   5.903  13.088 -0.1603  0.2991 -0.2861
   69DOPC   C1B  825  23.282   4.899  14.460  0.0800  0.3597 -0.0571
   69DOPC   D2B  826  23.564   5.107  14.112 -0.0283  0.0116 -0.0452
   69DOPC   C3B  827  23.303   5.243  13.812 -0.1042  0.2615  0.2071
   69DOPC   C4B  828  23.127   5.394  13.387  0.0784 -0.1049  0.0218
   70DOPC   NC3  829  30.926   4.770  15.149 -0.2177  0.1629  0.2600
   70DOPC   PO4  830  30.711   4.715  14.813 -0.0133 -0.2260  0.0227
   70DOPC   GL1  831  30.763   4.729  14.369  0.3411  0.0224 -0.0432
   70DOPC   GL2  832  31.060   4.785  14.423  0.1639 -0.2071 -0.0338
   70DOPC   C1A  833  30.579   4.952  14.031  0.1887  0.1393  0.1804
   70DOPC   D2A  834  30.303   5.084  13.648 -0.1888 -0.1286 -0.0561
   70DOPC   C3A  835  30.105   4.870  13.378 -0.0813 -0.2845 -0.0494
   70DOPC   C4A  836  29.829   4.822  12.950 -0.1337  0.0646  0.0265
   70DOPC   C1B  837  31.305   5.052  14.120  0.3663  0.1756 -0.1297
   70DOPC   D2B  838  31.689   5.274  13.858 -0.3717 -0.0446 -0.1852
   70DOPC   C3B  839  31.811   5.201  13.379  0.2643  0.2182 -0.2782
   70DOPC   C4B  840  31.888   5.094  12.945 -0.1583  0.2485 -0.1167
   71DOPC   NC3  841   5.664   5.413  14.330 -0.2669 -0.0589 -0.1227
   71DOPC   PO4  842   5.994   5.352  14.582  0.2181  0.0220  0.1674
   71DOPC   GL1  843   6.222   5.693  14.466  0.0984 -0.0579  0.0422
   71DOPC   GL2  844   5.913   5.899  14.462 -0.5227  0.3176  0.1979
   71DOPC   C1A  845   6.508   5.711  14.126 -0.2071 -0.0348 -0.0405
   71DOPC   D2A  846   6.758   5.717  13.653  0.2338  0.1135  0.0062
   71DOPC   C3A  847   6.977   5.418  13.353  0.2149 -0.0474 -0.0420
   71DOPC   C4A  848   7.290   5.042  13.216  0.0835  0.0486 -0.0689
   71DOPC   C1B  849   5.572   5.920  14.188 -0.1218  0.0407 -0.0111
   71DOPC   D2B  850   5.519   5.834  13.712  0.3432 -0.0644  0.1652
   71DOPC   C3B  851   5.525   6.168  13.387  0.0782 -0.1587  0.1368
   71DOPC   C4B  852   5.822   6.460  13.120 -0.0057  0.1920  0.2278
   72DOPC   NC3  853  26.088   0.333  15.557 -0.0734  0.0836 -0.3993
   72DOPC   PO4  854  26.191   0.612  15.339 -0.0885 -0.2268 -0.2437
   72DOPC   GL1  855  26.177   0.631  14.912 -0.1965  0.2158  0.1697
   72DOPC   GL2  856  26.260   0.293  14.925  0.0254 -0.1065 -0.1243
   72DOPC   C1A  857  26.042   0.533  14.515 -0.0008  0.4280  0.0050
   72DOPC   D2A  858  25.672   0.387  14.249 -0.1276 -0.1258 -0.1610
   72DOPC   C3A  859  25.599   0.314  13.831 -0.2275  0.0447 -0.1698
   72DOPC   C4A  860  25.301   0.232  13.405 -0.0360 -0.1331  0.1068
   72DOPC   C1B  861  26.254   0.037  14.558 -0.0720  0.2737  0.2400
   72DOPC   D2B  862  26.257   0.299  14.161  0.2373 -0.3650 -0.3681
   72DOPC   C3B  863  26.097   0.225  13.720 -0.1538  0.1633  0.2313
   72DOPC   C4B  864  25.797   0.011  13.460 -0.1992 -0.2257  0.1118
   73DOPC   NC3  865   5.988   1.344  14.691  0.2783 -0.1027  0.1253
   73DOPC   PO4  866   6.100   1.703  14.884 -0.2225  0.0358  0.2238
   73DOPC   GL1  867   6.533   1.752  14.686  0.1929 -0.3365  0.2800
   73DOPC   GL2  868   6.699   1.614  14.823 -0.2271 -0.2502 -0.0405
   73DOPC   C1A  869   6.625   1.661  14.201 -0.0771 -0.0126 -0.0724
   73DOPC   D2A  870   6.933   1.667  13.780  0.0811 -0.2871  0.1545
   73DOPC   C3A  871   7.207   1.712  13.407  0.2031  0.1021 -0.0227
   73DOPC   C4A  872   7.318   1.727  12.933  0.0339 -0.1197 -0.1624
   73DOPC   C1B  873   6.613   1.292  14.523 -0.1051 -0.2732  0.1743
   73DOPC   D2B  874   6.593   1.111  14.053  0.2069  0.1039 -0.0644
   73DOPC   C3B  875   6.398   1.001  13.645  0.1555  0.0600  0.0602
   73DOPC   C4B  876   5.991   1.255  13.459  0.1886  0.2121 -0.0928
   74DOPC   NC3  877   4.988   0.129  14.782  0.3646  0.1246  0.0345
   74DOPC   PO4  878   5.354   0.174  14.640  0.0201  0.0550  0.1298
   74DOPC   GL1  879   5.440   0.085  14.272 -0.1721 -0.0415  0.1166
   74DOPC   GL2  880   5.660   0.141  14.183  0.1364 -0.0199  0.1528
   74DOPC   C1A  881   5.186   0.137  13.947  0.1658 -0.1631 -0.0445
   74DOPC   D2A  882   5.007   0.000  13.552 -0.0144  0.1514  0.0479
   74DOPC   C3A  883   5.241   0.042  13.174 -0.3126 -0.0211 -0.0126
   74DOPC   C4A  884   5.418  -0.066  12.667  0.3445 -0.1524  0.2247
   74DOPC   C1B  885   5.686   0.514  13.910  0.0702  0.0940 -0.0553
   74DOPC   D2B  886   5.253   0.607  13.701 -0.1199  0.0594 -0.0796
   74DOPC   C3B  887   5.125   0.994  13.507 -0.2789  0.1655  0.0996
   74DOPC   C4B  888   5.200   1.375  13.778 -0.0015 -0.2251 -0.2443
   75DOPC   NC3  889  24.865   0.790  15.188 -0.2600 -0.1590  0.0973
   75DOPC   PO4  890  24.568   0.566  15.053  0.0853 -0.0757  0.0458
   75DOPC   GL1  891  24.233   0.793  14.838  0.0858  0.1673  0.0730
   75DOPC   GL2  892  24.548   0.935  14.764  0.1914  0.1728  0.1855
   75DOPC   C1A  893  24.011   0.522  14.535 -0.0469  0.0002 -0.3117
   75DOPC   D2A  894  23.880   0.053  14.287  0.2330 -0.4448  0.2640
   75DOPC   C3A  895  24.047  -0.201  13.868  0.3941  0.1358  0.0549
   75DOPC   C4A  896  24.193  -0.532  13.537  0.1584  0.1243  0.0375
   75DOPC   C1B  897  24.585   0.741  14.412 -0.0413 -0.0395  0.0613
   75DOPC   D2B  898  24.755   0.480  14.003 -0.0222  0.1890 -0.1202
   75DOPC   C3B  899  24.829   0.335  13.575 -0.2930  0.0468  0.0960
   75DOPC   C4B  900  24.832   0.013  13.224  0.3111 -0.1030 -0.0585
   76DOPC   NC3  901  28.929   7.239  14.429  0.1415  0.1139 -0.0701
   76DOPC   PO4  902  28.885   6.848  14.460  0.1457  0.1401 -0.0668
   76DOPC   GL1  903  28.718   6.700  14.062 -0.1986 -0.1275  0.0976
   76DOPC   GL2  904  28.806   6.973  13.960 -0.0957  0.1948  0.2864
   76DOPC   C1A  905  28.438   6.448  13.908  0.3219  0.1259  0.1634
   76DOPC   D2A  906  28.194   6.466  13.486 -0.3211  0.1926 -0.2774
   76DOPC   C3A  907  28.192   6.526  13.016 -0.0113 -0.2068  0.3116
   76DOPC   C4A  908  28.004   6.703  12.566  0.2509  0.3151  0.2259
   76DOPC   C1B  909  28.903   6.806  13.585 -0.3347 -0.2694  0.1444
   76DOPC   D2B  910  29.003   6.824  13.150  0.2316  0.0193 -0.0391
   76DOPC   C3B  911  28.761   6.775  12.739 -0.0662  0.4179  0.1334
   76DOPC   C4B  912  28.506   6.475  12.470 -0.2241 -0.2996 -0.0329
   77DOPC   NC3  913  17.531   6.151  15.755  0.1028  0.1449 -0.0715
   77DOPC   PO4  914  17.498   6.447  15.510 -0.0524  0.0481 -0.0605
   77DOPC   GL1  915  17.467   6.475  15.124  0.1700  0.0305 -0.0171
   77DOPC   GL2  916  17.254   6.398  15.085  0.1029  0.0626  0.0884
   77DOPC   C1A  917  17.744   6.289  14.766 -0.0637  0.1166  0.2561
   77DOPC   D2A  918  17.937   6.140  14.368  0.1790  0.1967  0.3970
   77DOPC   C3A  919  17.862   5.721  14.458  0.0173  0.0815 -0.0409
   77DOPC   C4A  920  17.915   5.189  14.362 -0.0608 -0.1429 -0.1127
   77DOPC   C1B  921  17.188   6.337  14.654 -0.1347  0.0423  0.0034
   77DOPC   D2B  922  17.251   6.204  14.186 -0.0303 -0.0660  0.0538
   77DOPC   C3B  923  16.936   6.329  13.749  0.1613 -0.0601 -0.1505
   77DOPC   C4B  924  16.532   6.265  13.433  0.2914  0.1532 -0.1190
   78DOPC   NC3  925   7.546   1.223  15.099 -0.0013 -0.1237  0.2432
   78DOPC   PO4  926   7.504   1.024  14.794 -0.0618 -0.0415 -0.2654
   78DOPC   GL1  927   7.520   1.031  14.330 -0.1362  0.0137 -0.3398
   78DOPC   GL2  928   7.264   1.012  14.253  0.0261  0.1210 -0.0926
   78DOPC   C1A  929   8.003   1.071  14.170  0.2536 -0.0510  0.1644
   78DOPC   D2A  930   8.455   1.105  14.002  0.2534 -0.0267  0.1338
   78DOPC   C3A  931   8.551   0.970  13.540 -0.1225  0.2272  0.1401
   78DOPC   C4A  932   8.698   0.668  13.193  0.2380  0.1862  0.3150
   78DOPC   C1B  933   7.214   1.389  14.077 -0.1470  0.1165 -0.0703
   78DOPC   D2B  934   7.457   1.729  13.808 -0.0645 -0.1712  0.2068
   78DOPC   C3B  935   7.719   1.489  13.479 -0.1539 -0.2775  0.0036
   78DOPC   C4B  936   7.622   1.229  13.033 -0.0778 -0.1303  0.0055
   79DOPC   NC3  937   8.485   0.493  14.940  0.0175  0.0197  0.1233
   79DOPC   PO4  938   8.855   0.610  14.982  0.1267 -0.3409  0.0412
   79DOPC   GL1  939   8.884   0.933  14.653 -0.1616 -0.2192  0.2569
   79DOPC   GL2  940   9.211   0.830  14.720  0.0820  0.1305  0.0353
   79DOPC   C1A  941   8.750   0.782  14.199 -0.0379  0.1333  0.2645
   79DOPC   D2A  942   8.763   0.608  13.737 -0.0328 -0.2165 -0.1065
   79DOPC   C3A  943   8.858   0.223  13.827  0.2146  0.0331  0.1654
   79DOPC   C4A  944   9.067  -0.166  13.935  0.2787 -0.1855 -0.0255
   79DOPC   C1B  945   9.310   0.760  14.293 -0.0996 -0.2452  0.0194
   79DOPC   D2B  946   9.667   0.753  13.945 -0.0478  0.2773  0.0470
   79DOPC   C3B  947   9.571   0.763  13.503  0.0635  0.0978  0.1702
   79DOPC   C4B  948   9.836   0.582  13.123  0.0487 -0.3381 -0.0477
   80DOPC   NC3  949  31.005   7.288  14.741  0.0088  0.1365 -0.0569
   80DOPC   PO4  950  31.116   6.971  14.482 -0.0076  0.2946 -0.1215
   80DOPC   GL1  951  30.912   7.118  14.215  0.1750  0.0269  0.3651
   80DOPC   GL2  952  30.690   7.196  14.273  0.0321  0.0727 -0.0312
   80DOPC   C1A  953  30.862   6.895  13.825  0.0334 -0.0719 -0.2733
   80DOPC   D2A  954  30.854   6.657  13.403  0.0895 -0.1614 -0.0204
   80DOPC   C3A  955  31.187   6.571  13.125 -0.0455  0.1140 -0.0887
   80DOPC   C4A  956  31.575   6.375  12.900  0.0225  0.1449  0.2741
   80DOPC   C1B  957  30.565   7.573  14.032  0.1506 -0.0866  0.0452
   80DOPC   D2B  958  30.293   7.791  13.627  0.3781 -0.1550  0.2392
   80DOPC   C3B  959  30.658   7.657  13.401 -0.3996 -0.1209  0.0654
   80DOPC   C4B  960  30.958   7.513  13.021  0.0217  0.0454  0.0667
   81DOPC   NC3  961  10.489   2.812  15.580  0.3411  0.0448  0.0421
   81DOPC   PO4  962  10.315   2.936  15.255  0.1673  0.1542  0.3006
   81DOPC   GL1  963  10.619   2.918  14.899  0.0455 -0.0692 -0.0718
   81DOPC   GL2  964  10.538   3.236  14.787 -0.5819 -0.2471  0.3377
   81DOPC   C1A  965  10.753   2.600  14.640  0.3265  0.0386 -0.0616
   81DOPC   D2A  966  10.902   2.611  14.185 -0.0444  0.2120 -0.0548
   81DOPC   C3A  967  11.155   2.515  13.810  0.1501  0.1210  0.0723
   81DOPC   C4A  968  11.331   2.766  13.383 -0.3922  0.3146  0.3093
   81DOPC   C1B  969  10.836   3.179  14.354  0.1038 -0.1585  0.0420
   81DOPC   D2B  970  11.154   2.987  13.963 -0.2296  0.0389  0.0928
   81DOPC   C3B  971  11.579   2.823  13.814 -0.0690 -0.0180 -0.4798
   81DOPC   C4B  972  12.064   2.873  13.757  0.0833 -0.1553  0.0688
   82DOPC   NC3  973  24.462   3.272  14.829 -0.3224 -0.0034  0.1745
   82DOPC   PO4  974  24.081   3.406  14.950  0.0405 -0.1371  0.3653
   82DOPC   GL1  975  23.855   3.614  14.695  0.1811 -0.2596  0.1032
   82DOPC   GL2  976  23.777   3.460  14.448  0.0661 -0.1624  0.0195
   82DOPC   C1A  977  23.948   3.989  14.484  0.0966  0.2435 -0.5055
   82DOPC   D2A  978  23.779   4.104  14.043  0.2364  0.1819 -0.1483
   82DOPC   C3A  979  23.559   4.232  13.650 -0.1335  0.3199  0.0050
   82DOPC   C4A  980  23.451   4.524  13.303  0.4619 -0.1124  0.0859
   82DOPC   C1B  981  23.753   3.615  14.007  0.2309 -0.2640  0.0416
   82DOPC   D2B  982  23.725   3.751  13.589 -0.0784 -0.1023 -0.0457
   82DOPC   C3B  983  23.664   3.526  13.157  0.2937 -0.0330  0.2495
   82DOPC   C4B  984  23.772   3.307  12.714  0.5107  0.1585 -0.1079
   83DOPC   NC3  985   4.973   1.506  14.650  0.1587 -0.1894 -0.1505
   83DOPC   PO4  986   4.947   1.876  14.862 -0.1215 -0.1781  0.2177
   83DOPC   GL1  987   5.129   2.114  14.587  0.2616 -0.2062  0.2162
   83DOPC   GL2  988   5.416   2.163  14.597 -0.0737  0.1679  0.3290
   83DOPC   C1A  989   4.922   2.205  14.237 -0.1147 -0.0127  0.2146
   83DOPC   D2A  990   5.009   2.322  13.785 -0.2625 -0.0789  0.1350
   83DOPC   C3A  991   5.132   2.147  13.380 -0.1844  0.1006 -0.0064
   83DOPC   C4A  992   5.552   1.912  13.219 -0.1414 -0.0946  0.0669
   83DOPC   C1B  993   5.539   2.177  14.150 -0.1388 -0.1146 -0.0031
   83DOPC   D2B  994   5.754   2.088  13.683 -0.2544 -0.0751 -0.1994
   83DOPC   C3B  995   6.049   1.780  13.429 -0.0603  0.0746  0.0457
   83DOPC   C4B  996   6.339   1.561  13.116 -0.0468 -0.1638 -0.0763
   84DOPC   NC3  997  24.676   5.212  14.877  0.2559  0.0232 -0.4912
   84DOPC   PO4  998  24.410   5.444  14.917  0.1086  0.0974 -0.1301
   84DOPC   GL1  999  24.185   5.581  14.559 -0.1577 -0.0510 -0.1307
   84DOPC   GL2 1000  24.220   5.318  14.460  0.2061 -0.1323  0.2031
   84DOPC   C1A 1001  23.813   5.719  14.366 -0.1817 -0.2870  0.0785
   84DOPC   D2A 1002  23.778   6.085  14.016  0.0714  0.0398  0.0469
   84DOPC   C3A 1003  23.830   5.958  13.556  0.1128  0.0761 -0.0210
   84DOPC   C4A 1004  24.068   5.618  13.241  0.0556 -0.0432 -0.2692
   84DOPC   C1B 1005  23.999   5.320  14.097 -0.1519 -0.3152  0.1219
   84DOPC   D2B 1006  23.806   5.432  13.623 -0.0167  0.1888  0.1800
   84DOPC   C3B 1007  24.227   5.634  13.749  0.3274 -0.0058  0.0892
   84DOPC   C4B 1008  24.416   5.645  14.170 -0.0277  0.0063 -0.0242
   85DOPC   NC3 1009  14.589   1.605  14.911  0.1640 -0.3006  0.3010
   85DOPC   PO4 1010  14.951   1.712  15.098 -0.2131  0.3500  0.2305
   85DOPC   GL1 1011  15.071   1.811  14.672  0.1953  0.2270 -0.3160
   85DOPC   GL2 1012  15.293   1.576  14.656  0.2404  0.0686  0.1150
   85DOPC   C1A 1013  14.795   1.842  14.360 -0.3114  0.0491 -0.0380
   85DOPC   D2A 1014  14.401   2.193  14.152 -0.0856  0.1837 -0.1104
   85DOPC   C3A 1015  14.018   2.383  14.315  0.0918  0.1045  0.0427
   85DOPC   C4A 1016  13.518   2.201  14.410  0.2065  0.0027  0.0478
   85DOPC   C1B 1017  15.258   1.632  14.228 -0.3449  0.1371  0.1537
   85DOPC   D2B 1018  15.332   1.826  13.781  0.1131 -0.0807 -0.0495
   85DOPC   C3B 1019  15.061   2.075  14.090  0.0967 -0.2266  0.0714
   85DOPC   C4B 1020  14.852   2.451  14.393  0.0293 -0.0147 -0.2152
   86DOPC   NC3 1021   6.222   0.829  14.330  0.3800 -0.4915  0.2028
   86DOPC   PO4 1022   6.506   0.591  14.316  0.0657  0.0354  0.0152
   86DOPC   GL1 1023   6.403   0.705  13.909 -0.4471 -0.1251 -0.2687
   86DOPC   GL2 1024   6.166   0.577  13.911 -0.0454  0.1230  0.3077
   86DOPC   C1A 1025   6.731   0.626  13.578  0.1044  0.0834 -0.1482
   86DOPC   D2A 1026   7.246   0.573  13.450  0.2934 -0.2278 -0.0377
   86DOPC   C3A 1027   7.452   0.659  13.023 -0.0442 -0.1208  0.0901
   86DOPC   C4A 1028   7.618   0.857  12.578 -0.0219 -0.1316 -0.2486
   86DOPC   C1B 1029   5.998   0.567  13.495 -0.2921  0.0229  0.1758
   86DOPC   D2B 1030   6.038   0.757  13.042  0.0325 -0.0919  0.0251
   86DOPC   C3B 1031   6.474   0.651  12.955 -0.1556 -0.1212 -0.0390
   86DOPC   C4B 1032   6.916   0.805  13.122 -0.1404  0.1465 -0.2408
   87DOPC   NC3 1033  23.594   3.364  15.104  0.3596 -0.1084  0.2206
   87DOPC   PO4 1034  23.717   3.766  15.162  0.1021 -0.0239 -0.2561
   87DOPC   GL1 1035  23.706   3.989  14.812 -0.1791 -0.4677 -0.3190
   87DOPC   GL2 1036  23.682   4.317  14.862 -0.1862 -0.0360  0.3108
   87DOPC   C1A 1037  23.451   4.038  14.440  0.0037  0.3678 -0.1255
   87DOPC   D2A 1038  23.268   4.004  14.015 -0.0250 -0.0897  0.1662
   87DOPC   C3A 1039  22.915   3.953  13.754  0.1295 -0.0825  0.1714
   87DOPC   C4A 1040  22.762   3.777  13.264  0.1622 -0.1255 -0.2017
   87DOPC   C1B 1041  23.667   4.550  14.501 -0.1399  0.2126  0.0510
   87DOPC   D2B 1042  23.486   4.596  13.985  0.1061  0.2224  0.1046
   87DOPC   C3B 1043  23.597   4.884  13.628  0.1733  0.0003  0.0881
   87DOPC   C4B 1044  23.693   5.069  13.232 -0.0996 -0.0916 -0.4157
   88DOPC   NC3 1045   2.285   7.676  14.857 -0.1015  0.1324  0.0814
   88DOPC   PO4 1046   2.391   7.445  14.499 -0.1934 -0.2768  0.0484
   88DOPC   GL1 1047   2.149   7.612  14.133 -0.0317 -0.0708 -0.1982
   88DOPC   GL2 1048   1.909   7.616  14.303  0.1407  0.3788  0.0638
   88DOPC   C1A 1049   2.167   7.551  13.706 -0.1544 -0.0208 -0.0520
   88DOPC   D2A 1050   2.299   7.201  13.340  0.0658  0.1358 -0.1733
   88DOPC   C3A 1051   2.656   6.866  13.449 -0.3843  0.0311 -0.1525
   88DOPC   C4A 1052   3.121   6.758  13.331 -0.1147  0.3435 -0.1148
   88DOPC   C1B 1053   1.721   7.713  13.930  0.4490  0.0804  0.2629
   88DOPC   D2B 1054   1.365   7.717  13.618 -0.1614 -0.1072 -0.1828
   88DOPC   C3B 1055   1.398   7.663  13.120  0.0371  0.1476  0.0363
   88DOPC   C4B 1056   1.207   7.671  12.670  0.2034  0.0958 -0.3258
   89DOPC   NC3 1057  22.397   0.971  14.916  0.2009 -0.0072  0.1858
   89DOPC   PO4 1058  21.979   1.026  14.910  0.1770  0.2106 -0.1057
   89DOPC   GL1 1059  21.899   0.847  14.524 -0.1628 -0.1175  0.0397
   89DOPC   GL2 1060  22.225   0.890  14.510 -0.0035  0.0006 -0.1295
   89DOPC   C1A 1061  21.940   0.574  14.263  0.1495 -0.0617  0.1130
   89DOPC   D2A 1062  21.940   0.389  13.780  0.3050 -0.1163  0.1649
   89DOPC   C3A 1063  21.979   0.661  13.462 -0.4614 -0.0998  0.0770
   89DOPC   C4A 1064  22.247   0.783  13.071  0.0702 -0.1454  0.0267
   89DOPC   C1B 1065  22.155   1.177  14.157  0.1304 -0.0130 -0.2661
   89DOPC   D2B 1066  21.743   1.479  14.112  0.1545  0.2079 -0.0935
   89DOPC   C3B 1067  21.376   1.570  13.910 -0.3885 -0.1822 -0.2380
   89DOPC   C4B 1068  20.877   1.543  13.706 -0.0280 -0.1766  0.2057
   90DOPC   NC3 1069  19.023   5.129  15.959 -0.1342 -0.1785 -0.0515
   90DOPC   PO4 1070  18.732   4.963  15.761  0.3321  0.0492  0.1335
   90DOPC   GL1 1071  18.866   4.903  15.409 -0.2193 -0.4491 -0.1729
   90DOPC   GL2 1072  19.035   4.678  15.482  0.2111  0.0979 -0.2054
   90DOPC   C1A 1073  18.670   4.801  15.048  0.3350  0.1636  0.2572
   90DOPC   D2A 1074  18.844   4.662  14.573 -0.0936 -0.2614  0.0211
   90DOPC   C3A 1075  18.792   4.729  14.106 -0.1681 -0.3618  0.4445
   90DOPC   C4A 1076  18.581   4.784  13.729 -0.1498  0.1099  0.4388
   90DOPC   C1B 1077  19.102   4.498  15.118 -0.1580 -0.1276 -0.1571
   90DOPC   D2B 1078  19.254   4.360  14.671 -0.1012 -0.0789 -0.0675
   90DOPC   C3B 1079  19.582   4.082  14.544  0.0576 -0.1607  0.0323
   90DOPC   C4B 1080  19.775   3.640  14.448 -0.1363 -0.1428 -0.1060
   91DOPC   NC3 1081  12.767   0.887  15.490 -0.1359  0.1962  0.1180
   91DOPC   PO4 1082  12.668   0.549  15.602  0.0428  0.0434  0.1007
   91DOPC   GL1 1083  12.520   0.254  15.257 -0.1082 -0.0764  0.0099
   91DOPC   GL2 1084  12.801   0.219  15.245 -0.1334 -0.1098  0.1222
   91DOPC   C1A 1085  12.460  -0.059  14.837  0.0330  0.0069 -0.0255
   91DOPC   D2A 1086  12.210  -0.221  14.434 -0.3623  0.0097  0.2305
   91DOPC   C3A 1087  12.147   0.166  14.234 -0.0529 -0.0044  0.0400
   91DOPC   C4A 1088  12.051   0.655  14.207 -0.2635 -0.2107  0.0741
   91DOPC   C1B 1089  12.912   0.009  14.794 -0.0136  0.0166 -0.4225
   91DOPC   D2B 1090  13.115  -0.173  14.393  0.0651  0.0790 -0.0616
   91DOPC   C3B 1091  12.958  -0.067  13.984  0.1381  0.1680 -0.3832
   91DOPC   C4B 1092  12.730  -0.153  13.558  0.0046 -0.2092 -0.2686
   92DOPC   NC3 1093  17.034   6.109  15.372 -0.1026 -0.2247  0.2252
   92DOPC   PO4 1094  17.063   5.765  15.195 -0.2078 -0.0781 -0.0675
   92DOPC   GL1 1095  16.906   5.646  14.798  0.0567  0.1734  0.0553
   92DOPC   GL2 1096  17.141   5.853  14.775 -0.0033 -0.1612  0.3196
   92DOPC   C1A 1097  17.127   5.408  14.583  0.1007 -0.0311 -0.1110
   92DOPC   D2A 1098  17.429   5.112  14.229 -0.0628  0.0071  0.0869
   92DOPC   C3A 1099  17.110   4.820  14.025  0.0446 -0.2100  0.0064
   92DOPC   C4A 1100  16.902   4.813  13.605  0.0564 -0.3156  0.0617
   92DOPC   C1B 1101  17.353   5.795  14.425  0.1589  0.0674 -0.1509
   92DOPC   D2B 1102  17.615   5.729  14.025  0.2494  0.2175 -0.1044
   92DOPC   C3B 1103  17.833   5.603  13.543 -0.3760  0.0592  0.2681
   92DOPC   C4B 1104  18.261   5.547  13.183  0.1115 -0.0335  0.2299
   93DOPC   NC3 1105  18.337   6.397  14.868 -0.0744 -0.0045 -0.2859
   93DOPC   PO4 1106  18.543   6.563  15.175 -0.0712 -0.0085  0.0897
   93DOPC   GL1 1107  18.688   6.867  14.951  0.2433 -0.3231  0.0523
   93DOPC   GL2 1108  18.407   6.871  14.778 -0.2545  0.0242 -0.1958
   93DOPC   C1A 1109  19.099   6.825  14.689  0.1186  0.1174 -0.1363
   93DOPC   D2A 1110  19.392   6.900  14.268  0.1246 -0.1204  0.2784
   93DOPC   C3A 1111  19.347   6.930  13.787  0.1173  0.2808  0.0996
   93DOPC   C4A 1112  19.212   6.893  13.341 -0.0283  0.4106 -0.1098
   93DOPC   C1B 1113  18.476   6.979  14.364  0.1552  0.1549  0.3082
   93DOPC   D2B 1114  18.506   7.052  13.862 -0.1894  0.1955 -0.0267
   93DOPC   C3B 1115  18.828   6.767  13.636  0.1843 -0.2918 -0.1913
   93DOPC   C4B 1116  19.172   6.410  13.549 -0.3655 -0.0623  0.3711
   94DOPC   NC3 1117  24.050   1.501  15.727 -0.0444 -0.2191  0.3732
   94DOPC   PO4 1118  23.884   1.505  15.343 -0.2489  0.2301 -0.0114
   94DOPC   GL1 1119  24.068   1.747  14.986 -0.4264  0.2150  0.0642
   94DOPC   GL2 1120  24.201   1.446  14.876  0.1679 -0.3776 -0.0509
   94DOPC   C1A 1121  23.943   1.817  14.565 -0.3340 -0.2420  0.4201
   94DOPC   D2A 1122  23.793   1.921  14.096  0.2167  0.3827 -0.0500
   94DOPC   C3A 1123  24.244   1.867  13.888  0.3445  0.0748  0.0531
   94DOPC   C4A 1124  24.706   1.919  13.858 -0.2537  0.0825 -0.1671
   94DOPC   C1B 1125  24.003   1.106  14.630  0.1912 -0.0207  0.1090
   94DOPC   D2B 1126  24.041   0.896  14.193  0.4507 -0.1632 -0.1365
   94DOPC   C3B 1127  24.414   0.922  13.939  0.1739 -0.1335  0.0558
   94DOPC   C4B 1128  24.503   0.683  13.497  0.1658 -0.0601  0.0842
   95DOPC   NC3 1129  26.340   4.083  15.001 -0.2565  0.2281 -0.0170
   95DOPC   PO4 1130  26.332   3.714  15.019  0.0317 -0.0178  0.0705
   95DOPC   GL1 1131  26.506   3.719  14.636  0.1541  0.1370 -0.3388
   95DOPC   GL2 1132  26.301   3.557  14.541  0.1971 -0.0024  0.4402
   95DOPC   C1A 1133  26.762   3.877  14.294  0.0615 -0.0178  0.1384
   95DOPC   D2A 1134  26.770   4.219  13.957 -0.2054 -0.1569 -0.0073
   95DOPC   C3A 1135  26.456   4.489  14.234  0.1195  0.0252  0.2197
   95DOPC   C4A 1136  26.155   4.611  14.528  0.1170  0.0643  0.1429
   95DOPC   C1B 1137  25.906   3.572  14.502 -0.2831 -0.2143  0.1458
   95DOPC   D2B 1138  25.605   3.846  14.397  0.0602 -0.0946  0.1135
   95DOPC   C3B 1139  25.803   3.863  13.971  0.1799  0.2474 -0.0034
   95DOPC   C4B 1140  25.510   3.914  13.512  0.0910  0.0511  0.1895
   96DOPC   NC3 1141  11.724   0.230  15.486  0.2105  0.0336  0.1247
   96DOPC   PO4 1142  11.927   0.579  15.442 -0.0011  0.1238 -0.0023
   96DOPC   GL1 1143  11.765   0.939  15.166 -0.0498  0.2258  0.0623
   96DOPC   GL2 1144  11.706   0.655  15.072 -0.0449  0.0024  0.2317
   96DOPC   C1A 1145  12.087   1.107  14.959 -0.2050  0.1655 -0.4768
   96DOPC   D2A 1146  12.389   1.516  14.797  0.0480  0.2163 -0.2521
   96DOPC   C3A 1147  12.559   1.304  14.448  0.0809 -0.1110  0.1915
   96DOPC   C4A 1148  12.749   1.115  13.991  0.2944  0.0958  0.4258
   96DOPC   C1B 1149  12.030   0.549  14.763 -0.0486  0.0248  0.2674
   96DOPC   D2B 1150  12.499   0.372  14.570  0.2775  0.0508 -0.0117
   96DOPC   C3B 1151  12.624   0.002  14.327 -0.0446  0.1649  0.1753
   96DOPC   C4B 1152  12.473  -0.294  13.992  0.0464 -0.1168 -0.0042
   97DOPC   NC3 1153  14.232   7.325  15.423  0.0338  0.0811 -0.1266
   97DOPC   PO4 1154  13.846   7.318  15.494 -0.0208 -0.0390  0.0901
   97DOPC   GL1 1155  13.529   7.369  15.112 -0.0110  0.1201 -0.2250
   97DOPC   GL2 1156  13.573   7.150  15.033 -0.0591  0.0473  0.0678
   97DOPC   C1A 1157  13.204   7.501  14.852  0.2310 -0.1166 -0.0321
   97DOPC   D2A 1158  12.725   7.403  14.819 -0.0077  0.1341  0.0091
   97DOPC   C3A 1159  12.595   7.283  14.402  0.0759 -0.0603  0.1704
   97DOPC   C4A 1160  12.431   7.043  13.982  0.0385  0.3760  0.2621
   97DOPC   C1B 1161  13.636   7.117  14.617 -0.1946 -0.0833  0.2564
   97DOPC   D2B 1162  13.460   7.347  14.186 -0.1911  0.2108 -0.0044
   97DOPC   C3B 1163  13.385   7.599  13.837  0.0209  0.0261  0.1450
   97DOPC   C4B 1164  13.336   7.852  13.441 -0.3458  0.1058 -0.1983
   98DOPC   NC3 1165   3.918   0.901  15.185 -0.0632  0.0275 -0.0166
   98DOPC   PO4 1166   3.980   0.841  14.811  0.0785 -0.1768  0.0958
   98DOPC   GL1 1167   4.001   1.081  14.442 -0.0605  0.2142 -0.1933
   98DOPC   GL2 1168   4.296   0.955  14.382  0.4468 -0.2195  0.0715
   98DOPC   C1A 1169   3.834   1.134  14.022 -0.2241 -0.2597  0.0852
   98DOPC   D2A 1170   3.524   1.258  13.673  0.0303 -0.3174  0.0214
   98DOPC   C3A 1171   3.418   1.185  13.242  0.1188  0.0829  0.1684
   98DOPC   C4A 1172   3.380   0.824  12.926 -0.0520  0.1466  0.2350
   98DOPC   C1B 1173   4.481   0.775  14.063 -0.1815  0.1628  0.0473
   98DOPC   D2B 1174   4.750   0.630  13.656 -0.0377  0.2726  0.1432
   98DOPC   C3B 1175   4.978   0.560  13.231  0.0668 -0.1621 -0.1747
   98DOPC   C4B 1176   5.283   0.409  12.868 -0.1548 -0.1746  0.1725
   99DOPC   NC3 1177  14.190   1.223  15.488 -0.2342  0.3022  0.2080
   99DOPC   PO4 1178  13.839   1.403  15.533  0.1417  0.2096  0.1082
   99DOPC   GL1 1179  13.511   1.216  15.272 -0.0210 -0.1260 -0.0785
   99DOPC   GL2 1180  13.698   1.092  15.302 -0.0204  0.0523 -0.1916
   99DOPC   C1A 1181  13.439   1.264  14.839  0.3482 -0.0924  0.2691
   99DOPC   D2A 1182  13.483   1.141  14.304 -0.1722 -0.0293  0.0941
   99DOPC   C3A 1183  13.496   1.374  13.822 -0.1296 -0.2965 -0.0170
   99DOPC   C4A 1184  13.398   1.370  13.350  0.0862  0.1040 -0.1320
   99DOPC   C1B 1185  13.977   0.914  15.014  0.3591  0.2898  0.6043
   99DOPC   D2B 1186  14.281   0.604  14.718 -0.0895  0.0617 -0.1245
   99DOPC   C3B 1187  14.270   0.622  14.265  0.1627  0.3752  0.0798
   99DOPC   C4B 1188  14.255   0.725  13.796 -0.3033  0.2738 -0.1623
  100DOPC   NC3 1189   5.034   4.747  15.186  0.2248  0.3088 -0.0519
  100DOPC   PO4 1190   4.864   4.903  14.856  0.0316  0.2976 -0.1056
  100DOPC   GL1 1191   4.753   4.984  14.477 -0.4275  0.0446  0.2077
  100DOPC   GL2 1192   4.808   4.739  14.284 -0.3228  0.1710 -0.2277
  100DOPC   C1A 1193   4.660   5.297  14.201  0.0974 -0.2559  0.2396
  100DOPC   D2A 1194   4.232   5.407  13.984  0.3693  0.2596  0.1297
  100DOPC   C3A 1195   4.032   5.260  13.572 -0.1110 -0.1649  0.1117
  100DOPC   C4A 1196   3.717   5.196  13.063 -0.0563  0.0888 -0.0629
  100DOPC   C1B 1197   5.003   4.834  13.894 -0.1563 -0.1864  0.2648
  100DOPC   D2B 1198   5.057   5.045  13.428 -0.1476 -0.0642  0.0601
  100DOPC   C3B 1199   4.772   5.320  13.219  0.0519 -0.1405  0.3072
  100DOPC   C4B 1200   4.326   5.464  13.216  0.1705  0.1169 -0.0300
  101DOPC   NC3 1201  19.909   2.443  11.199 -0.3236 -0.0332  0.0570
  101DOPC   PO4 1202  19.539   2.301  11.353 -0.0225  0.2769 -0.1094
  101DOPC   GL1 1203  19.537   2.040  11.800  0.0786  0.0609  0.0370
  101DOPC   GL2 1204  19.673   2.344  11.777 -0.2562 -0.1581 -0.1300
  101DOPC   C1A 1205  19.481   2.077  12.206  0.0579  0.1764  0.3934
  101DOPC   D2A 1206  19.497   2.234  12.651  0.0034 -0.0901 -0.0952
  101DOPC   C3A 1207  19.287   2.099  13.012  0.1351 -0.1487 -0.0377
  101DOPC   C4A 1208  19.000   1.951  13.353 -0.3331  0.1075  0.0526
  101DOPC   C1B 1209  19.598   2.690  12.026 -0.1623  0.0596 -0.2401
  101DOPC   D2B 1210  19.371   2.756  12.478  0.1330  0.0340 -0.1718
  101DOPC   C3B 1211  19.309   2.641  12.935  0.1116  0.1254  0.1838
  101DOPC   C4B 1212  18.907   2.404  13.172 -0.1476 -0.1854 -0.0954
  102DOPC   NC3 1213  16.042   6.991  11.059  0.0625  0.0680 -0.0581
  102DOPC   PO4 1214  15.821   7.274  11.182  0.0736 -0.1782  0.1174
  102DOPC   GL1 1215  15.972   7.260  11.528 -0.1559 -0.5292 -0.3186
  102DOPC   GL2 1216  15.894   6.919  11.517 -0.0113  0.0581  0.0526
  102DOPC   C1A 1217  15.913   7.276  11.935 -0.1676 -0.0185  0.1885
  102DOPC   D2A 1218  15.728   7.262  12.382  0.1130 -0.0757  0.1131
  102DOPC   C3A 1219  15.302   7.278  12.525  0.0673  0.2008  0.2426
  102DOPC   C4A 1220  14.945   7.116  12.737  0.1360  0.1154  0.3537
  102DOPC   C1B 1221  15.795   6.816  11.988  0.0480 -0.3216 -0.0904
  102DOPC   D2B 1222  15.658   6.689  12.513 -0.0616 -0.1067 -0.0707
  102DOPC   C3B 1223  15.348   6.870  12.851 -0.0105 -0.0621 -0.1248
  102DOPC   C4B 1224  15.070   7.090  13.232  0.0928 -0.4259 -0.2553
  103DOPC   NC3 1225  21.844   0.960  11.454 -0.3571  0.0475  0.0829
  103DOPC   PO4 1226  21.617   1.195  11.237 -0.1173  0.0218  0.1207
  103DOPC   GL1 1227  21.668   1.391  11.614  0.2514 -0.1034  0.0231
  103DOPC   GL2 1228  21.456   1.602  11.625  0.1959 -0.0635 -0.1638
  103DOPC   C1A 1229  21.878   1.220  11.960 -0.0349  0.0638  0.0175
  103DOPC   D2A 1230  22.012   1.318  12.408 -0.0078 -0.1385 -0.0144
  103DOPC   C3A 1231  22.386   1.156  12.715  0.1342 -0.0707  0.0907
  103DOPC   C4A 1232  22.818   0.987  12.943  0.0140  0.1244 -0.1825
  103DOPC   C1B 1233  21.837   1.863  11.760 -0.0173  0.0658  0.0252
  103DOPC   D2B 1234  22.038   1.801  12.179 -0.2902 -0.0916  0.0788
  103DOPC   C3B 1235  22.250   1.767  12.623  0.2421 -0.0099 -0.0243
  103DOPC   C4B 1236  22.466   1.593  13.047 -0.1313  0.1212 -0.4576
  104DOPC   NC3 1237  21.274   0.123  11.459  0.0743  0.0012  0.1181
  104DOPC   PO4 1238  20.920  -0.047  11.436 -0.0038 -0.1612 -0.3684
  104DOPC   GL1 1239  20.964  -0.258  11.732  0.1905  0.0667 -0.2908
  104DOPC   GL2 1240  21.289  -0.239  11.804  0.4057  0.1310 -0.0834
  104DOPC   C1A 1241  20.704  -0.429  12.040 -0.0300 -0.0867  0.0285
  104DOPC   D2A 1242  20.651  -0.340  12.448  0.0716 -0.0307 -0.4540
  104DOPC   C3A 1243  20.348  -0.455  12.788  0.0385 -0.1622 -0.2716
  104DOPC   C4A 1244  20.070  -0.721  13.186  0.1368  0.1381 -0.4067
  104DOPC   C1B 1245  21.295  -0.320  12.236 -0.3758 -0.2260 -0.1397
  104DOPC   D2B 1246  21.114  -0.474  12.681 -0.1605 -0.2376 -0.0891
  104DOPC   C3B 1247  21.253  -0.711  13.065  0.0371 -0.2414  0.0216
  104DOPC   C4B 1248  21.430  -1.148  13.267  0.0699  0.0113  0.1409
  105DOPC   NC3 1249  25.181   1.923  10.929  0.1574  0.0604 -0.1848
  105DOPC   PO4 1250  25.513   2.146  10.883 -0.1215  0.2212 -0.2378
  105DOPC   GL1 1251  25.604   2.209  11.218  0.0727 -0.0147 -0.1393
  105DOPC   GL2 1252  25.544   1.980  11.384 -0.1551 -0.2636  0.1344
  105DOPC   C1A 1253  25.623   2.407  11.659  0.0948  0.1777  0.2442
  105DOPC   D2A 1254  25.774   2.394  12.106  0.1396 -0.1170  0.2492
  105DOPC   C3A 1255  26.025   2.419  12.474  0.1273 -0.1033 -0.1023
  105DOPC   C4A 1256  26.248   2.335  12.941 -0.2145 -0.1741  0.0127
  105DOPC   C1B 1257  25.669   1.886  11.761 -0.0104  0.1080 -0.3180
  105DOPC   D2B 1258  25.610   1.864  12.281 -0.0559  0.4404  0.1713
  105DOPC   C3B 1259  25.533   1.647  12.647  0.0670  0.1499 -0.0677
  105DOPC   C4B 1260  25.532   1.253  12.952 -0.1469 -0.0624 -0.0438
  106DOPC   NC3 1261  18.292   7.192  11.245  0.1433  0.0270 -0.1449
  106DOPC   PO4 1262  18.326   6.792  11.329 -0.0904  0.0024  0.1725
  106DOPC   GL1 1263  18.611   6.646  11.569 -0.1034 -0.0024 -0.1850
  106DOPC   GL2 1264  18.461   6.349  11.575 -0.1983  0.2897  0.1096
  106DOPC   C1A 1265  18.542   6.753  11.938  0.2671  0.0693  0.0033
  106DOPC   D2A 1266  18.414   6.705  12.431 -0.3181 -0.1346  0.2547
  106DOPC   C3A 1267  18.006   6.531  12.418 -0.1547 -0.1796 -0.3295
  106DOPC   C4A 1268  17.502   6.623  12.395 -0.3585 -0.2248  0.1432
  106DOPC   C1B 1269  18.365   6.314  12.000  0.1537 -0.1328 -0.1315
  106DOPC   D2B 1270  18.158   6.029  12.289 -0.0284  0.0535  0.1201
  106DOPC   C3B 1271  18.251   5.699  12.584 -0.1271 -0.0538 -0.4444
  106DOPC   C4B 1272  18.464   5.340  12.303  0.1123  0.0338  0.0432
  107DOPC   NC3 1273  14.430   7.111  11.145  0.1057 -0.1003  0.0028
  107DOPC   PO4 1274  14.621   7.004  11.461 -0.0182  0.0939  0.0733
  107DOPC   GL1 1275  14.439   6.934  11.888 -0.1639 -0.1915  0.4762
  107DOPC   GL2 1276  14.526   7.267  11.854 -0.3316  0.0836  0.0349
  107DOPC   C1A 1277  14.061   6.886  12.096 -0.0716 -0.3653  0.0039
  107DOPC   D2A 1278  13.747   6.554  12.310  0.0455  0.1069  0.1220
  107DOPC   C3A 1279  13.481   6.666  12.658 -0.0715 -0.1232  0.2308
  107DOPC   C4A 1280  13.116   6.511  12.987 -0.0042  0.0171 -0.0322
  107DOPC   C1B 1281  14.877   7.431  11.978 -0.0494 -0.0508 -0.0866
  107DOPC   D2B 1282  15.093   7.780  12.283 -0.1266  0.0493  0.1027
  107DOPC   C3B 1283  15.087   7.672  12.776  0.2726 -0.0621 -0.1448
  107DOPC   C4B 1284  15.095   7.648  13.317  0.0279 -0.2080  0.0706
  108DOPC   NC3 1285  18.351   5.236  11.464  0.1965 -0.0256 -0.0333
  108DOPC   PO4 1286  18.447   4.880  11.599  0.1444 -0.1796 -0.0073
  108DOPC   GL1 1287  18.467   4.675  11.909 -0.0722 -0.0164  0.1279
  108DOPC   GL2 1288  18.820   4.786  11.928 -0.1804  0.0434  0.2897
  108DOPC   C1A 1289  18.251   4.815  12.309  0.0897  0.0175  0.0481
  108DOPC   D2A 1290  17.997   4.693  12.774  0.1730  0.1004  0.0473
  108DOPC   C3A 1291  17.668   4.669  12.414  0.0837  0.2630 -0.1057
  108DOPC   C4A 1292  17.254   4.730  12.154  0.3948 -0.2368 -0.1759
  108DOPC   C1B 1293  19.162   4.653  12.190  0.1744 -0.0295  0.0631
  108DOPC   D2B 1294  19.546   4.594  12.503 -0.1768 -0.3289  0.0071
  108DOPC   C3B 1295  19.695   4.776  12.814  0.2198  0.2716 -0.0382
  108DOPC   C4B 1296  19.926   5.022  13.134 -0.1763 -0.2483  0.0694
  109DOPC   NC3 1297   3.870   5.778  10.027 -0.1045 -0.0001  0.0613
  109DOPC   PO4 1298   4.096   5.611  10.309  0.2030  0.1052 -0.2609
  109DOPC   GL1 1299   3.933   5.579  10.783  0.0181 -0.0505 -0.1681
  109DOPC   GL2 1300   4.080   5.731  10.881 -0.1685 -0.2749 -0.1801
  109DOPC   C1A 1301   3.591   5.520  11.046 -0.1528  0.1334  0.1355
  109DOPC   D2A 1302   3.477   5.556  11.543  0.1331  0.1500  0.1411
  109DOPC   C3A 1303   3.872   5.554  11.873  0.1397 -0.2274  0.3053
  109DOPC   C4A 1304   4.160   5.476  12.233  0.1172 -0.4359 -0.2411
  109DOPC   C1B 1305   3.882   5.821  11.282  0.0843 -0.0537 -0.0095
  109DOPC   D2B 1306   3.669   5.999  11.689  0.0946  0.1196 -0.0520
  109DOPC   C3B 1307   3.740   6.221  12.075  0.1303  0.2338 -0.0637
  109DOPC   C4B 1308   4.151   6.313  12.310 -0.1347  0.4886  0.2367
  110DOPC   NC3 1309  20.832   7.007  11.128  0.2542  0.4393  0.0572
  110DOPC   PO4 1310  21.050   6.902  11.478 -0.0956  0.0499 -0.1878
  110DOPC   GL1 1311  20.938   6.598  11.797  0.0130  0.0639  0.0300
  110DOPC   GL2 1312  21.236   6.449  11.681 -0.0366  0.4555 -0.5357
  110DOPC   C1A 1313  20.933   6.585  12.185  0.1049 -0.3271 -0.1901
  110DOPC   D2A 1314  20.715   6.430  12.582 -0.0845  0.0908  0.2762
  110DOPC   C3A 1315  20.319   6.514  12.774  0.2656  0.4992  0.0022
  110DOPC   C4A 1316  19.931   6.652  12.979 -0.0193  0.3765  0.0610
  110DOPC   C1B 1317  21.341   6.416  12.100 -0.1093 -0.4531  0.1237
  110DOPC   D2B 1318  21.244   6.351  12.595 -0.1819  0.2607  0.1571
  110DOPC   C3B 1319  21.561   6.165  12.981 -0.1031 -0.0257  0.3924
  110DOPC   C4B 1320  21.734   6.082  13.405 -0.0588 -0.0183 -0.0554
  111DOPC   NC3 1321  26.232   5.127  11.143 -0.3033  0.0486  0.0890
  111DOPC   PO4 1322  25.896   5.279  11.274 -0.1497 -0.1834  0.1217
  111DOPC   GL1 1323  25.904   5.130  11.676  0.0823  0.1313 -0.3738
  111DOPC   GL2 1324  25.896   5.385  11.761  0.5094  0.3703 -0.1814
  111DOPC   C1A 1325  25.914   4.866  12.011  0.2648 -0.2328  0.1714
  111DOPC   D2A 1326  25.682   4.525  12.343  0.0683  0.0486 -0.1248
  111DOPC   C3A 1327  25.457   4.630  12.749 -0.2105 -0.0517 -0.1068
  111DOPC   C4A 1328  25.662   4.687  13.196 -0.2580 -0.0810  0.0057
  111DOPC   C1B 1329  26.157   5.278  12.134 -0.0663 -0.1999  0.0278
  111DOPC   D2B 1330  26.417   5.063  12.539  0.1975 -0.1018  0.1183
  111DOPC   C3B 1331  26.882   5.056  12.643 -0.0200 -0.0992 -0.3436
  111DOPC   C4B 1332  27.364   5.057  12.750  0.1853  0.1050 -0.1402
  112DOPC   NC3 1333   2.743   0.694  10.271 -0.2743 -0.1247  0.0487
  112DOPC   PO4 1334   3.033   0.512  10.430  0.0600 -0.3108  0.0515
  112DOPC   GL1 1335   3.241   0.553  10.715  0.2147  0.1970  0.1181
  112DOPC   GL2 1336   3.188   0.826  10.807  0.0768  0.2038  0.0380
  112DOPC   C1A 1337   3.067   0.392  11.091 -0.0734 -0.0479 -0.2280
  112DOPC   D2A 1338   2.868   0.469  11.581  0.0924  0.1023 -0.1132
  112DOPC   C3A 1339   2.987   0.598  12.007  0.1438 -0.0226 -0.0669
  112DOPC   C4A 1340   2.968   0.937  12.370  0.1971 -0.1001  0.2679
  112DOPC   C1B 1341   2.988   0.821  11.228 -0.2321  0.0080 -0.2408
  112DOPC   D2B 1342   2.824   0.976  11.615 -0.2346  0.0167  0.1953
  112DOPC   C3B 1343   2.428   0.863  11.884  0.1414  0.0904  0.3102
  112DOPC   C4B 1344   2.108   0.798  12.257 -0.0485  0.0114 -0.1024
  113DOPC   NC3 1345  23.049   4.035  10.799  0.1535 -0.2424 -0.0196
  113DOPC   PO4 1346  23.105   4.413  10.957 -0.2427  0.1586 -0.1054
  113DOPC   GL1 1347  23.250   4.415  11.405  0.0686  0.1659  0.5281
  113DOPC   GL2 1348  22.972   4.343  11.508 -0.0087 -0.0397  0.1670
  113DOPC   C1A 1349  23.453   4.428  11.732 -0.1150  0.1922  0.2055
  113DOPC   D2A 1350  23.758   4.192  11.988 -0.0282  0.2585 -0.2701
  113DOPC   C3A 1351  24.172   4.195  12.126  0.0441  0.1210  0.2842
  113DOPC   C4A 1352  24.299   4.067  12.548 -0.0993  0.1126 -0.0872
  113DOPC   C1B 1353  23.192   4.025  11.758 -0.1615 -0.1148 -0.2079
  113DOPC   D2B 1354  23.144   3.696  12.168  0.1722  0.0160  0.3181
  113DOPC   C3B 1355  22.950   3.809  12.563  0.2523 -0.1499  0.1913
  113DOPC   C4B 1356  22.806   4.139  12.917 -0.1032 -0.0358 -0.0585
  114DOPC   NC3 1357  29.352   2.354  10.835 -0.2225 -0.1519  0.0535
  114DOPC   PO4 1358  29.684   2.444  10.613 -0.0066  0.2039  0.1241
  114DOPC   GL1 1359  29.750   2.504  11.019  0.0898 -0.1955  0.1974
  114DOPC   GL2 1360  29.503   2.701  11.067  0.1174 -0.0657 -0.1781
  114DOPC   C1A 1361  30.003   2.419  11.360 -0.0208  0.1145  0.0706
  114DOPC   D2A 1362  30.036   2.570  11.870  0.2366 -0.3129 -0.3556
  114DOPC   C3A 1363  30.009   2.258  12.161 -0.0933  0.3584 -0.0619
  114DOPC   C4A 1364  29.781   1.867  12.421 -0.0753  0.0719 -0.0979
  114DOPC   C1B 1365  29.509   2.891  11.502 -0.0252 -0.1467  0.0146
  114DOPC   D2B 1366  29.801   3.022  11.873  0.1351 -0.3168 -0.1664
  114DOPC   C3B 1367  30.066   2.967  12.306  0.3124  0.0946  0.1958
  114DOPC   C4B 1368  30.372   2.952  12.704 -0.0322  0.0722 -0.0303
  115DOPC   NC3 1369  27.432   1.678  10.847  0.1145 -0.0224  0.1190
  115DOPC   PO4 1370  27.043   1.796  10.996  0.3001 -0.0340  0.1918
  115DOPC   GL1 1371  26.996   1.940  11.471 -0.0887 -0.1816 -0.3121
  115DOPC   GL2 1372  26.753   2.110  11.392 -0.2853 -0.0348  0.2569
  115DOPC   C1A 1373  27.025   1.765  11.863 -0.1462 -0.1479 -0.0618
  115DOPC   D2A 1374  26.985   1.710  12.399 -0.0274  0.1603  0.2311
  115DOPC   C3A 1375  27.433   1.650  12.615  0.2487 -0.0702 -0.1383
  115DOPC   C4A 1376  27.925   1.548  12.724  0.1778 -0.1805  0.1666
  115DOPC   C1B 1377  26.715   2.434  11.688  0.3588 -0.0400 -0.1828
  115DOPC   D2B 1378  26.752   2.370  12.142 -0.5090 -0.3476  0.1291
  115DOPC   C3B 1379  26.517   2.573  12.439  0.0674 -0.1684 -0.0233
  115DOPC   C4B 1380  26.349   2.812  12.841  0.1120  0.1370 -0.0778
  116DOPC   NC3 1381  19.031   5.536  11.191  0.0314 -0.0562 -0.0516
  116DOPC   PO4 1382  18.881   5.228  11.389 -0.1142 -0.0930 -0.0157
  116DOPC   GL1 1383  19.103   5.173  11.725  0.0345  0.1306  0.2777
  116DOPC   GL2 1384  19.355   5.369  11.570 -0.0464  0.0503  0.1569
  116DOPC   C1A 1385  19.021   5.153  12.216 -0.0684 -0.0896  0.1159
  116DOPC   D2A 1386  18.751   4.841  12.443  0.0872 -0.1366 -0.3199
  116DOPC   C3A 1387  18.650   4.619  12.854 -0.3866  0.2609 -0.0642
  116DOPC   C4A 1388  18.370   4.698  13.268  0.1770 -0.0858  0.3125
  116DOPC   C1B 1389  19.512   5.424  11.948 -0.0263  0.1219  0.0595
  116DOPC   D2B 1390  19.732   5.423  12.379 -0.0804  0.2913  0.1237
  116DOPC   C3B 1391  19.562   5.430  12.831 -0.0219  0.1727  0.0659
  116DOPC   C4B 1392  19.573   5.520  13.316 -0.0578  0.1934 -0.1051
  117DOPC   NC3 1393   9.207   2.529  10.842  0.1855 -0.0366 -0.1204
  117DOPC   PO4 1394   8.862   2.384  10.831  0.1086  0.2181 -0.0456
  117DOPC   GL1 1395   8.929   2.332  11.193 -0.1375 -0.0521 -0.1026
  117DOPC   GL2 1396   8.951   2.625  11.222 -0.2627  0.1345 -0.1749
  117DOPC   C1A 1397   8.950   2.023  11.548 -0.1560 -0.3348 -0.0526
  117DOPC   D2A 1398   9.138   1.778  11.902 -0.1876 -0.2053  0.1775
  117DOPC   C3A 1399   9.223   1.718  12.398  0.1258 -0.3182  0.0031
  117DOPC   C4A 1400   9.008   2.072  12.642  0.0049  0.2381 -0.3320
  117DOPC   C1B 1401   8.661   2.785  11.577 -0.0015  0.0104 -0.0475
  117DOPC   D2B 1402   8.302   2.974  11.931  0.0678  0.2016 -0.0816
  117DOPC   C3B 1403   8.189   3.283  12.277 -0.2025 -0.0975 -0.0621
  117DOPC   C4B 1404   7.963   3.529  12.635  0.1276 -0.1271  0.0031
  118DOPC   NC3 1405  29.130   6.745  10.688 -0.3885  0.1876  0.3239
  118DOPC   PO4 1406  29.487   6.598  10.557  0.1185 -0.3060  0.0594
  118DOPC   GL1 1407  29.721   6.624  10.886  0.2795 -0.1721  0.4304
  118DOPC   GL2 1408  29.532   6.869  10.987  0.2496 -0.0782  0.4963
  118DOPC   C1A 1409  30.143   6.567  11.011  0.1319 -0.0118  0.1525
  118DOPC   D2A 1410  30.555   6.480  11.251  0.1778  0.0675 -0.0102
  118DOPC   C3A 1411  30.608   6.588  11.666 -0.3520 -0.0144 -0.1442
  118DOPC   C4A 1412  30.718   6.566  12.202 -0.1853  0.2459  0.0183
  118DOPC   C1B 1413  29.320   6.597  11.246 -0.2364  0.1373  0.2214
  118DOPC   D2B 1414  29.487   6.391  11.630 -0.1086 -0.0866  0.0797
  118DOPC   C3B 1415  29.451   6.291  12.114  0.0884 -0.0414  0.0311
  118DOPC   C4B 1416  29.243   6.100  12.537 -0.0602  0.2405  0.3139
  119DOPC   NC3 1417  29.003   3.086  10.434 -0.1625  0.2121  0.2151
  119DOPC   PO4 1418  29.054   2.780  10.684 -0.0789 -0.3954  0.1057
  119DOPC   GL1 1419  28.960   2.555  11.106  0.1068 -0.1007 -0.0159
  119DOPC   GL2 1420  28.788   2.843  11.083 -0.0015  0.3981 -0.0106
  119DOPC   C1A 1421  29.249   2.461  11.345  0.5286  0.1949 -0.0457
  119DOPC   D2A 1422  29.564   2.416  11.617 -0.0115  0.2722 -0.2022
  119DOPC   C3A 1423  29.569   2.679  12.071 -0.1591  0.2222  0.2652
  119DOPC   C4A 1424  29.421   2.916  12.459  0.1794 -0.5427 -0.2180
  119DOPC   C1B 1425  29.000   2.929  11.430  0.5055  0.2222 -0.2197
  119DOPC   D2B 1426  29.211   2.959  11.851  0.0394 -0.3543  0.1088
  119DOPC   C3B 1427  29.418   3.257  12.113  0.0592  0.1775  0.2227
  119DOPC   C4B 1428  29.681   3.335  12.495  0.2316 -0.2539  0.0789
  120DOPC   NC3 1429   4.512   5.793  10.510  0.1146  0.0912  0.0601
  120DOPC   PO4 1430   4.788   5.553  10.696  0.0878  0.0356 -0.0485
  120DOPC   GL1 1431   4.774   5.317  11.051  0.1867 -0.3515 -0.1902
  120DOPC   GL2 1432   4.610   5.522  11.140 -0.4063 -0.1354  0.2579
  120DOPC   C1A 1433   4.762   4.881  11.254  0.2675 -0.0625 -0.0726
  120DOPC   D2A 1434   4.550   4.640  11.668  0.2169  0.2404  0.0536
  120DOPC   C3A 1435   4.363   4.794  12.079  0.0489  0.2536 -0.0890
  120DOPC   C4A 1436   4.284   5.062  12.516  0.3271 -0.0105  0.2785
  120DOPC   C1B 1437   4.761   5.668  11.457  0.4373 -0.2081 -0.2037
  120DOPC   D2B 1438   4.569   5.639  11.904 -0.2296 -0.1619 -0.0952
  120DOPC   C3B 1439   4.690   5.293  12.193 -0.2210  0.1809  0.2520
  120DOPC   C4B 1440   4.948   5.068  12.511  0.1855  0.1987  0.0366
  121DOPC   NC3 1441  12.917   1.375  11.240 -0.1471 -0.1416  0.4721
  121DOPC   PO4 1442  12.894   0.982  11.108  0.2225  0.0370 -0.1374
  121DOPC   GL1 1443  13.060   0.592  11.295  0.0616 -0.1565  0.2797
  121DOPC   GL2 1444  12.807   0.584  11.483  0.0098 -0.1512  0.2301
  121DOPC   C1A 1445  13.465   0.294  11.476  0.1179 -0.1672 -0.2379
  121DOPC   D2A 1446  13.682   0.054  11.861  0.2006 -0.0010  0.1554
  121DOPC   C3A 1447  14.022   0.121  12.154  0.1264 -0.0214  0.1451
  121DOPC   C4A 1448  14.216   0.335  12.557 -0.1384  0.1241 -0.0841
  121DOPC   C1B 1449  12.833   0.675  11.891 -0.0986 -0.1749  0.0715
  121DOPC   D2B 1450  13.059   1.074  12.031  0.0781  0.1198  0.0714
  121DOPC   C3B 1451  12.967   1.338  12.407 -0.0822 -0.0922 -0.1874
  121DOPC   C4B 1452  12.798   1.565  12.761 -0.0975  0.0792  0.0861
  122DOPC   NC3 1453  10.962   5.345  10.774  0.0070 -0.1308 -0.0899
  122DOPC   PO4 1454  11.095   5.479  11.139 -0.1513 -0.0994  0.0206
  122DOPC   GL1 1455  10.951   5.407  11.520  0.1272 -0.1446  0.0691
  122DOPC   GL2 1456  10.626   5.429  11.551  0.1610 -0.0140 -0.3869
  122DOPC   C1A 1457  11.207   5.113  11.741 -0.4552  0.1286 -0.1899
  122DOPC   D2A 1458  11.087   4.800  12.128 -0.0232  0.0047  0.0020
  122DOPC   C3A 1459  10.872   5.049  12.420  0.1960  0.1109  0.1655
  122DOPC   C4A 1460  10.934   5.292  12.807  0.0547  0.0615 -0.0667
  122DOPC   C1B 1461  10.441   5.765  11.825  0.1636 -0.0562  0.0491
  122DOPC   D2B 1462  10.190   5.955  12.239 -0.0698 -0.4015  0.2443
  122DOPC   C3B 1463  10.085   5.969  12.706 -0.4271 -0.0828  0.0895
  122DOPC   C4B 1464  10.204   6.225  13.109 -0.2120  0.3278 -0.1238
  123DOPC   NC3 1465   1.101   7.220  10.331 -0.0759 -0.0863 -0.1591
  123DOPC   PO4 1466   1.378   7.025  10.555  0.2363 -0.2420  0.0666
  123DOPC   GL1 1467   1.235   6.733  10.819  0.1848 -0.1680 -0.1832
  123DOPC   GL2 1468   1.251   6.973  11.024  0.4340 -0.2009 -0.2298
  123DOPC   C1A 1469   1.083   6.599  11.260 -0.1931  0.2314 -0.1135
  123DOPC   D2A 1470   0.948   6.339  11.658 -0.1248 -0.1080  0.0021
  123DOPC   C3A 1471   0.552   6.258  11.966  0.0083  0.2553  0.0518
  123DOPC   C4A 1472   0.394   5.987  12.277 -0.1099 -0.0115  0.0410
  123DOPC   C1B 1473   1.371   7.011  11.469  0.1883 -0.1946 -0.1605
  123DOPC   D2B 1474   1.272   6.784  11.889  0.0399  0.0366 -0.1452
  123DOPC   C3B 1475   1.327   6.318  12.048  0.0116  0.1159 -0.0230
  123DOPC   C4B 1476   1.427   5.954  12.367 -0.0681  0.0496  0.1193
  124DOPC   NC3 1477   3.700   0.308  10.738  0.3045  0.2411 -0.1707
  124DOPC   PO4 1478   3.589  -0.039  10.554 -0.3049  0.0151 -0.0952
  124DOPC   GL1 1479   3.357  -0.140  10.979 -0.2436 -0.3161  0.3055
  124DOPC   GL2 1480   3.355   0.097  10.989 -0.1756 -0.3662  0.0115
  124DOPC   C1A 1481   3.447  -0.284  11.353  0.1523  0.4311  0.0763
  124DOPC   D2A 1482   3.566  -0.364  11.857 -0.0557  0.0394 -0.1289
  124DOPC   C3A 1483   3.623  -0.246  12.248 -0.4376  0.1913 -0.1088
  124DOPC   C4A 1484   3.833  -0.106  12.664  0.0902 -0.0937  0.1183
  124DOPC   C1B 1485   3.474   0.214  11.363 -0.1402  0.2555 -0.1719
  124DOPC   D2B 1486   3.668   0.173  11.796  0.1162  0.0378 -0.2608
  124DOPC   C3B 1487   3.499   0.328  12.146  0.0222  0.0758 -0.0377
  124DOPC   C4B 1488   3.259   0.541  12.521  0.0684 -0.2655  0.0974
  125DOPC   NC3 1489  28.533   4.648  10.264 -0.0504 -0.2534 -0.1307
  125DOPC   PO4 1490  28.867   4.452  10.276  0.1133  0.0930 -0.1339
  125DOPC   GL1 1491  29.081   4.380  10.705  0.3372 -0.1327 -0.1680
  125DOPC   GL2 1492  29.127   4.592  10.748  0.0132 -0.1433  0.1872
  125DOPC   C1A 1493  28.892   4.188  11.025 -0.0866 -0.3133 -0.0341
  125DOPC   D2A 1494  28.660   3.908  11.348  0.1693 -0.0179 -0.0952
  125DOPC   C3A 1495  28.786   3.740  11.794  0.0504 -0.0547  0.1754
  125DOPC   C4A 1496  28.853   3.374  12.097  0.2495 -0.1910 -0.0524
  125DOPC   C1B 1497  29.024   4.774  11.202 -0.0624 -0.0482  0.1217
  125DOPC   D2B 1498  28.895   4.920  11.651 -0.3244 -0.4784 -0.3739
  125DOPC   C3B 1499  28.912   5.207  12.046 -0.0389 -0.0769 -0.0193
  125DOPC   C4B 1500  28.580   5.447  12.371  0.0646  0.3153 -0.0505
  126DOPC   NC3 1501   4.939   1.872  10.364 -0.0713  0.0586  0.1316
  126DOPC   PO4 1502   4.957   1.489  10.416  0.2965  0.5262 -0.1144
  126DOPC   GL1 1503   5.213   1.448  10.725 -0.7636 -0.3532  0.0544
  126DOPC   GL2 1504   5.186   1.701  10.882  0.0212 -0.1463 -0.2289
  126DOPC   C1A 1505   5.480   1.285  11.077  0.0515 -0.1177 -0.0474
  126DOPC   D2A 1506   5.845   0.931  11.236  0.3249 -0.2647  0.1724
  126DOPC   C3A 1507   6.043   1.080  11.641 -0.1698 -0.2286 -0.1787
  126DOPC   C4A 1508   5.823   1.095  12.076  0.0079 -0.2877 -0.1550
  126DOPC   C1B 1509   5.236   1.771  11.334  0.0431 -0.0932 -0.1994
  126DOPC   D2B 1510   5.454   1.744  11.725 -0.0739  0.1271 -0.0264
  126DOPC   C3B 1511   5.486   1.807  12.174  0.1310 -0.1902  0.1548
  126DOPC   C4B 1512   5.509   1.846  12.683 -0.0965  0.1577 -0.0276
  127DOPC   NC3 1513  25.836   5.987  11.218 -0.2220  0.0856 -0.0164
  127DOPC   PO4 1514  25.533   5.789  11.116 -0.1361 -0.0511  0.0172
  127DOPC   GL1 1515  25.618   5.583  11.496  0.0154 -0.2449  0.2302
  127DOPC   GL2 1516  25.815   5.772  11.608 -0.1443 -0.1559 -0.3174
  127DOPC   C1A 1517  25.492   5.221  11.756 -0.1735 -0.1827 -0.4166
  127DOPC   D2A 1518  25.582   5.130  12.283  0.1815  0.1009  0.1561
  127DOPC   C3A 1519  25.887   4.967  12.603 -0.1385  0.2710 -0.0163
  127DOPC   C4A 1520  26.087   4.765  13.004 -0.4059  0.1366  0.3574
  127DOPC   C1B 1521  25.487   5.724  11.920  0.5395  0.1412  0.4946
  127DOPC   D2B 1522  25.209   5.593  12.357  0.1113  0.1756  0.3688
  127DOPC   C3B 1523  25.221   5.179  12.567 -0.0854  0.1415 -0.1186
  127DOPC   C4B 1524  25.238   4.996  13.044  0.2729  0.2885  0.0844
  128DOPC   NC3 1525  14.089   0.860  11.148 -0.0362 -0.3626  0.1859
  128DOPC   PO4 1526  13.780   1.086  11.156 -0.0488  0.2981  0.4830
  128DOPC   GL1 1527  13.554   1.141  11.442  0.0195 -0.1064 -0.2430
  128DOPC   GL2 1528  13.302   1.073  11.393 -0.3119 -0.2074 -0.0789
  128DOPC   C1A 1529  13.624   1.048  11.853 -0.1204 -0.1696  0.2114
  128DOPC   D2A 1530  13.517   1.022  12.306  0.2354 -0.2729  0.0799
  128DOPC   C3A 1531  13.354   0.745  12.655 -0.0600 -0.0281  0.0570
  128DOPC   C4A 1532  13.340   0.384  13.044 -0.2156 -0.0446 -0.0588
  128DOPC   C1B 1533  13.271   0.763  11.659 -0.0316 -0.0442  0.0565
  128DOPC   D2B 1534  13.150   0.312  11.916 -0.1834 -0.0475  0.0227
  128DOPC   C3B 1535  12.933   0.403  12.354  0.2614 -0.0777  0.0380
  128DOPC   C4B 1536  12.896   0.474  12.826  0.0439 -0.0190  0.1146
  129DOPC   NC3 1537  21.867   7.089  11.031  0.2546  0.2073 -0.0005
  129DOPC   PO4 1538  22.059   7.191  11.336 -0.0821  0.0971 -0.1757
  129DOPC   GL1 1539  22.019   7.289  11.679 -0.2488 -0.0993  0.0402
  129DOPC   GL2 1540  21.962   6.998  11.706 -0.7415 -0.1781 -0.0725
  129DOPC   C1A 1541  22.104   7.384  12.159 -0.1682 -0.0695  0.0464
  129DOPC   D2A 1542  22.124   7.607  12.571  0.0604 -0.1446 -0.1689
  129DOPC   C3A 1543  21.963   7.800  12.975 -0.0760 -0.1466  0.0441
  129DOPC   C4A 1544  21.963   7.933  13.445  0.0761 -0.1870  0.1761
  129DOPC   C1B 1545  21.787   6.770  12.021  0.0242 -0.1587  0.0351
  129DOPC   D2B 1546  21.586   6.721  12.395  0.1466 -0.1639 -0.1355
  129DOPC   C3B 1547  21.669   6.813  12.849  0.2259 -0.3094 -0.0194
  129DOPC   C4B 1548  21.911   6.603  13.154  0.2900 -0.1924 -0.0197
  130DOPC   NC3 1549  28.736   6.456  10.270 -0.3555 -0.0752  0.2231
  130DOPC   PO4 1550  29.003   6.285  10.524 -0.0199  0.0061  0.1602
  130DOPC   GL1 1551  29.030   6.304  10.932  0.2460 -0.3282 -0.2545
  130DOPC   GL2 1552  29.323   6.299  10.883  0.1666  0.1329 -0.1073
  130DOPC   C1A 1553  29.066   6.157  11.301 -0.3766  0.4447  0.0093
  130DOPC   D2A 1554  29.341   5.880  11.587 -0.1327  0.4682  0.0888
  130DOPC   C3A 1555  29.653   5.485  11.659  0.1979 -0.0899 -0.1112
  130DOPC   C4A 1556  29.864   5.083  11.496  0.0788 -0.0599  0.1551
  130DOPC   C1B 1557  29.621   6.130  11.235 -0.0755  0.0571  0.1313
  130DOPC   D2B 1558  29.829   6.007  11.670 -0.1766 -0.0426  0.0425
  130DOPC   C3B 1559  29.716   5.810  12.092 -0.0475 -0.0058  0.0222
  130DOPC   C4B 1560  29.731   5.565  12.585  0.1382 -0.3129 -0.2481
  131DOPC   NC3 1561   9.521   6.858  11.041 -0.2082 -0.1409  0.2512
  131DOPC   PO4 1562   9.625   6.468  11.131 -0.0964 -0.1039  0.2135
  131DOPC   GL1 1563   9.544   6.385  11.485  0.0010  0.1554 -0.1243
  131DOPC   GL2 1564   9.768   6.357  11.605  0.0973 -0.3278 -0.1711
  131DOPC   C1A 1565   9.243   6.430  11.837 -0.2301 -0.2111  0.0356
  131DOPC   D2A 1566   9.089   6.626  12.301  0.1829  0.0290  0.2492
  131DOPC   C3A 1567   8.999   6.346  12.664 -0.3247 -0.1837  0.0208
  131DOPC   C4A 1568   8.876   5.914  12.847  0.0363  0.1479 -0.2828
  131DOPC   C1B 1569   9.939   6.343  12.001 -0.0709 -0.2120  0.0545
  131DOPC   D2B 1570   9.992   6.463  12.480 -0.1421  0.1465 -0.1779
  131DOPC   C3B 1571  10.076   6.691  12.886  0.2047  0.0272 -0.0578
  131DOPC   C4B 1572  10.453   6.937  13.219 -0.4900 -0.0230  0.0275
  132DOPC   NC3 1573  28.553   7.523  10.802 -0.2210  0.2447 -0.0085
  132DOPC   PO4 1574  28.625   7.188  10.972  0.0712  0.2337  0.0774
  132DOPC   GL1 1575  28.576   7.135  11.320 -0.1631  0.1799 -0.0087
  132DOPC   GL2 1576  28.551   6.924  11.409 -0.0609 -0.3698  0.4441
  132DOPC   C1A 1577  28.692   7.329  11.713 -0.3040  0.0912 -0.0672
  132DOPC   D2A 1578  28.823   7.527  12.151 -0.0332  0.0737  0.0212
  132DOPC   C3A 1579  28.665   7.376  12.570  0.2287 -0.0471 -0.0900
  132DOPC   C4A 1580  28.720   7.289  13.071  0.0714 -0.1910  0.1169
  132DOPC   C1B 1581  28.644   6.867  11.850  0.3637  0.0626  0.0235
  132DOPC   D2B 1582  28.532   6.322  12.010  0.2336 -0.0949  0.4552
  132DOPC   C3B 1583  28.660   5.977  12.293  0.2889  0.0801 -0.1213
  132DOPC   C4B 1584  28.812   5.792  12.750 -0.0242  0.1113  0.0513
  133DOPC   NC3 1585  14.945   1.723  11.499 -0.1118  0.1061 -0.1203
  133DOPC   PO4 1586  14.666   1.458  11.393  0.2285  0.1090 -0.1633
  133DOPC   GL1 1587  14.483   1.697  11.735  0.1035  0.1023 -0.4195
  133DOPC   GL2 1588  14.690   1.628  11.922  0.1141 -0.3601  0.1363
  133DOPC   C1A 1589  14.262   2.015  11.886 -0.2951 -0.0451 -0.0195
  133DOPC   D2A 1590  13.942   2.310  12.130  0.1091  0.3324  0.3437
  133DOPC   C3A 1591  13.739   2.671  12.175 -0.0709 -0.0529  0.3832
  133DOPC   C4A 1592  13.380   2.936  12.284  0.0092 -0.0897  0.0506
  133DOPC   C1B 1593  15.148   1.590  12.017 -0.0212 -0.1072 -0.0516
  133DOPC   D2B 1594  15.622   1.678  11.777 -0.1162 -0.0700 -0.0459
  133DOPC   C3B 1595  15.933   1.942  12.013  0.1354 -0.3488 -0.1858
  133DOPC   C4B 1596  16.216   2.214  12.367 -0.5625 -0.0893  0.0454
  134DOPC   NC3 1597  12.224   6.015  11.577  0.2351 -0.1422 -0.0526
  134DOPC   PO4 1598  12.499   5.766  11.458 -0.0200 -0.0621 -0.0330
  134DOPC   GL1 1599  12.837   5.793  11.789 -0.0592 -0.3932  0.2325
  134DOPC   GL2 1600  12.617   6.034  11.801 -0.1422 -0.3174 -0.0273
  134DOPC   C1A 1601  13.058   6.001  12.098  0.2055  0.1852  0.0430
  134DOPC   D2A 1602  13.347   6.026  12.537  0.0168  0.2022  0.0743
  134DOPC   C3A 1603  13.441   6.111  12.998  0.2986  0.1943 -0.1226
  134DOPC   C4A 1604  13.330   5.678  13.284  0.2883  0.1979 -0.0988
  134DOPC   C1B 1605  12.338   6.069  12.143  0.0085  0.2591  0.1684
  134DOPC   D2B 1606  12.362   6.269  12.589 -0.0213 -0.0714 -0.0674
  134DOPC   C3B 1607  12.635   6.556  12.839 -0.0597  0.2684  0.2099
  134DOPC   C4B 1608  12.739   6.441  13.290  0.0214  0.0814 -0.0030
  135DOPC   NC3 1609  12.890   3.915  11.091  0.0881  0.0769  0.1351
  135DOPC   PO4 1610  13.049   3.828  11.419 -0.0394 -0.0173 -0.3375
  135DOPC   GL1 1611  13.084   3.637  11.777 -0.3773 -0.1131  0.1026
  135DOPC   GL2 1612  12.820   3.468  11.714 -0.2645 -0.0118  0.0058
  135DOPC   C1A 1613  13.301   3.876  12.104 -0.2661 -0.1177  0.0189
  135DOPC   D2A 1614  13.300   3.884  12.622  0.0522 -0.0645 -0.2127
  135DOPC   C3A 1615  13.096   4.156  12.979 -0.1314  0.1734  0.1043
  135DOPC   C4A 1616  13.017   4.401  13.390  0.2075  0.0819  0.0929
  135DOPC   C1B 1617  12.480   3.422  12.058 -0.0404  0.0872 -0.0376
  135DOPC   D2B 1618  12.282   3.447  12.546  0.0483 -0.0833 -0.0914
  135DOPC   C3B 1619  12.397   3.758  12.875 -0.0627  0.2359 -0.0464
  135DOPC   C4B 1620  12.609   3.857  13.279  0.1218  0.0686 -0.2638
  136DOPC   NC3 1621   1.708   6.115  10.281  0.0498  0.2701 -0.2925
  136DOPC   PO4 1622   1.973   6.368  10.413  0.2537  0.3917  0.3572
  136DOPC   GL1 1623   1.884   6.365  10.800 -0.1327 -0.0247 -0.4284
  136DOPC   GL2 1624   1.886   6.106  10.905 -0.0728  0.1821  0.2408
  136DOPC   C1A 1625   1.554   6.447  11.164 -0.1185  0.2314  0.2993
  136DOPC   D2A 1626   1.598   6.405  11.646 -0.2649  0.1106 -0.3432
  136DOPC   C3A 1627   1.845   6.331  12.042  0.0509 -0.0449  0.1406
  136DOPC   C4A 1628   2.145   6.218  12.376 -0.0830 -0.1574  0.0975
  136DOPC   C1B 1629   1.642   5.958  11.245  0.0872 -0.1451  0.3060
  136DOPC   D2B 1630   1.546   5.932  11.739 -0.1679 -0.3786 -0.0099
  136DOPC   C3B 1631   1.885   5.761  12.041  0.0826 -0.0015  0.0371
  136DOPC   C4B 1632   2.226   5.668  12.384  0.1865  0.1103  0.1025
  137DOPC   NC3 1633  27.023   5.492  11.131  0.0329  0.1216  0.3406
  137DOPC   PO4 1634  26.658   5.366  11.271  0.0724  0.0771  0.0019
  137DOPC   GL1 1635  26.676   5.679  11.527  0.0952 -0.2160 -0.0809
  137DOPC   GL2 1636  26.973   5.707  11.543  0.0858  0.0747  0.5094
  137DOPC   C1A 1637  26.480   5.587  11.937  0.1527 -0.0350 -0.0697
  137DOPC   D2A 1638  26.027   5.736  12.097 -0.2384  0.2476 -0.1777
  137DOPC   C3A 1639  25.827   5.550  12.444  0.0176  0.4451 -0.2968
  137DOPC   C4A 1640  25.680   5.409  12.834  0.2665  0.2090  0.1092
  137DOPC   C1B 1641  27.264   6.041  11.738 -0.0938 -0.0595 -0.0515
  137DOPC   D2B 1642  27.461   6.224  12.161 -0.0425 -0.0602 -0.0282
  137DOPC   C3B 1643  27.420   6.101  12.590 -0.1373 -0.2191 -0.0912
  137DOPC   C4B 1644  27.397   6.167  13.092  0.1176 -0.2341  0.0952
  138DOPC   NC3 1645  12.133   4.150  11.484  0.0952 -0.2419 -0.0193
  138DOPC   PO4 1646  11.937   3.942  11.239  0.0700  0.0704 -0.0098
  138DOPC   GL1 1647  11.687   3.695  11.533 -0.1827  0.2417 -0.2636
  138DOPC   GL2 1648  11.490   3.869  11.548  0.1290 -0.0026 -0.0270
  138DOPC   C1A 1649  11.576   3.534  11.918  0.1646  0.2136  0.2342
  138DOPC   D2A 1650  11.752   3.627  12.346 -0.3039 -0.2202 -0.0818
  138DOPC   C3A 1651  11.856   3.758  12.805 -0.2526  0.3579 -0.3829
  138DOPC   C4A 1652  12.039   4.047  13.107  0.0862  0.0086  0.2581
  138DOPC   C1B 1653  11.346   4.002  11.948 -0.0250  0.0076  0.3259
  138DOPC   D2B 1654  11.257   4.088  12.444  0.0134 -0.0397 -0.1890
  138DOPC   C3B 1655  10.965   4.445  12.435 -0.1993 -0.0850 -0.2426
  138DOPC   C4B 1656  10.529   4.636  12.249  0.1500 -0.0362 -0.2429
  139DOPC   NC3 1657  11.338   2.279  11.335  0.1240 -0.3379  0.1162
  139DOPC   PO4 1658  11.258   2.664  11.320 -0.2145 -0.0217 -0.2566
  139DOPC   GL1 1659  11.177   2.838  11.722  0.1800  0.3446  0.2163
  139DOPC   GL2 1660  11.314   2.528  11.753  0.1826  0.0486 -0.2884
  139DOPC   C1A 1661  11.038   2.845  12.191 -0.0936  0.1358  0.1206
  139DOPC   D2A 1662  11.068   2.807  12.682 -0.1192 -0.1597 -0.1630
  139DOPC   C3A 1663  11.057   2.992  13.026 -0.0626  0.1998 -0.1375
  139DOPC   C4A 1664  11.031   3.222  13.514 -0.2162  0.0451  0.2070
  139DOPC   C1B 1665  11.457   2.510  12.124  0.0879 -0.0659  0.0115
  139DOPC   D2B 1666  11.567   2.767  12.595  0.0775 -0.3052 -0.1924
  139DOPC   C3B 1667  11.619   2.860  13.021 -0.0793  0.0020 -0.0524
  139DOPC   C4B 1668  11.748   3.131  13.446  0.0284 -0.0360 -0.1810
  140DOPC   NC3 1669   6.053   2.645  10.660 -0.1279  0.1387  0.1656
  140DOPC   PO4 1670   6.388   2.756  10.832  0.1572  0.0240 -0.1626
  140DOPC   GL1 1671   6.454   2.925  11.220  0.3251 -0.1853 -0.1020
  140DOPC   GL2 1672   6.603   2.698  11.350  0.3515  0.2223  0.1575
  140DOPC   C1A 1673   6.600   3.216  11.474  0.2791 -0.1108 -0.0427
  140DOPC   D2A 1674   6.558   3.257  11.988 -0.0581 -0.1923  0.0196
  140DOPC   C3A 1675   6.444   3.367  12.403  0.0130  0.0281  0.0991
  140DOPC   C4A 1676   6.346   3.308  12.890 -0.3762 -0.0691 -0.2171
  140DOPC   C1B 1677   6.523   2.406  11.651 -0.1651  0.2440  0.0822
  140DOPC   D2B 1678   6.427   2.221  12.064  0.0479  0.0977 -0.0864
  140DOPC   C3B 1679   6.376   1.783  12.165 -0.1902 -0.3754  0.0220
  140DOPC   C4B 1680   6.590   1.540  12.560 -0.2363  0.1931  0.3184
  141DOPC   NC3 1681   5.505   0.637  10.159  0.0610  0.2621  0.3038
  141DOPC   PO4 1682   5.443   0.662  10.538  0.0130 -0.1683 -0.0165
  141DOPC   GL1 1683   5.439   0.735  10.969 -0.3765 -0.2138 -0.2362
  141DOPC   GL2 1684   5.597   0.560  11.033  0.0869  0.2642  0.3382
  141DOPC   C1A 1685   5.229   0.903  11.319 -0.0562  0.1097 -0.0615
  141DOPC   D2A 1686   5.089   0.756  11.758 -0.3692 -0.1723 -0.0322
  141DOPC   C3A 1687   5.373   0.853  12.151  0.0300  0.2164  0.0024
  141DOPC   C4A 1688   5.394   1.302  12.325 -0.1170 -0.1333 -0.1327
  141DOPC   C1B 1689   5.395   0.317  11.322  0.1627 -0.1098 -0.1004
  141DOPC   D2B 1690   5.379   0.049  11.728  0.0581  0.1354  0.0148
  141DOPC   C3B 1691   5.200  -0.132  12.155  0.2646  0.0035 -0.2177
  141DOPC   C4B 1692   4.905  -0.219  12.552 -0.1858  0.0944 -0.0503
  142DOPC   NC3 1693   5.157   3.126  10.802 -0.0369 -0.0635  0.3736
  142DOPC   PO4 1694   5.315   2.776  10.763  0.1078  0.2294  0.2168
  142DOPC   GL1 1695   5.257   2.597  11.156 -0.3443 -0.0494 -0.2258
  142DOPC   GL2 1696   5.224   2.908  11.183 -0.0944  0.0389 -0.3474
  142DOPC   C1A 1697   5.393   2.407  11.456 -0.5055 -0.2126  0.0460
  142DOPC   D2A 1698   5.438   2.275  11.886  0.2369 -0.1166 -0.0131
  142DOPC   C3A 1699   5.478   2.397  12.332 -0.0560  0.0986 -0.1534
  142DOPC   C4A 1700   5.492   2.323  12.845 -0.2950  0.2503 -0.1217
  142DOPC   C1B 1701   5.157   2.810  11.602  0.4046 -0.0749 -0.0300
  142DOPC   D2B 1702   4.934   2.806  12.074  0.2322  0.1298 -0.0206
  142DOPC   C3B 1703   5.093   2.716  12.526 -0.0615  0.3413  0.2362
  142DOPC   C4B 1704   5.043   2.477  12.996 -0.0871 -0.0381  0.0472
  143DOPC   NC3 1705  26.315   0.871  10.471  0.0847 -0.0235 -0.3115
  143DOPC   PO4 1706  26.334   1.173  10.727  0.0748  0.2219 -0.0630
  143DOPC   GL1 1707  26.285   1.077  11.171  0.1301  0.1506  0.3582
  143DOPC   GL2 1708  26.283   0.842  11.131 -0.0812  0.0898 -0.1744
  143DOPC   C1A 1709  26.529   1.197  11.594 -0.1255  0.0428  0.4415
  143DOPC   D2A 1710  26.730   1.396  12.004 -0.1734  0.0617  0.0403
  143DOPC   C3A 1711  26.746   0.992  12.300 -0.1457 -0.1122 -0.1699
  143DOPC   C4A 1712  26.822   0.684  12.660  0.0534  0.1976 -0.2146
  143DOPC   C1B 1713  26.427   0.659  11.521  0.0823 -0.2436 -0.3594
  143DOPC   D2B 1714  26.733   0.304  11.676  0.0563 -0.0932  0.2200
  143DOPC   C3B 1715  27.126   0.372  11.928  0.0291 -0.0976  0.1870
  143DOPC   C4B 1716  27.551   0.323  12.128 -0.1791  0.3126  0.2555
  144DOPC   NC3 1717  20.761   3.491  11.139  0.0898  0.1566 -0.2016
  144DOPC   PO4 1718  21.039   3.328  11.411 -0.1359 -0.1695  0.0418
  144DOPC   GL1 1719  21.148   3.405  11.735  0.1716 -0.0287 -0.0113
  144DOPC   GL2 1720  21.288   3.630  11.697  0.1827 -0.0036  0.0904
  144DOPC   C1A 1721  20.904   3.522  12.088 -0.1180 -0.0795 -0.0814
  144DOPC   D2A 1722  20.686   3.744  12.493 -0.0086 -0.3120  0.0513
  144DOPC   C3A 1723  20.788   3.786  12.916 -0.0553 -0.1570 -0.2074
  144DOPC   C4A 1724  20.801   3.857  13.423  0.0258  0.4591  0.0415
  144DOPC   C1B 1725  21.398   3.678  12.142  0.1141  0.2409  0.0780
  144DOPC   D2B 1726  21.687   3.613  12.526 -0.3593 -0.1097 -0.0514
  144DOPC   C3B 1727  21.939   3.353  12.770  0.1716  0.0243  0.0952
  144DOPC   C4B 1728  22.088   3.009  13.129  0.3568 -0.0046 -0.0581
  145DOPC   NC3 1729   0.145   4.022  10.126 -0.0295  0.2212 -0.2862
  145DOPC   PO4 1730   0.332   4.012  10.478  0.1038 -0.3328 -0.0816
  145DOPC   GL1 1731   0.453   4.250  10.820  0.1160 -0.0048 -0.1873
  145DOPC   GL2 1732   0.267   4.020  10.979 -0.1192 -0.0093  0.0094
  145DOPC   C1A 1733   0.897   4.234  11.060 -0.1066  0.2560  0.2099
  145DOPC   D2A 1734   1.179   4.085  11.391 -0.0808  0.1314  0.0458
  145DOPC   C3A 1735   1.239   4.346  11.700  0.1604  0.1501 -0.0023
  145DOPC   C4A 1736   1.318   4.437  12.151  0.0259  0.0777 -0.2881
  145DOPC   C1B 1737   0.384   4.031  11.319 -0.1844 -0.1485  0.2214
  145DOPC   D2B 1738   0.763   4.226  11.599 -0.3281 -0.0913 -0.0646
  145DOPC   C3B 1739   0.833   4.107  12.059 -0.0600 -0.1478 -0.2040
  145DOPC   C4B 1740   0.920   4.114  12.554 -0.2003 -0.1133  0.0104
  146DOPC   NC3 1741  18.126   2.826  11.363  0.1111 -0.1715  0.1216
  146DOPC   PO4 1742  17.955   3.173  11.363  0.2921 -0.0736 -0.1170
  146DOPC   GL1 1743  18.032   3.357  11.783 -0.4607  0.0859 -0.4479
  146DOPC   GL2 1744  18.161   3.122  11.745  0.2008  0.0614 -0.1056
  146DOPC   C1A 1745  17.708   3.303  12.138 -0.2149 -0.0573 -0.5145
  146DOPC   D2A 1746  17.520   3.558  12.546 -0.0136 -0.0451  0.0079
  146DOPC   C3A 1747  17.733   3.788  12.903  0.0373 -0.1607 -0.3125
  146DOPC   C4A 1748  17.959   3.798  13.340  0.1345 -0.0918  0.0200
  146DOPC   C1B 1749  18.197   2.983  12.118 -0.3975 -0.0294  0.0202
  146DOPC   D2B 1750  18.216   2.811  12.599 -0.0801 -0.1706  0.0099
  146DOPC   C3B 1751  18.586   3.132  12.777 -0.0342  0.4022 -0.0836
  146DOPC   C4B 1752  19.066   3.220  12.876  0.1184  0.0945  0.2325
  147DOPC   NC3 1753  24.336   6.892  10.827 -0.0769  0.0748 -0.1350
  147DOPC   PO4 1754  24.289   6.695  11.180  0.1278 -0.0867 -0.0358
  147DOPC   GL1 1755  24.573   6.666  11.430 -0.0210 -0.0452  0.1564
  147DOPC   GL2 1756  24.461   6.780  11.655  0.2910  0.0984  0.1668
  147DOPC   C1A 1757  24.824   6.488  11.752 -0.2666 -0.0811 -0.1891
  147DOPC   D2A 1758  24.569   6.319  12.182  0.1413 -0.1178  0.3270
  147DOPC   C3A 1759  24.713   6.080  12.630 -0.2000  0.1400 -0.1423
  147DOPC   C4A 1760  24.969   5.937  13.007 -0.0980  0.1092  0.0753
  147DOPC   C1B 1761  24.337   6.414  11.777  0.3718  0.1471 -0.0324
  147DOPC   D2B 1762  24.489   5.958  11.863  0.2693 -0.3946 -0.1843
  147DOPC   C3B 1763  24.791   5.801  12.152  0.0152  0.0127 -0.0690
  147DOPC   C4B 1764  24.804   5.531  12.602 -0.0020  0.1667  0.1042
  148DOPC   NC3 1765  27.918   6.193  10.603 -0.2435 -0.3977 -0.1015
  148DOPC   PO4 1766  28.100   6.339  10.920  0.1832 -0.2625  0.1610
  148DOPC   GL1 1767  28.432   6.341  11.197 -0.0107  0.0916  0.2382
  148DOPC   GL2 1768  28.522   6.056  11.168 -0.3249 -0.3354  0.1204
  148DOPC   C1A 1769  28.363   6.579  11.584  0.2153  0.0403  0.0732
  148DOPC   D2A 1770  28.103   6.640  12.043 -0.0729  0.1572 -0.2010
  148DOPC   C3A 1771  27.659   6.680  12.165  0.1648 -0.0699  0.0835
  148DOPC   C4A 1772  27.188   6.594  11.928  0.2295 -0.1125  0.1625
  148DOPC   C1B 1773  28.657   5.990  11.552  0.3284 -0.2902  0.2849
  148DOPC   D2B 1774  29.054   6.030  11.879  0.1558 -0.2618 -0.0214
  148DOPC   C3B 1775  29.102   5.688  12.252  0.1430  0.0918  0.1070
  148DOPC   C4B 1776  29.009   5.368  12.557  0.1279  0.2325 -0.1551
  149DOPC   NC3 1777   1.250   3.593  10.302  0.3583 -0.0878  0.2220
  149DOPC   PO4 1778   1.339   3.969  10.397 -0.0606  0.1628  0.1326
  149DOPC   GL1 1779   1.417   3.886  10.798  0.1921  0.1612  0.1092
  149DOPC   GL2 1780   1.362   4.078  10.969  0.1993  0.1399  0.1444
  149DOPC   C1A 1781   1.590   3.572  10.958  0.1397  0.1526 -0.0969
  149DOPC   D2A 1782   1.873   3.323  11.242  0.0006 -0.3236  0.0129
  149DOPC   C3A 1783   1.660   3.195  11.628 -0.2761 -0.3292 -0.0774
  149DOPC   C4A 1784   1.355   2.923  11.926  0.0166  0.3945  0.2981
  149DOPC   C1B 1785   1.385   4.489  11.055 -0.0373  0.0932 -0.0239
  149DOPC   D2B 1786   1.261   4.924  11.164  0.0672 -0.1556 -0.2262
  149DOPC   C3B 1787   1.052   5.091  11.533 -0.0873 -0.0388  0.2455
  149DOPC   C4B 1788   0.925   5.154  11.983 -0.1956 -0.3617 -0.0979
  150DOPC   NC3 1789  25.703   4.794  11.509  0.3595 -0.0478  0.0229
  150DOPC   PO4 1790  26.043   4.695  11.380 -0.0861  0.0770 -0.1704
  150DOPC   GL1 1791  26.323   4.703  11.692 -0.0608  0.1642 -0.1698
  150DOPC   GL2 1792  26.416   4.432  11.651 -0.2621 -0.1100  0.0631
  150DOPC   C1A 1793  26.401   4.781  12.085 -0.0245  0.0806 -0.0709
  150DOPC   D2A 1794  26.667   4.604  12.507  0.0017  0.1003 -0.0422
  150DOPC   C3A 1795  26.577   4.193  12.694  0.0615  0.2772  0.0321
  150DOPC   C4A 1796  26.545   3.737  12.482  0.2339  0.2046  0.1206
  150DOPC   C1B 1797  26.739   4.499  11.897 -0.1627  0.0537 -0.2737
  150DOPC   D2B 1798  27.091   4.615  12.257 -0.0847  0.3096  0.0678
  150DOPC   C3B 1799  27.552   4.477  12.199  0.2218 -0.3912 -0.1765
  150DOPC   C4B 1800  27.845   4.637  11.772 -0.2102 -0.1451  0.1646
  151DOPC   NC3 1801  23.888   4.609  10.874  0.0269 -0.0932  0.0799
  151DOPC   PO4 1802  23.951   4.863  11.154 -0.1565 -0.2147  0.0040
  151DOPC   GL1 1803  23.889   4.889  11.583  0.1082 -0.0696 -0.3916
  151DOPC   GL2 1804  23.564   4.880  11.617  0.2832 -0.0424  0.0724
  151DOPC   C1A 1805  23.989   4.742  11.989  0.1665 -0.0709  0.2118
  151DOPC   D2A 1806  23.996   4.545  12.461 -0.0973 -0.2842 -0.2234
  151DOPC   C3A 1807  24.173   4.818  12.817 -0.1535 -0.0420 -0.2758
  151DOPC   C4A 1808  24.239   5.036  13.285  0.0255  0.1230  0.0703
  151DOPC   C1B 1809  23.555   4.979  12.051  0.1821  0.1137 -0.0905
  151DOPC   D2B 1810  23.467   5.234  12.379  0.0522  0.1991 -0.0883
  151DOPC   C3B 1811  23.588   4.933  12.663  0.0454  0.0807 -0.0927
  151DOPC   C4B 1812  23.691   4.505  12.885 -0.2628  0.0624 -0.0088
  152DOPC   NC3 1813  17.732   1.898  11.391  0.0878 -0.2882 -0.1983
  152DOPC   PO4 1814  17.552   1.689  11.682 -0.1844  0.0336  0.0542
  152DOPC   GL1 1815  17.742   1.644  12.038  0.1518  0.0336  0.1119
  152DOPC   GL2 1816  17.796   1.373  11.962  0.0101 -0.0162  0.0939
  152DOPC   C1A 1817  17.501   1.402  12.335  0.0188  0.2113 -0.0252
  152DOPC   D2A 1818  17.177   1.109  12.573 -0.1442  0.2795  0.1833
  152DOPC   C3A 1819  17.205   0.853  12.949 -0.1787 -0.2262 -0.0307
  152DOPC   C4A 1820  17.202   0.558  13.362  0.1640 -0.0932 -0.1200
  152DOPC   C1B 1821  18.118   1.039  12.026 -0.2257  0.0926  0.1083
  152DOPC   D2B 1822  18.243   0.564  11.917 -0.0480 -0.1489 -0.0899
  152DOPC   C3B 1823  17.853   0.317  11.973  0.1355  0.3358  0.2935
  152DOPC   C4B 1824  17.459   0.162  12.250 -0.0472  0.1788  0.1966
  153DOPC   NC3 1825   7.730   2.085  11.121 -0.1384 -0.2643  0.0349
  153DOPC   PO4 1826   7.575   1.730  11.015  0.3333 -0.0695 -0.0869
  153DOPC   GL1 1827   7.316   1.832  11.348  0.2520 -0.3470 -0.1447
  153DOPC   GL2 1828   7.176   2.034  11.140  0.1773  0.3382  0.1035
  153DOPC   C1A 1829   7.578   1.726  11.767 -0.2585 -0.2016  0.1926
  153DOPC   D2A 1830   7.629   1.502  12.224  0.1440  0.0667 -0.0079
  153DOPC   C3A 1831   7.869   1.340  12.582  0.3639 -0.3266  0.0315
  153DOPC   C4A 1832   8.359   1.322  12.772  0.2001 -0.2098 -0.2813
  153DOPC   C1B 1833   6.925   2.191  11.484 -0.0961  0.2073  0.0061
  153DOPC   D2B 1834   6.934   2.525  11.886  0.1279 -0.0890  0.1999
  153DOPC   C3B 1835   7.034   2.492  12.351 -0.0113  0.1457 -0.2070
  153DOPC   C4B 1836   7.146   2.769  12.806  0.0456 -0.0549  0.1256
  154DOPC   NC3 1837  24.131   2.318  11.488  0.0725 -0.0213 -0.1060
  154DOPC   PO4 1838  24.446   2.148  11.391  0.0932  0.4921  0.1716
  154DOPC   GL1 1839  24.694   1.893  11.699  0.1554 -0.0647 -0.0712
  154DOPC   GL2 1840  24.391   2.016  11.779  0.0974  0.1404 -0.3124
  154DOPC   C1A 1841  24.905   1.942  12.091 -0.0117 -0.1894 -0.2050
  154DOPC   D2A 1842  25.219   2.067  12.473 -0.0502 -0.0986 -0.0542
  154DOPC   C3A 1843  25.546   2.329  12.580 -0.0041 -0.0217 -0.0063
  154DOPC   C4A 1844  25.849   2.617  12.881 -0.1252  0.2098  0.0980
  154DOPC   C1B 1845  24.379   2.070  12.164  0.2443  0.0990  0.2998
  154DOPC   D2B 1846  24.372   2.051  12.622 -0.0334  0.0709 -0.1762
  154DOPC   C3B 1847  24.270   2.275  12.995 -0.3289 -0.3825 -0.0179
  154DOPC   C4B 1848  23.958   2.486  13.277 -0.0150 -0.1936  0.0536
  155DOPC   NC3 1849  13.703   1.566  11.174  0.1390 -0.1026  0.0451
  155DOPC   PO4 1850  13.351   1.678  11.390 -0.1733 -0.1467  0.0320
  155DOPC   GL1 1851  13.451   1.463  11.727  0.4255  0.0505 -0.0454
  155DOPC   GL2 1852  13.512   1.774  11.837 -0.1520  0.1728 -0.3750
  155DOPC   C1A 1853  13.473   1.459  12.127  0.1431 -0.0529 -0.2526
  155DOPC   D2A 1854  13.476   1.424  12.652  0.2447  0.2583  0.0521
  155DOPC   C3A 1855  13.224   1.175  12.947  0.0808  0.0807  0.0785
  155DOPC   C4A 1856  13.146   0.817  13.203 -0.0876  0.1442  0.0240
  155DOPC   C1B 1857  13.577   1.955  12.274 -0.1115  0.1177  0.4102
  155DOPC   D2B 1858  13.717   2.337  12.580  0.1627 -0.0776  0.0815
  155DOPC   C3B 1859  13.861   2.746  12.726  0.2009  0.0092 -0.0635
  155DOPC   C4B 1860  14.132   3.144  12.892 -0.0737 -0.0399 -0.1760
  156DOPC   NC3 1861   3.615   6.522  10.560 -0.1647  0.0463 -0.0044
  156DOPC   PO4 1862   3.517   6.165  10.512  0.1681  0.0854  0.1388
  156DOPC   GL1 1863   3.687   5.989  10.896  0.0821  0.0921  0.4246
  156DOPC   GL2 1864   3.851   6.195  10.956 -0.0796 -0.1242  0.1269
  156DOPC   C1A 1865   3.386   6.012  11.209  0.0101  0.0191 -0.4069
  156DOPC   D2A 1866   3.130   5.957  11.613  0.0738 -0.0071  0.0936
  156DOPC   C3A 1867   2.671   5.804  11.571  0.0727  0.2405 -0.0206
  156DOPC   C4A 1868   2.390   5.642  11.928  0.0752 -0.0450 -0.2539
  156DOPC   C1B 1869   3.574   6.488  11.122 -0.0463 -0.1465  0.1243
  156DOPC   D2B 1870   3.550   6.500  11.581  0.0481  0.2113 -0.1749
  156DOPC   C3B 1871   3.524   6.685  12.054  0.0928  0.0274 -0.3064
  156DOPC   C4B 1872   3.716   6.495  12.478  0.0798 -0.0065 -0.0830
  157DOPC   NC3 1873  16.626   6.712  11.540 -0.2022  0.0290 -0.2629
  157DOPC   PO4 1874  16.451   7.009  11.343 -0.0036 -0.4311 -0.2854
  157DOPC   GL1 1875  16.403   7.110  11.724  0.0247  0.0146 -0.0426
  157DOPC   GL2 1876  16.655   7.002  11.886  0.0408  0.0701  0.0803
  157DOPC   C1A 1877  16.242   6.958  12.073 -0.1045 -0.1437 -0.3337
  157DOPC   D2A 1878  16.227   6.547  12.427 -0.1958 -0.0665  0.0550
  157DOPC   C3A 1879  16.056   6.434  12.799 -0.1125 -0.0498 -0.3276
  157DOPC   C4A 1880  15.944   6.380  13.279 -0.0425  0.0657  0.1416
  157DOPC   C1B 1881  16.659   7.090  12.320  0.2311 -0.0279 -0.1930
  157DOPC   D2B 1882  16.811   7.179  12.835 -0.1160 -0.1113  0.1855
  157DOPC   C3B 1883  17.084   7.256  13.240 -0.0028  0.0709  0.0336
  157DOPC   C4B 1884  17.300   7.369  13.619 -0.2541  0.1273  0.2745
  158DOPC   NC3 1885  29.110   7.836  10.681 -0.1835 -0.2072 -0.1312
  158DOPC   PO4 1886  28.974   7.621  10.976 -0.2099  0.2292 -0.0111
  158DOPC   GL1 1887  28.555   7.572  11.265 -0.4367 -0.0869  0.0551
  158DOPC   GL2 1888  28.730   7.701  11.482 -0.2602 -0.0850  0.2451
  158DOPC   C1A 1889  28.207   7.455  11.510  0.1371 -0.2074 -0.1047
  158DOPC   D2A 1890  28.219   7.383  11.995 -0.1272  0.0655 -0.4570
  158DOPC   C3A 1891  27.995   7.220  12.381 -0.0018 -0.1464 -0.0334
  158DOPC   C4A 1892  27.640   7.399  12.699  0.1422  0.0085 -0.0935
  158DOPC   C1B 1893  28.377   7.789  11.808 -0.4422  0.1123  0.3355
  158DOPC   D2B 1894  28.316   7.811  12.309 -0.0210 -0.1064 -0.1100
  158DOPC   C3B 1895  28.463   8.104  12.587  0.0924  0.2585 -0.0012
  158DOPC   C4B 1896  28.735   8.479  12.627  0.0656  0.3838 -0.1062
  159DOPC   NC3 1897   6.133   5.546  11.075  0.0537 -0.3755  0.0270
  159DOPC   PO4 1898   6.337   5.209  11.153  0.2412  0.0282 -0.0913
  159DOPC   GL1 1899   6.176   5.123  11.589 -0.0203  0.0288 -0.4651
  159DOPC   GL2 1900   5.901   5.268  11.499  0.1448  0.3016  0.1334
  159DOPC   C1A 1901   6.417   5.132  11.942 -0.2230  0.1788 -0.0025
  159DOPC   D2A 1902   6.516   5.179  12.454 -0.0790  0.3501 -0.1318
  159DOPC   C3A 1903   6.902   5.122  12.669  0.1092  0.3927 -0.2017
  159DOPC   C4A 1904   7.350   4.957  12.485 -0.1087  0.2669  0.1570
  159DOPC   C1B 1905   5.641   5.359  11.871  0.0321 -0.0993  0.0570
  159DOPC   D2B 1906   5.434   5.545  12.144 -0.1772 -0.0181  0.2067
  159DOPC   C3B 1907   5.322   5.394  12.602 -0.0238  0.1144 -0.1417
  159DOPC   C4B 1908   5.302   5.275  13.058 -0.0852 -0.3568 -0.3455
  160DOPC   NC3 1909  27.404   4.801  11.301 -0.1434  0.5715  0.0681
  160DOPC   PO4 1910  27.115   5.023  11.117  0.1011 -0.0939 -0.2773
  160DOPC   GL1 1911  27.050   5.125  11.575  0.0130  0.2877  0.1868
  160DOPC   GL2 1912  27.213   5.292  11.518  0.2642  0.0076 -0.5022
  160DOPC   C1A 1913  27.272   5.031  11.973 -0.0066 -0.1027  0.0087
  160DOPC   D2A 1914  27.514   5.373  12.339  0.2341 -0.1235 -0.0131
  160DOPC   C3A 1915  27.753   5.818  12.364 -0.3952  0.0966  0.1202
  160DOPC   C4A 1916  28.122   6.147  12.370  0.0433 -0.1148 -0.1311
  160DOPC   C1B 1917  27.041   5.472  11.909 -0.0688 -0.2841 -0.0450
  160DOPC   D2B 1918  26.817   5.603  12.286  0.2808  0.2066 -0.0153
  160DOPC   C3B 1919  26.830   5.873  12.658 -0.1822  0.2118  0.2401
  160DOPC   C4B 1920  26.957   6.327  12.861  0.0950 -0.2411  0.2757
  161DOPC   NC3 1921   6.185   3.263  11.106 -0.0968 -0.0745  0.1107
  161DOPC   PO4 1922   6.256   3.659  11.091  0.0681 -0.0410  0.0505
  161DOPC   GL1 1923   6.450   4.081  11.315  0.1265 -0.3928 -0.1193
  161DOPC   GL2 1924   6.175   4.154  11.316  0.2995  0.0577 -0.4989
  161DOPC   C1A 1925   6.315   4.195  11.747 -0.3526 -0.1276 -0.1770
  161DOPC   D2A 1926   6.509   4.325  12.216  0.1719  0.3231 -0.2892
  161DOPC   C3A 1927   6.247   4.390  12.621  0.0168  0.0106 -0.3260
  161DOPC   C4A 1928   6.020   4.350  13.022  0.0273 -0.2210 -0.3385
  161DOPC   C1B 1929   5.952   3.866  11.651 -0.0569  0.0003 -0.2562
  161DOPC   D2B 1930   5.592   3.573  11.913 -0.0350  0.2480  0.0142
  161DOPC   C3B 1931   5.511   3.597  12.360 -0.2122 -0.3456 -0.0807
  161DOPC   C4B 1932   5.525   3.512  12.815 -0.1391 -0.1386  0.2013
  162DOPC   NC3 1933   1.254   2.100  10.113  0.0543 -0.3377  0.0977
  162DOPC   PO4 1934   0.932   1.954  10.283 -0.1774 -0.2699  0.4102
  162DOPC   GL1 1935   0.813   1.970  10.569  0.0307  0.4270  0.1469
  162DOPC   GL2 1936   1.032   1.795  10.704  0.2340  0.1439 -0.0500
  162DOPC   C1A 1937   0.752   2.209  10.943 -0.2358  0.0138 -0.2883
  162DOPC   D2A 1938   0.839   2.509  11.393 -0.2227  0.1778  0.0660
  162DOPC   C3A 1939   1.018   2.497  11.831 -0.1256 -0.0617  0.0195
  162DOPC   C4A 1940   1.285   2.505  12.261  0.1817  0.0671  0.0638
  162DOPC   C1B 1941   1.073   1.888  11.075  0.2568  0.1242 -0.4207
  162DOPC   D2B 1942   0.726   1.945  11.389  0.2934  0.0493 -0.2890
  162DOPC   C3B 1943   0.796   2.074  11.881  0.0777 -0.1365 -0.1102
  162DOPC   C4B 1944   0.753   2.290  12.297  0.2312  0.0580 -0.0107
  163DOPC   NC3 1945  30.560   3.371  10.269  0.2024  0.2349 -0.0302
  163DOPC   PO4 1946  30.876   3.569  10.368 -0.2044  0.0742 -0.2143
  163DOPC   GL1 1947  30.869   3.585  10.802  0.0335 -0.0642  0.1654
  163DOPC   GL2 1948  31.095   3.437  10.740  0.0267 -0.1904  0.1767
  163DOPC   C1A 1949  30.987   3.629  11.240 -0.0411 -0.0452 -0.0003
  163DOPC   D2A 1950  31.005   3.605  11.658  0.0042  0.1905  0.2220
  163DOPC   C3A 1951  30.647   3.374  11.853 -0.1016 -0.2768 -0.1172
  163DOPC   C4A 1952  30.272   3.482  12.146 -0.2391  0.1264 -0.1032
  163DOPC   C1B 1953  31.420   3.490  11.012 -0.0968 -0.0784  0.1512
  163DOPC   D2B 1954  31.467   3.732  11.448 -0.3738 -0.0063  0.0715
  163DOPC   C3B 1955  31.511   3.592  11.893 -0.3501  0.1109  0.2188
  163DOPC   C4B 1956  31.672   3.156  11.998 -0.2481 -0.0165 -0.0825
  164DOPC   NC3 1957  10.704   2.018  11.582 -0.0008 -0.0797 -0.1039
  164DOPC   PO4 1958  10.427   2.299  11.436 -0.2453  0.3284 -0.0022
  164DOPC   GL1 1959  10.321   2.291  11.824 -0.1313  0.1273  0.1024
  164DOPC   GL2 1960  10.069   2.232  11.819 -0.1813  0.1492 -0.2874
  164DOPC   C1A 1961  10.397   2.251  12.236  0.0080  0.0281 -0.2340
  164DOPC   D2A 1962  10.281   2.185  12.671 -0.1270  0.0394  0.0844
  164DOPC   C3A 1963  10.127   1.800  12.874 -0.0099 -0.2492  0.3294
  164DOPC   C4A 1964   9.972   1.344  13.112 -0.0402  0.2380 -0.0664
  164DOPC   C1B 1965   9.700   2.258  12.068  0.0013  0.3807  0.0031
  164DOPC   D2B 1966   9.365   2.263  12.424 -0.2954 -0.2688 -0.2810
  164DOPC   C3B 1967   8.983   2.519  12.514 -0.0142 -0.0128  0.0688
  164DOPC   C4B 1968   8.654   2.748  12.804  0.0355  0.1040  0.0726
  165DOPC   NC3 1969  14.917   4.357  10.887 -0.1316  0.0041  0.0713
  165DOPC   PO4 1970  14.791   3.991  10.849 -0.0517 -0.2375 -0.0378
  165DOPC   GL1 1971  14.770   4.011  11.302  0.1660  0.0276 -0.2912
  165DOPC   GL2 1972  14.945   4.197  11.336  0.2044  0.0195  0.0690
  165DOPC   C1A 1973  14.468   3.760  11.553  0.3710 -0.2337 -0.0600
  165DOPC   D2A 1974  14.078   3.542  11.785  0.1995  0.0516 -0.2335
  165DOPC   C3A 1975  13.967   3.527  12.289  0.0834  0.0019  0.2126
  165DOPC   C4A 1976  13.772   3.171  12.510  0.0811 -0.0799 -0.1476
  165DOPC   C1B 1977  15.003   4.329  11.737 -0.1652  0.0745 -0.0038
  165DOPC   D2B 1978  15.161   4.435  12.227 -0.1338  0.1375  0.1849
  165DOPC   C3B 1979  15.118   4.646  12.674 -0.0311  0.2460  0.1673
  165DOPC   C4B 1980  15.063   4.927  13.112 -0.0511 -0.1127  0.1194
  166DOPC   NC3 1981   4.978   7.582  10.416  0.1916  0.3121 -0.1790
  166DOPC   PO4 1982   4.777   7.271  10.522  0.1990  0.0723  0.1271
  166DOPC   GL1 1983   4.600   7.253  10.972 -0.0813  0.1871  0.0754
  166DOPC   GL2 1984   4.746   7.523  10.951 -0.2632  0.2285 -0.0588
  166DOPC   C1A 1985   4.343   7.019  11.257  0.0209  0.0176  0.2583
  166DOPC   D2A 1986   4.249   6.938  11.704 -0.1547  0.2656 -0.1228
  166DOPC   C3A 1987   4.531   6.985  12.116  0.1296 -0.0444  0.0420
  166DOPC   C4A 1988   4.845   7.086  12.500  0.0310  0.1499  0.3411
  166DOPC   C1B 1989   4.580   7.441  11.358  0.2537 -0.1320 -0.1418
  166DOPC   D2B 1990   4.352   7.389  11.814 -0.4186  0.1378 -0.3245
  166DOPC   C3B 1991   4.006   7.259  12.112 -0.0221  0.2797 -0.1134
  166DOPC   C4B 1992   3.682   7.176  12.396  0.1405 -0.2060 -0.0220
  167DOPC   NC3 1993  22.619   4.843  10.830 -0.3512  0.1283  0.3265
  167DOPC   PO4 1994  22.394   4.878  11.138  0.2813 -0.1666 -0.2047
  167DOPC   GL1 1995  22.529   4.860  11.539  0.1434  0.0156  0.0866
  167DOPC   GL2 1996  22.415   5.172  11.602 -0.3042 -0.1157 -0.2282
  167DOPC   C1A 1997  22.622   4.900  11.916  0.2502 -0.0214  0.1269
  167DOPC   D2A 1998  22.506   5.081  12.346  0.0771  0.0563 -0.0112
  167DOPC   C3A 1999  22.219   4.934  12.725  0.0433  0.0560  0.1996
  167DOPC   C4A 2000  21.833   4.978  13.048  0.0346 -0.0590  0.2191
  167DOPC   C1B 2001  22.252   5.232  11.942  0.1125  0.1829  0.1072
  167DOPC   D2B 2002  22.013   5.271  12.384 -0.0194 -0.0354 -0.1483
  167DOPC   C3B 2003  21.620   5.289  12.678 -0.0836 -0.1403 -0.1671
  167DOPC   C4B 2004  21.298   4.963  12.928  0.0123 -0.1065  0.2497
  168DOPC   NC3 2005  23.668   0.479  11.031  0.2500  0.2502 -0.0012
  168DOPC   PO4 2006  23.587   0.144  11.288 -0.2241 -0.0848 -0.1927
  168DOPC   GL1 2007  23.521  -0.069  11.589 -0.1627 -0.5939  0.0814
  168DOPC   GL2 2008  23.413   0.216  11.665 -0.0395 -0.0510 -0.0366
  168DOPC   C1A 2009  23.839  -0.055  11.891 -0.1363 -0.2002  0.2141
  168DOPC   D2A 2010  23.977   0.092  12.340 -0.1341  0.4287 -0.0981
  168DOPC   C3A 2011  23.720  -0.091  12.733 -0.2280 -0.0096 -0.1211
  168DOPC   C4A 2012  23.260   0.058  12.792 -0.0215  0.1382  0.2193
  168DOPC   C1B 2013  23.539   0.353  12.107 -0.0594 -0.0780  0.2396
  168DOPC   D2B 2014  23.605   0.524  12.527  0.1183  0.1985 -0.3466
  168DOPC   C3B 2015  23.604   0.383  12.956 -0.2312 -0.4338 -0.1471
  168DOPC   C4B 2016  23.365   0.128  13.307 -0.0028  0.1966  0.3803
  169DOPC   NC3 2017   3.134   7.617  10.529  0.0345 -0.1666 -0.0295
  169DOPC   PO4 2018   2.770   7.462  10.582  0.1969 -0.1888 -0.2552
  169DOPC   GL1 2019   2.528   7.658  11.012 -0.0120  0.1683 -0.3184
  169DOPC   GL2 2020   2.833   7.731  11.118 -0.0561  0.2045  0.0240
  169DOPC   C1A 2021   2.285   7.581  11.376 -0.1226  0.1986 -0.0752
  169DOPC   D2A 2022   2.131   7.676  11.847 -0.1862  0.4078 -0.1951
  169DOPC   C3A 2023   1.889   7.443  12.106 -0.0151  0.0230  0.0379
  169DOPC   C4A 2024   1.657   7.357  12.589  0.0492  0.2940 -0.0255
  169DOPC   C1B 2025   2.960   7.819  11.463  0.0419 -0.0482  0.0081
  169DOPC   D2B 2026   3.206   7.850  11.879  0.3685 -0.0253  0.2221
  169DOPC   C3B 2027   2.947   8.023  12.241  0.1483 -0.2187 -0.2299
  169DOPC   C4B 2028   2.534   8.055  12.548  0.2523  0.2347  0.1559
  170DOPC   NC3 2029  12.555   3.408  11.377  0.1257  0.1830  0.1771
  170DOPC   PO4 2030  12.528   3.784  11.383  0.1427 -0.1967  0.2009
  170DOPC   GL1 2031  12.494   3.950  11.762  0.1947  0.3248  0.0310
  170DOPC   GL2 2032  12.765   3.927  11.849  0.0220  0.0648 -0.2677
  170DOPC   C1A 2033  12.189   4.246  12.026  0.0073 -0.1568  0.1037
  170DOPC   D2A 2034  11.951   4.638  12.124 -0.0926  0.0997 -0.0161
  170DOPC   C3A 2035  12.416   4.649  12.268 -0.0656 -0.1315  0.0038
  170DOPC   C4A 2036  12.860   4.643  12.432  0.0800  0.2953 -0.1525
  170DOPC   C1B 2037  12.879   3.722  12.256 -0.0945 -0.0043 -0.2503
  170DOPC   D2B 2038  12.846   3.776  12.741  0.1853  0.0527  0.3807
  170DOPC   C3B 2039  13.167   3.658  13.067  0.1610  0.1163  0.0131
  170DOPC   C4B 2040  13.654   3.592  12.936 -0.0241 -0.3968 -0.0181
  171DOPC   NC3 2041   2.352   6.349  10.743 -0.1438 -0.0461  0.1829
  171DOPC   PO4 2042   2.185   6.706  10.789  0.0787 -0.1425 -0.2143
  171DOPC   GL1 2043   2.401   6.803  11.198 -0.0320  0.0968  0.0391
  171DOPC   GL2 2044   2.564   6.581  11.136 -0.0686 -0.5874  0.1107
  171DOPC   C1A 2045   2.333   6.684  11.721 -0.0555 -0.1724 -0.1367
  171DOPC   D2A 2046   2.361   6.640  12.232 -0.0857  0.0412  0.0099
  171DOPC   C3A 2047   2.389   7.030  12.547  0.0401 -0.3920 -0.1479
  171DOPC   C4A 2048   2.572   7.358  12.924  0.1814 -0.1480  0.0519
  171DOPC   C1B 2049   2.584   6.348  11.431  0.0871 -0.0493 -0.0642
  171DOPC   D2B 2050   2.674   6.276  11.909  0.5869 -0.1015 -0.1398
  171DOPC   C3B 2051   2.266   6.081  11.749 -0.1903 -0.0851  0.1129
  171DOPC   C4B 2052   2.007   5.722  11.537  0.1261  0.1311  0.0271
  172DOPC   NC3 2053  30.112   6.060  10.433  0.1186 -0.1190 -0.1155
  172DOPC   PO4 2054  30.116   5.673  10.418  0.1472 -0.1947  0.1222
  172DOPC   GL1 2055  30.245   5.452  10.774 -0.1326  0.0268 -0.0694
  172DOPC   GL2 2056  30.111   5.721  10.869  0.0325  0.0653 -0.1866
  172DOPC   C1A 2057  30.273   5.170  11.107  0.1407 -0.0009  0.0491
  172DOPC   D2A 2058  30.457   4.984  11.524 -0.0079 -0.4944 -0.1306
  172DOPC   C3A 2059  30.238   5.170  11.866  0.0115  0.0516 -0.0210
  172DOPC   C4A 2060  30.075   5.375  12.222 -0.1245  0.0639 -0.0167
  172DOPC   C1B 2061  30.143   6.113  11.128  0.0335  0.2207 -0.1499
  172DOPC   D2B 2062  30.138   6.450  11.483 -0.1014  0.0046  0.1577
  172DOPC   C3B 2063  29.981   6.621  11.878 -0.0796  0.0980  0.1568
  172DOPC   C4B 2064  29.555   6.804  12.112  0.2026 -0.0761 -0.2721
  173DOPC   NC3 2065  14.771   3.533  11.166  0.0068  0.0971 -0.1591
  173DOPC   PO4 2066  14.695   3.179  11.350  0.1392 -0.1106  0.0401
  173DOPC   GL1 2067  14.566   3.322  11.757 -0.3954 -0.0517 -0.1340
  173DOPC   GL2 2068  14.673   3.003  11.827 -0.1190 -0.1035 -0.1578
  173DOPC   C1A 2069  14.426   3.605  12.085  0.0576  0.0457  0.1416
  173DOPC   D2A 2070  14.390   3.994  12.414 -0.2097  0.0043 -0.2510
  173DOPC   C3A 2071  14.216   4.326  12.719  0.0763 -0.2052  0.0572
  173DOPC   C4A 2072  13.948   4.447  13.105  0.0399  0.0631 -0.2477
  173DOPC   C1B 2073  14.534   2.887  12.217  0.0559 -0.1774 -0.2674
  173DOPC   D2B 2074  14.509   2.842  12.793  0.1579 -0.1194  0.1004
  173DOPC   C3B 2075  14.260   2.452  12.872  0.0015 -0.0419 -0.0423
  173DOPC   C4B 2076  14.418   2.025  12.988 -0.1743  0.0160 -0.1209
  174DOPC   NC3 2077  16.780   6.270  11.229  0.1382 -0.1518 -0.1035
  174DOPC   PO4 2078  17.165   6.193  11.237 -0.0692  0.3717  0.1264
  174DOPC   GL1 2079  17.455   6.187  11.510 -0.1831  0.0375 -0.0370
  174DOPC   GL2 2080  17.624   6.349  11.590  0.5535 -0.0494 -0.0637
  174DOPC   C1A 2081  17.308   6.071  11.887  0.3901  0.0526 -0.0291
  174DOPC   D2A 2082  17.457   5.782  12.169 -0.0717  0.0270  0.0772
  174DOPC   C3A 2083  17.048   5.600  12.318 -0.0351 -0.3670  0.1171
  174DOPC   C4A 2084  16.530   5.536  12.277  0.0434 -0.1566  0.0636
  174DOPC   C1B 2085  17.404   6.617  11.908  0.0521  0.5089 -0.0994
  174DOPC   D2B 2086  17.057   6.851  12.181  0.3116  0.0726 -0.2437
  174DOPC   C3B 2087  16.842   6.653  12.519  0.1251 -0.2256 -0.0033
  174DOPC   C4B 2088  16.554   6.434  12.892  0.3067 -0.2674 -0.0006
  175DOPC   NC3 2089  10.286   3.174  11.213 -0.2336  0.1949  0.0200
  175DOPC   PO4 2090  10.548   3.277  11.497  0.1811  0.0452 -0.1612
  175DOPC   GL1 2091  10.471   3.291  11.852  0.2314  0.2356 -0.2170
  175DOPC   GL2 2092  10.787   3.277  11.918  0.1329  0.0799  0.2351
  175DOPC   C1A 2093  10.341   3.502  12.241  0.1268  0.1081 -0.2009
  175DOPC   D2A 2094  10.371   3.708  12.700 -0.0648 -0.0877 -0.1208
  175DOPC   C3A 2095  10.188   4.100  12.932 -0.1097 -0.1662  0.3249
  175DOPC   C4A 2096  10.213   4.505  13.248 -0.2573  0.0982 -0.0283
  175DOPC   C1B 2097  10.760   3.240  12.385  0.2917 -0.0169 -0.0769
  175DOPC   D2B 2098  10.672   3.271  12.825  0.0682 -0.0027  0.0074
  175DOPC   C3B 2099  10.433   3.422  13.190  0.4709  0.2024 -0.0994
  175DOPC   C4B 2100  10.118   3.452  13.526  0.1094 -0.1530  0.0311
  176DOPC   NC3 2101  21.848   4.635  11.188  0.1865  0.0921  0.1072
  176DOPC   PO4 2102  21.562   4.891  11.233 -0.2525 -0.3166  0.1365
  176DOPC   GL1 2103  21.517   4.904  11.650 -0.2204 -0.1364 -0.0560
  176DOPC   GL2 2104  21.666   4.620  11.751  0.3521 -0.1890 -0.4203
  176DOPC   C1A 2105  21.701   5.035  12.008  0.1048 -0.2308  0.0695
  176DOPC   D2A 2106  21.747   4.823  12.462  0.2726  0.2428 -0.0464
  176DOPC   C3A 2107  21.836   4.530  12.765  0.0197 -0.2074  0.1267
  176DOPC   C4A 2108  21.978   4.451  13.193 -0.2938  0.1540 -0.0738
  176DOPC   C1B 2109  21.610   4.441  12.149  0.1372  0.2297 -0.0266
  176DOPC   D2B 2110  21.544   4.075  12.474  0.3469 -0.2642  0.1673
  176DOPC   C3B 2111  21.541   4.104  12.915  0.0822 -0.0238  0.2405
  176DOPC   C4B 2112  21.567   4.136  13.366  0.0364  0.0443 -0.3778
  177DOPC   NC3 2113   5.712   2.530  10.973  0.0191  0.1132  0.2685
  177DOPC   PO4 2114   5.834   2.931  10.991 -0.0970 -0.2301  0.4667
  177DOPC   GL1 2115   5.906   2.918  11.370 -0.3264  0.2329  0.1027
  177DOPC   GL2 2116   5.654   2.858  11.414  0.0322  0.3867 -0.2269
  177DOPC   C1A 2117   6.191   2.897  11.741  0.0916 -0.0719 -0.0868
  177DOPC   D2A 2118   6.516   2.699  12.060 -0.0615  0.0912  0.1337
  177DOPC   C3A 2119   6.414   2.467  12.449 -0.0128  0.5588  0.0535
  177DOPC   C4A 2120   6.443   1.998  12.610  0.1777 -0.0805 -0.0468
  177DOPC   C1B 2121   5.647   2.912  11.850  0.2074 -0.0571 -0.0104
  177DOPC   D2B 2122   5.611   3.093  12.363 -0.0750 -0.3008 -0.3009
  177DOPC   C3B 2123   5.364   3.000  12.784 -0.1134  0.0977  0.0359
  177DOPC   C4B 2124   5.158   2.942  13.199 -0.0797 -0.2822 -0.3298
  178DOPC   NC3 2125  20.688   5.326  11.365  0.0490 -0.1050  0.0876
  178DOPC   PO4 2126  20.668   5.728  11.440  0.0445 -0.1196  0.1552
  178DOPC   GL1 2127  20.705   5.961  11.827 -0.2177  0.1384 -0.0234
  178DOPC   GL2 2128  20.527   5.761  11.972  0.1920 -0.1311 -0.0976
  178DOPC   C1A 2129  20.532   6.270  12.073 -0.0444  0.1525  0.1137
  178DOPC   D2A 2130  20.088   6.312  12.263  0.1009  0.1863 -0.0329
  178DOPC   C3A 2131  19.728   6.390  12.566  0.0300  0.0727 -0.0238
  178DOPC   C4A 2132  19.419   6.490  12.990 -0.4590  0.2524 -0.5453
  178DOPC   C1B 2133  20.723   5.617  12.309  0.1750 -0.0591  0.0267
  178DOPC   D2B 2134  21.068   5.562  12.590 -0.0913 -0.4253  0.0990
  178DOPC   C3B 2135  21.085   5.969  12.943  0.0139 -0.0892 -0.0275
  178DOPC   C4B 2136  21.257   6.267  13.363  0.1030 -0.0863 -0.4364
  179DOPC   NC3 2137  27.914   0.325  10.650  0.0062  0.1048  0.0612
  179DOPC   PO4 2138  28.131   0.055  10.795 -0.4709  0.0462 -0.1324
  179DOPC   GL1 2139  28.185  -0.006  11.230 -0.0597  0.3150 -0.0975
  179DOPC   GL2 2140  27.942   0.068  11.351 -0.1214 -0.0176 -0.0849
  179DOPC   C1A 2141  28.488   0.218  11.384 -0.0895 -0.0055  0.0016
  179DOPC   D2A 2142  28.831   0.566  11.548 -0.0911 -0.0779 -0.1036
  179DOPC   C3A 2143  29.024   0.537  11.949  0.3633  0.0422 -0.1109
  179DOPC   C4A 2144  29.237   0.425  12.422  0.0262 -0.1455  0.1647
  179DOPC   C1B 2145  28.120   0.358  11.661 -0.2412 -0.0715  0.0451
  179DOPC   D2B 2146  28.131   0.366  12.095 -0.1991  0.1457 -0.1826
  179DOPC   C3B 2147  28.211   0.653  12.445 -0.1792  0.3940  0.2016
  179DOPC   C4B 2148  28.323   0.574  12.967  0.2715 -0.2980 -0.0705
  180DOPC   NC3 2149  19.212   0.079  11.231  0.3274  0.0262  0.3570
  180DOPC   PO4 2150  19.344   0.193  11.558 -0.1202  0.1344 -0.2330
  180DOPC   GL1 2151  19.192   0.127  11.940 -0.1122 -0.1207 -0.1627
  180DOPC   GL2 2152  19.325  -0.156  11.993 -0.1572  0.2447  0.0770
  180DOPC   C1A 2153  18.968   0.167  12.297 -0.2021  0.1970  0.1122
  180DOPC   D2A 2154  18.865  -0.115  12.706  0.0085  0.0087  0.0190
  180DOPC   C3A 2155  19.008  -0.003  13.157  0.1693  0.0814  0.2084
  180DOPC   C4A 2156  19.174   0.409  13.218  0.0472 -0.2129  0.0425
  180DOPC   C1B 2157  19.454  -0.012  12.320 -0.0335  0.0247  0.2467
  180DOPC   D2B 2158  19.449   0.148  12.761  0.0052 -0.2098 -0.3920
  180DOPC   C3B 2159  19.175   0.472  12.677 -0.1094  0.4790  0.0613
  180DOPC   C4B 2160  18.812   0.817  12.815  0.1199 -0.1821  0.1502
  181DOPC   NC3 2161  26.507   4.179  10.639 -0.2723  0.0689  0.0834
  181DOPC   PO4 2162  26.415   3.966  10.941 -0.2659  0.1191 -0.0368
  181DOPC   GL1 2163  26.620   3.932  11.324  0.0890 -0.0863 -0.5244
  181DOPC   GL2 2164  26.819   3.733  11.153 -0.1063  0.2480 -0.3142
  181DOPC   C1A 2165  26.680   4.043  11.785  0.0018  0.0896  0.2712
  181DOPC   D2A 2166  27.028   4.171  12.173  0.3356 -0.0715 -0.2571
  181DOPC   C3A 2167  27.166   4.183  12.668  0.0942 -0.0988 -0.1053
  181DOPC   C4A 2168  27.398   4.280  13.097  0.0246  0.0365  0.2268
  181DOPC   C1B 2169  26.756   3.548  11.545 -0.3029  0.1049 -0.2556
  181DOPC   D2B 2170  26.805   3.652  12.048 -0.0171 -0.1789 -0.1498
  181DOPC   C3B 2171  27.072   3.706  12.444  0.3471 -0.2593  0.3884
  181DOPC   C4B 2172  27.131   3.363  12.798 -0.1071  0.0961  0.1500
  182DOPC   NC3 2173   3.293   2.621   9.912 -0.0953 -0.0633  0.2506
  182DOPC   PO4 2174   3.243   3.015  10.008  0.0885  0.0369 -0.1510
  182DOPC   GL1 2175   3.167   3.069  10.370 -0.0829  0.1432 -0.1266
  182DOPC   GL2 2176   2.884   3.083  10.441 -0.1498 -0.0395 -0.5722
  182DOPC   C1A 2177   3.396   2.959  10.710 -0.2081 -0.1646 -0.1091
  182DOPC   D2A 2178   3.871   3.054  10.842  0.2050 -0.1235  0.3347
  182DOPC   C3A 2179   3.896   3.127  11.347  0.1574  0.0319  0.3254
  182DOPC   C4A 2180   4.009   3.178  11.793  0.0085 -0.2644  0.0997
  182DOPC   C1B 2181   2.909   3.022  10.908  0.2030  0.0598  0.1514
  182DOPC   D2B 2182   2.715   3.170  11.342  0.3541 -0.1514 -0.0051
  182DOPC   C3B 2183   2.592   3.383  11.715  0.1385 -0.0586 -0.2846
  182DOPC   C4B 2184   2.403   3.738  11.951 -0.1371  0.1717  0.1560
  183DOPC   NC3 2185  21.665   0.099  11.065  0.2589  0.3691  0.1543
  183DOPC   PO4 2186  21.961   0.370  11.098 -0.0093 -0.0048  0.0008
  183DOPC   GL1 2187  21.874   0.501  11.623 -0.0881  0.0844  0.1509
  183DOPC   GL2 2188  21.702   0.210  11.572 -0.1590 -0.0484  0.3130
  183DOPC   C1A 2189  21.657   0.822  11.890  0.0735 -0.0996  0.1106
  183DOPC   D2A 2190  21.606   0.987  12.358 -0.0315  0.0636 -0.1517
  183DOPC   C3A 2191  21.810   1.053  12.759  0.2635 -0.1863 -0.1592
  183DOPC   C4A 2192  21.841   1.560  12.944  0.1378  0.0520 -0.0683
  183DOPC   C1B 2193  21.461   0.154  11.925  0.0743 -0.1332 -0.0247
  183DOPC   D2B 2194  21.134   0.153  12.296 -0.1385 -0.1197 -0.0717
  183DOPC   C3B 2195  20.915   0.014  12.632 -0.1619 -0.0635 -0.1573
  183DOPC   C4B 2196  20.751  -0.264  13.029 -0.0051  0.1892  0.3186
  184DOPC   NC3 2197   3.806   0.819  10.166 -0.1429 -0.0628  0.1816
  184DOPC   PO4 2198   3.597   0.775  10.533 -0.4471 -0.1710 -0.2212
  184DOPC   GL1 2199   3.759   0.698  10.990  0.0586  0.1843  0.0250
  184DOPC   GL2 2200   3.812   0.941  10.974  0.1153  0.0076  0.1989
  184DOPC   C1A 2201   3.494   0.679  11.253  0.0105 -0.0412  0.1526
  184DOPC   D2A 2202   3.366   0.567  11.705  0.2405  0.2138 -0.0180
  184DOPC   C3A 2203   3.378   0.884  12.070 -0.1520 -0.0466 -0.1598
  184DOPC   C4A 2204   3.381   1.228  12.464  0.1156 -0.1255  0.0493
  184DOPC   C1B 2205   3.839   1.008  11.440 -0.1001  0.0008 -0.0667
  184DOPC   D2B 2206   4.006   1.204  11.869 -0.0961 -0.0072  0.1043
  184DOPC   C3B 2207   3.878   1.197  12.284 -0.0732  0.0794 -0.2979
  184DOPC   C4B 2208   3.755   1.248  12.772 -0.0220 -0.2030  0.0444
  185DOPC   NC3 2209  26.751   1.389  10.906  0.3865  0.1625 -0.0682
  185DOPC   PO4 2210  27.124   1.287  10.823 -0.0687 -0.2878 -0.0842
  185DOPC   GL1 2211  27.297   1.396  11.202  0.3629  0.3669 -0.0471
  185DOPC   GL2 2212  27.005   1.363  11.284  0.2947  0.1409  0.3527
  185DOPC   C1A 2213  27.399   1.634  11.576  0.3132  0.5472  0.1112
  185DOPC   D2A 2214  27.490   1.630  12.090 -0.0334 -0.1500 -0.1108
  185DOPC   C3A 2215  27.843   1.791  12.327 -0.0792 -0.3131 -0.0905
  185DOPC   C4A 2216  28.229   1.956  12.131 -0.4275  0.0345 -0.0564
  185DOPC   C1B 2217  27.106   1.204  11.692  0.0289  0.0339  0.1038
  185DOPC   D2B 2218  27.199   1.279  12.130  0.1281 -0.1625 -0.1292
  185DOPC   C3B 2219  27.120   1.228  12.580 -0.1497  0.5396  0.0352
  185DOPC   C4B 2220  27.064   1.118  13.099  0.1315 -0.3925  0.0368
  186DOPC   NC3 2221  11.701   6.517  11.150  0.1058 -0.1025  0.0909
  186DOPC   PO4 2222  11.961   6.219  11.205  0.1786 -0.0357  0.0507
  186DOPC   GL1 2223  11.969   6.429  11.544 -0.1107 -0.0418  0.2781
  186DOPC   GL2 2224  12.080   6.686  11.406  0.1691 -0.0503 -0.0265
  186DOPC   C1A 2225  11.914   6.286  11.908  0.0585 -0.2802  0.0432
  186DOPC   D2A 2226  11.906   6.321  12.386 -0.1709  0.1729  0.0549
  186DOPC   C3A 2227  11.485   6.459  12.450  0.0276  0.1638 -0.0838
  186DOPC   C4A 2228  11.028   6.431  12.264  0.0083  0.1383 -0.1097
  186DOPC   C1B 2229  11.729   6.845  11.669 -0.2583  0.2893  0.3299
  186DOPC   D2B 2230  11.292   6.837  11.783 -0.0141 -0.1244 -0.0520
  186DOPC   C3B 2231  11.315   6.916  12.205  0.1265  0.1323 -0.0828
  186DOPC   C4B 2232  11.192   7.028  12.606  0.0340 -0.0519  0.3269
  187DOPC   NC3 2233  25.159   4.345  11.235 -0.2272 -0.0981 -0.1865
  187DOPC   PO4 2234  25.034   3.959  11.067 -0.3591  0.1339 -0.1969
  187DOPC   GL1 2235  24.972   3.816  11.397  0.0881  0.2983  0.0130
  187DOPC   GL2 2236  25.203   3.939  11.582  0.1755  0.0283 -0.1051
  187DOPC   C1A 2237  24.924   3.529  11.694  0.1362 -0.3346  0.0583
  187DOPC   D2A 2238  24.911   3.061  11.893  0.1456  0.0357 -0.0083
  187DOPC   C3A 2239  25.197   2.887  12.212  0.0432  0.3861  0.2455
  187DOPC   C4A 2240  25.647   2.791  12.368  0.0995 -0.3301  0.1337
  187DOPC   C1B 2241  25.203   3.876  11.991  0.0707  0.1315 -0.3689
  187DOPC   D2B 2242  25.257   3.777  12.447 -0.2730  0.3531  0.1286
  187DOPC   C3B 2243  25.520   4.001  12.720  0.1225  0.2474  0.2013
  187DOPC   C4B 2244  25.461   4.270  13.181 -0.0278  0.0791 -0.1656
  188DOPC   NC3 2245  25.925   1.448  10.603  0.0677  0.2692  0.0674
  188DOPC   PO4 2246  25.701   1.469  10.940 -0.3126  0.2716 -0.3026
  188DOPC   GL1 2247  25.868   1.323  11.262 -0.1412 -0.0337  0.2277
  188DOPC   GL2 2248  25.855   1.593  11.381 -0.2826  0.3312  0.0348
  188DOPC   C1A 2249  26.030   1.085  11.595  0.0224  0.0151  0.0258
  188DOPC   D2A 2250  26.303   0.923  11.991  0.2979  0.1840  0.2084
  188DOPC   C3A 2251  26.277   0.822  12.482  0.2331  0.2964 -0.1629
  188DOPC   C4A 2252  26.271   0.515  12.917  0.0160 -0.0252 -0.0211
  188DOPC   C1B 2253  26.214   1.708  11.637  0.0793 -0.3198  0.1540
  188DOPC   D2B 2254  26.567   1.911  11.954  0.1402 -0.2858  0.1437
  188DOPC   C3B 2255  26.555   1.957  12.358 -0.1292  0.2047 -0.3465
  188DOPC   C4B 2256  26.511   1.848  12.853 -0.0246  0.0084  0.0074
  189DOPC   NC3 2257  20.218   5.819  11.618 -0.2891 -0.2861 -0.0469
  189DOPC   PO4 2258  20.295   5.446  11.663  0.0474  0.4145 -0.2691
  189DOPC   GL1 2259  20.381   5.277  12.136 -0.1200  0.0943  0.0095
  189DOPC   GL2 2260  20.085   5.230  12.147  0.2967  0.2355 -0.1074
  189DOPC   C1A 2261  20.215   5.417  12.523  0.2470 -0.2879 -0.2137
  189DOPC   D2A 2262  19.996   5.545  12.999  0.1696 -0.1104 -0.0804
  189DOPC   C3A 2263  20.056   5.713  13.398  0.1527  0.0507 -0.2699
  189DOPC   C4A 2264  20.445   5.992  13.451 -0.1646  0.1966 -0.1195
  189DOPC   C1B 2265  20.007   4.847  12.338  0.2909  0.0555 -0.2043
  189DOPC   D2B 2266  20.139   4.410  12.574 -0.0312  0.1699  0.1155
  189DOPC   C3B 2267  19.974   4.335  12.986 -0.0116  0.1923  0.2336
  189DOPC   C4B 2268  19.740   4.149  13.372 -0.5383 -0.2427  0.1292
  190DOPC   NC3 2269  21.152   1.332  11.464 -0.1617 -0.3903 -0.1748
  190DOPC   PO4 2270  20.875   1.036  11.481  0.0620 -0.0568  0.0747
  190DOPC   GL1 2271  20.761   0.805  11.760  0.1791  0.2065 -0.0162
  190DOPC   GL2 2272  20.989   0.957  11.956 -0.0986 -0.1562 -0.0136
  190DOPC   C1A 2273  20.559   0.655  12.115  0.1706  0.0780 -0.1490
  190DOPC   D2A 2274  20.441   0.525  12.585 -0.0609  0.3144 -0.1064
  190DOPC   C3A 2275  20.162   0.380  12.902  0.0657  0.3216 -0.2856
  190DOPC   C4A 2276  19.738   0.340  13.180 -0.1833 -0.1215 -0.1175
  190DOPC   C1B 2277  21.035   0.879  12.364 -0.0008 -0.0754 -0.4172
  190DOPC   D2B 2278  20.946   0.568  12.731  0.1731  0.2512  0.0405
  190DOPC   C3B 2279  21.267   0.331  12.982  0.0106 -0.0159 -0.0687
  190DOPC   C4B 2280  21.448   0.437  13.427  0.0992  0.2061  0.1402
  191DOPC   NC3 2281   9.690   5.346  10.671 -0.1406  0.2685 -0.0818
  191DOPC   PO4 2282   9.718   5.073  10.985  0.4289  0.0253 -0.3218
  191DOPC   GL1 2283   9.812   5.102  11.423  0.1606  0.0757  0.1379
  191DOPC   GL2 2284   9.697   4.964  11.597 -0.1954 -0.1506  0.0374
  191DOPC   C1A 2285   9.875   5.518  11.578  0.1430  0.0165 -0.0795
  191DOPC   D2A 2286   9.962   5.937  11.766 -0.0210  0.0010 -0.0679
  191DOPC   C3A 2287   9.764   5.815  12.187  0.0863 -0.2468 -0.1825
  191DOPC   C4A 2288   9.542   5.798  12.607 -0.1331 -0.0015 -0.2568
  191DOPC   C1B 2289   9.273   5.036  11.625 -0.0225 -0.2935  0.0228
  191DOPC   D2B 2290   8.849   4.953  11.846 -0.0965  0.2675  0.0310
  191DOPC   C3B 2291   8.730   4.716  12.209 -0.1735 -0.2968 -0.0876
  191DOPC   C4B 2292   8.557   4.543  12.616 -0.1524  0.2700  0.0166
  192DOPC   NC3 2293  20.498   6.317  11.588  0.0837  0.2012  0.1126
  192DOPC   PO4 2294  20.601   6.716  11.545  0.1697 -0.2404 -0.0021
  192DOPC   GL1 2295  20.719   6.956  11.929  0.1026 -0.4175  0.2459
  192DOPC   GL2 2296  20.409   7.013  11.847 -0.0053  0.3577 -0.1621
  192DOPC   C1A 2297  20.727   7.019  12.322  0.1010 -0.0751 -0.1016
  192DOPC   D2A 2298  20.719   7.051  12.812 -0.0670 -0.2200 -0.5198
  192DOPC   C3A 2299  20.505   6.774  13.125 -0.1907 -0.0504  0.1854
  192DOPC   C4A 2300  20.207   6.480  13.339 -0.1718 -0.0013 -0.0672
  192DOPC   C1B 2301  20.173   7.234  12.180  0.0713 -0.2054 -0.1017
  192DOPC   D2B 2302  19.829   6.915  12.340 -0.2168 -0.0326  0.2224
  192DOPC   C3B 2303  19.532   6.597  12.109 -0.1304 -0.3122 -0.0340
  192DOPC   C4B 2304  19.305   6.171  11.825  0.3233  0.0265  0.0955
  193DOPC   NC3 2305  11.696   1.143  11.171 -0.0711 -0.0957  0.0954
  193DOPC   PO4 2306  11.858   1.520  11.118  0.0273  0.2289  0.0507
  193DOPC   GL1 2307  11.651   1.614  11.411 -0.0346 -0.2024 -0.2400
  193DOPC   GL2 2308  11.796   1.860  11.528 -0.4258 -0.1235  0.1934
  193DOPC   C1A 2309  11.415   1.272  11.695 -0.0004  0.1664 -0.1712
  193DOPC   D2A 2310  11.331   1.027  12.092  0.3296  0.3032  0.2243
  193DOPC   C3A 2311  10.949   0.866  12.306  0.0519  0.2641 -0.3832
  193DOPC   C4A 2312  10.640   0.623  12.655 -0.1461 -0.3108 -0.0231
  193DOPC   C1B 2313  12.096   1.683  11.815 -0.2195  0.1961  0.1506
  193DOPC   D2B 2314  12.401   1.486  12.183  0.2001 -0.0144 -0.0466
  193DOPC   C3B 2315  12.309   1.672  12.627  0.5929 -0.0663  0.1106
  193DOPC   C4B 2316  12.289   1.737  13.089  0.0138 -0.0959  0.0339
  194DOPC   NC3 2317   6.263   0.524  10.822  0.0136 -0.1622  0.1413
  194DOPC   PO4 2318   6.497   0.191  10.798  0.1251  0.1445  0.2283
  194DOPC   GL1 2319   6.702   0.257  11.160 -0.0108 -0.1182  0.2303
  194DOPC   GL2 2320   6.505   0.451  11.196  0.0562 -0.2381 -0.3093
  194DOPC   C1A 2321   6.787   0.179  11.571  0.0344  0.1450  0.1616
  194DOPC   D2A 2322   6.615   0.291  12.018 -0.0774  0.0153  0.0732
  194DOPC   C3A 2323   6.698   0.066  12.367 -0.3036  0.2628 -0.1547
  194DOPC   C4A 2324   6.875  -0.162  12.771 -0.1400 -0.0573  0.1124
  194DOPC   C1B 2325   6.342   0.546  11.622 -0.1877 -0.0472  0.3386
  194DOPC   D2B 2326   6.178   0.483  12.075  0.1784  0.1966 -0.0926
  194DOPC   C3B 2327   6.106   0.705  12.461  0.3602  0.0611 -0.1378
  194DOPC   C4B 2328   5.721   0.869  12.669 -0.1914  0.1985  0.2186
  195DOPC   NC3 2329   4.475   7.656  10.634 -0.0335  0.0681 -0.0021
  195DOPC   PO4 2330   4.202   7.923  10.768  0.1961  0.0412  0.1995
  195DOPC   GL1 2331   4.058   7.966  11.085 -0.0600 -0.1420 -0.1609
  195DOPC   GL2 2332   4.201   8.242  11.089 -0.0922  0.0369 -0.1169
  195DOPC   C1A 2333   3.895   7.718  11.390 -0.0917  0.4002 -0.3229
  195DOPC   D2A 2334   3.917   7.244  11.409  0.2836  0.2477  0.0124
  195DOPC   C3A 2335   3.707   7.012  11.749 -0.4017  0.0888  0.0211
  195DOPC   C4A 2336   3.948   6.569  11.878  0.0910 -0.1023  0.2850
  195DOPC   C1B 2337   3.907   8.302  11.487 -0.2344  0.2618  0.2264
  195DOPC   D2B 2338   3.814   8.518  11.938 -0.1528  0.0804  0.1365
  195DOPC   C3B 2339   3.803   8.580  12.390 -0.0937 -0.2183  0.2159
  195DOPC   C4B 2340   3.886   8.616  12.951 -0.2607  0.0860  0.0588
  196DOPC   NC3 2341  31.196   1.439  10.743 -0.3904  0.2919 -0.2418
  196DOPC   PO4 2342  31.513   1.614  10.592  0.4658  0.0806  0.1271
  196DOPC   GL1 2343  31.875   1.871  10.847  0.0823 -0.2210  0.3822
  196DOPC   GL2 2344  31.998   1.668  10.927  0.0988 -0.4076  0.1623
  196DOPC   C1A 2345  31.627   2.058  11.135  0.1772 -0.0875 -0.0255
  196DOPC   D2A 2346  31.367   2.197  11.544 -0.4955 -0.4218  0.0344
  196DOPC   C3A 2347  31.072   2.544  11.554 -0.1331  0.1849  0.1107
  196DOPC   C4A 2348  30.836   2.968  11.598 -0.0730 -0.0726 -0.2616
  196DOPC   C1B 2349  31.867   1.544  11.277 -0.1049 -0.0979 -0.2662
  196DOPC   D2B 2350  31.631   1.550  11.768  0.1690  0.2257 -0.2552
  196DOPC   C3B 2351  31.768   2.021  11.723  0.0594  0.2003  0.0351
  196DOPC   C4B 2352  31.844   2.417  12.025 -0.0825  0.0519 -0.0023
  197DOPC   NC3 2353  28.164   3.308  10.625 -0.1376  0.1762  0.2408
  197DOPC   PO4 2354  28.003   3.634  10.757  0.1278 -0.1489  0.0454
  197DOPC   GL1 2355  27.806   3.504  11.125 -0.2280  0.0685 -0.3133
  197DOPC   GL2 2356  27.622   3.774  11.140  0.0276  0.1626  0.1280
  197DOPC   C1A 2357  27.721   3.200  11.440  0.2092  0.0958  0.3139
  197DOPC   D2A 2358  27.635   3.017  11.867  0.0495  0.0277 -0.1519
  197DOPC   C3A 2359  27.355   3.221  12.183 -0.2208 -0.0544 -0.0325
  197DOPC   C4A 2360  26.972   3.167  12.400  0.2959  0.1319  0.0584
  197DOPC   C1B 2361  27.647   3.707  11.533  0.4166  0.2484  0.0884
  197DOPC   D2B 2362  27.811   3.583  12.010 -0.3280  0.1767 -0.1140
  197DOPC   C3B 2363  28.003   3.588  12.392  0.3844  0.0586 -0.1370
  197DOPC   C4B 2364  28.219   3.587  12.888 -0.2681 -0.0872  0.1141
  198DOPC   NC3 2365  16.346   7.532  11.480 -0.1233 -0.2151 -0.1105
  198DOPC   PO4 2366  16.731   7.581  11.355  0.2267 -0.2715  0.1088
  198DOPC   GL1 2367  16.800   7.630  11.673 -0.3136 -0.0405  0.0312
  198DOPC   GL2 2368  16.731   7.423  11.853 -0.3716 -0.0817 -0.1695
  198DOPC   C1A 2369  16.887   7.850  11.984  0.0279  0.0609 -0.1543
  198DOPC   D2A 2370  16.990   8.005  12.456 -0.0674 -0.0902  0.2065
  198DOPC   C3A 2371  17.267   8.199  12.768 -0.1653  0.0173 -0.3446
  198DOPC   C4A 2372  17.625   8.230  13.160 -0.1436 -0.0161 -0.1182
  198DOPC   C1B 2373  16.376   7.473  12.156  0.1642 -0.1299  0.2607
  198DOPC   D2B 2374  16.233   7.232  12.570  0.1279 -0.2369  0.1563
  198DOPC   C3B 2375  15.897   7.003  12.883  0.0535  0.1003  0.1816
  198DOPC   C4B 2376  15.678   6.763  13.184  0.0396 -0.2204 -0.0524
  199DOPC   NC3 2377  10.561   7.057  11.622 -0.0189 -0.2509  0.2015
  199DOPC   PO4 2378  10.952   7.110  11.502 -0.2897  0.0098  0.2103
  199DOPC   GL1 2379  10.965   7.275  11.855 -0.1139  0.0034 -0.3465
  199DOPC   GL2 2380  10.870   7.048  12.031 -0.2460  0.1449 -0.1112
  199DOPC   C1A 2381  10.690   7.639  12.067 -0.1884  0.0421  0.2774
  199DOPC   D2A 2382  10.478   7.710  12.481 -0.0146  0.1562 -0.1855
  199DOPC   C3A 2383  10.313   7.977  12.791  0.0757  0.0997 -0.1719
  199DOPC   C4A 2384  10.309   8.271  13.161  0.3679 -0.3253 -0.3166
  199DOPC   C1B 2385  10.691   6.834  12.297  0.0972  0.1352 -0.0460
  199DOPC   D2B 2386  10.503   6.557  12.673 -0.0425 -0.0360 -0.2282
  199DOPC   C3B 2387  10.822   6.831  12.850  0.2091 -0.0750  0.1818
  199DOPC   C4B 2388  11.193   6.902  13.164  0.0679 -0.1457  0.0369
  200DOPC   NC3 2389  24.127   3.759  11.292  0.1457  0.0492 -0.0988
  200DOPC   PO4 2390  23.786   3.923  11.384 -0.1326 -0.1152  0.1583
  200DOPC   GL1 2391  23.759   3.772  11.791 -0.0540  0.0428 -0.2490
  200DOPC   GL2 2392  23.873   3.509  11.735  0.0229 -0.5379  0.1414
  200DOPC   C1A 2393  23.637   3.779  12.191  0.1617 -0.0721 -0.0951
  200DOPC   D2A 2394  23.533   3.757  12.638  0.2078  0.1135  0.2158
  200DOPC   C3A 2395  23.243   3.797  12.981 -0.0948 -0.4888 -0.1193
  200DOPC   C4A 2396  23.190   3.647  13.435  0.2077  0.2518 -0.0951
  200DOPC   C1B 2397  23.995   3.267  12.079  0.0997  0.1311 -0.0549
  200DOPC   D2B 2398  24.231   3.180  12.530  0.0135  0.2813 -0.0963
  200DOPC   C3B 2399  24.215   3.261  13.010  0.0610 -0.2150 -0.0336
  200DOPC   C4B 2400  24.045   2.998  13.421 -0.0238  0.1008  0.0108
  201W        W 2401  24.664   1.107  25.578 -0.1492  0.1027  0.0922
  202W        W 2402  17.298   0.190   0.711 -0.0555  0.2118 -0.1677
  203W        W 2403  13.166   5.639  11.159 -0.1359 -0.3561 -0.0090
  204W        W 2404   2.592   1.908  18.580  0.0303 -0.1640  0.0601
  205W        W 2405  14.328   7.432  23.394 -0.0411 -0.1597 -0.0550
  206W        W 2406   8.791   1.193   1.674 -0.1318  0.1156 -0.1943
  207W        W 2407  27.772   7.605   5.540  0.0736  0.0772  0.0364
  208W        W 2408   4.714   7.469  21.519  0.0743 -0.1068 -0.3879
  209W        W 2409  27.019   4.646   9.110 -0.0548 -0.2325 -0.0700
  210W        W 2410   7.133   5.310  20.358  0.1533 -0.0956  0.1370
  211W        W 2411  23.743   7.470  20.072 -0.2661  0.2037 -0.3136
  212W        W 2412  20.035   0.455  20.237 -0.3816  0.1888 -0.1629
  213W        W 2413  23.001   5.767   2.901 -0.4680 -0.2153 -0.1371
  214W        W 2414  30.752   3.666  15.293  0.0381 -0.4465 -0.1517
  215W        W 2415   7.226   0.810   5.353 -0.2090  0.0472 -0.1660
  216W        W 2416  15.088   0.581  15.349  0.1201 -0.0477 -0.3429
  217W        W 2417  28.337   7.326  22.813  0.1692  0.1025 -0.3324
  218W        W 2418  27.681   7.759  11.043 -0.0244 -0.2296 -0.0914
  219W        W 2419  31.290   2.721  19.059  0.0311 -0.1400 -0.0588
  220W        W 2420  18.546   5.513  24.846  0.1778 -0.0891  0.3629
  221W        W 2421   3.969   1.363  17.115 -0.2233 -0.0630  0.4324
  222W        W 2422  14.475   7.100  18.573  0.0562  0.1453 -0.0898
  223W        W 2423   3.658   3.256  20.333 -0.0161 -0.1360 -0.0563
  224W        W 2424  24.991   1.960  10.356 -0.0989  0.0753  0.3586
  225W        W 2425  10.813   6.095   5.841 -0.3526  0.1609 -0.0488
  226W        W 2426  31.202   3.194  20.669 -0.0652  0.2105  0.1114
  227W        W 2427  29.436   7.766   0.759 -0.1534  0.1355 -0.1711
  228W        W 2428  18.549   6.905   4.903 -0.0762 -0.0233 -0.3296
  229W        W 2429  25.782   2.186  20.148 -0.2378 -0.1874 -0.0594
  230W        W 2430   0.729   4.097  24.447  0.3810  0.3336  0.3060
  231W        W 2431   0.673   2.451   2.769 -0.0756 -0.0063 -0.0194
  232W        W 2432  25.483   1.570  19.379 -0.0625 -0.3092 -0.0234
  233W        W 2433  14.230   5.533  20.280 -0.1092 -0.0898  0.0702
  234W        W 2434   6.766   0.108  10.336 -0.0388  0.0309  0.0779
  235W        W 2435  16.597   7.313   1.704  0.1137 -0.0647 -0.4310
  236W        W 2436  23.395   4.514   0.087 -0.0839  0.0423 -0.0717
  237W        W 2437  11.890   2.302  23.359  0.0287 -0.1461  0.1361
  238W        W 2438  15.213   7.528  25.321 -0.1020  0.4235 -0.3550
  239W        W 2439  11.834   2.514  18.258  0.2562 -0.2724  0.2310
  240W        W 2440   8.192   7.309  25.211 -0.1754  0.2998  0.1409
  241W        W 2441  22.118   1.087   7.676 -0.2565 -0.0253  0.1684
  242W        W 2442   1.451   2.526   2.074 -0.3158  0.2442  0.0973
  243W        W 2443   2.046   0.685   7.908  0.2547 -0.0206 -0.2259
  244W        W 2444   2.602   7.267   6.774  0.1539  0.0949  0.4903
  245W        W 2445   5.233   4.636   1.679 -0.0600 -0.0783 -0.1126
  246W        W 2446  14.534   6.142  21.675  0.0655 -0.1230  0.0477
  247W        W 2447   7.849   6.208  25.487  0.0233  0.2782  0.2318
  248W        W 2448  25.191   0.391   3.904  0.0288 -0.0359 -0.1496
  249W        W 2449  23.234   1.615  23.469 -0.0872  0.2572  0.0667
  250W        W 2450  10.930   0.156   0.287  0.1138 -0.0429 -0.2120
  251W        W 2451  12.630   3.544  25.903  0.0289 -0.0991 -0.0373
  252W        W 2452   9.235   5.883  16.649 -0.0202 -0.0288 -0.0518
  253W        W 2453  16.658   3.727   0.024 -0.1835  0.0670 -0.1006
  254W        W 2454  29.394   5.580   3.883  0.2051  0.1397 -0.1346
  255W        W 2455  11.786   0.216  22.393  0.0388 -0.3832 -0.0141
  256W        W 2456   4.119   6.410  21.055  0.0767  0.2762  0.0431
  257W        W 2457  18.494   7.378  24.043  0.0784 -0.0857 -0.1526
  258W        W 2458  23.167   2.484   8.433  0.1075 -0.1410  0.0780
  259W        W 2459   1.002   1.087  15.321 -0.1734 -0.0139 -0.2155
  260W        W 2460  23.105   2.504   9.884  0.2166  0.1153  0.3433
  261W        W 2461   9.071   5.729  25.271 -0.2004 -0.2980 -0.2145
  262W        W 2462   3.925   4.363  20.945  0.0329 -0.0079  0.0318
  263W        W 2463  20.557   6.209   3.946 -0.2005  0.0199  0.3837
  264W        W 2464  25.381   7.090  15.158  0.1493 -0.0495  0.0044
  265W        W 2465  30.019   7.100  10.179 -0.1601  0.1224 -0.0142
  266W        W 2466  17.684   2.809   2.005 -0.2397 -0.1252  0.1592
  267W        W 2467  19.201   2.706   2.574 -0.0738 -0.0278 -0.0046
  268W        W 2468   1.572   5.436   6.369  0.1863  0.0382 -0.2463
  269W        W 2469  15.480   2.009   4.231  0.2898 -0.2291 -0.0792
  270W        W 2470  17.898   2.255  22.708  0.0628  0.0949 -0.1536
  271W        W 2471   9.984   0.257  14.895  0.2257 -0.0717  0.0862
  272W        W 2472  22.102   0.495   9.334  0.0396  0.1633  0.0845
  273W        W 2473  10.004   6.352   9.871 -0.2163 -0.0553  0.1682
  274W        W 2474  31.000   1.718  20.369  0.0025 -0.0448  0.3500
  275W        W 2475  12.567   6.411  17.501 -0.0559  0.1313  0.0152
  276W        W 2476   7.206   3.353   2.027 -0.1018 -0.1431 -0.4560
  277W        W 2477  23.164   4.944   5.057  0.0005  0.1340 -0.0152
  278W        W 2478  16.329   2.701  10.556  0.0495  0.0635  0.2269
  279W        W 2479  14.403   5.577   0.014  0.2493  0.0598 -0.4259
  280W        W 2480  11.855   3.165  20.642  0.0902  0.1990  0.0664
  281W        W 2481   7.122   6.998  25.895 -0.3211 -0.5393  0.0191
  282W        W 2482   6.963   7.086   3.076  0.0816 -0.0029  0.0430
  283W        W 2483   3.358   4.649  20.787 -0.1227  0.1443  0.3067
  284W        W 2484  16.377   1.545  18.487  0.2421 -0.0541  0.0797
  285W        W 2485  29.670   7.585  24.243 -0.1782 -0.0293  0.4843
  286W        W 2486   9.740   0.690   1.174  0.2940 -0.3124 -0.1731
  287W        W 2487  27.156   1.169  16.990 -0.0203 -0.5213  0.0312
  288W        W 2488   5.716   7.205  20.730  0.1768  0.0834  0.0141
  289W        W 2489  27.907   6.935   1.558  0.0017  0.0198  0.1568
  290W        W 2490  12.750   3.311  15.803  0.0605  0.0178 -0.2122
  291W        W 2491  25.400   2.678  18.856  0.2523  0.0575 -0.5120
  292W        W 2492   5.857   2.018   9.753 -0.2113 -0.0439 -0.0915
  293W        W 2493  16.174   5.357  17.280 -0.0117  0.0096 -0.1357
  294W        W 2494  15.016   4.579  21.660 -0.1541  0.0364  0.1464
  295W        W 2495  18.020   5.155  25.467  0.2940 -0.1801 -0.3062
  296W        W 2496  23.619   4.843  19.848 -0.1263  0.0834 -0.4594
  297W        W 2497  14.794   5.264   1.497  0.0473 -0.0178  0.2046
  298W        W 2498  20.421   0.882  21.222 -0.1080 -0.1055 -0.0029
  299W        W 2499  29.230   4.835  19.069  0.2218 -0.4233  0.2569
  300W        W 2500  21.071   1.383  21.624 -0.4083 -0.1257  0.0677
  301W        W 2501   4.908   6.107  18.539  0.1295  0.2852  0.2225
  302W        W 2502  18.259   4.956   6.472 -0.1158 -0.1355  0.2473
  303W        W 2503  28.852   0.770   6.909 -0.1235  0.3358 -0.0558
  304W        W 2504   8.579   7.515  19.758  0.0600 -0.0967  0.0091
  305W        W 2505  15.895   0.630  10.546 -0.0332  0.0869 -0.1181
  306W        W 2506  29.103   2.099  17.736 -0.3164  0.0548 -0.1059
  307W        W 2507  22.271   4.906   2.965  0.0477 -0.0914  0.0269
  308W        W 2508  30.550   1.954  20.391 -0.2222  0.0673 -0.0322
  309W        W 2509   2.831   3.480   0.314  0.2758  0.0418 -0.0755
  310W        W 2510   0.750   6.442   4.294 -0.3566 -0.0858  0.1561
  311W        W 2511  10.176   6.477  26.071  0.3492  0.1988 -0.0831
  312W        W 2512  12.644   5.206   0.119  0.2571 -0.0367  0.1959
  313W        W 2513  20.109   1.254  21.354 -0.0834 -0.2574  0.1448
  314W        W 2514   6.252   2.637  19.409  0.0449 -0.3386  0.0686
  315W        W 2515  29.867   2.386  22.793  0.0201 -0.1370 -0.1427
  316W        W 2516  15.119   7.095   2.809  0.1593  0.0508 -0.0761
  317W        W 2517   6.546   6.584   5.123  0.2366 -0.2437  0.1131
  318W        W 2518  29.393   2.761  18.634 -0.2323  0.3957 -0.1576
  319W        W 2519  26.455   4.169   4.863  0.0878 -0.0033 -0.0426
  320W        W 2520   9.333   0.056   1.689 -0.0604  0.1711 -0.1561
  321W        W 2521  21.086   4.131   6.697  0.0025 -0.0729  0.1804
  322W        W 2522   0.302   2.223  23.108  0.3320  0.1071  0.0415
  323W        W 2523  16.270   4.700   6.113  0.0388 -0.1669  0.0286
  324W        W 2524  26.132   0.698  18.132 -0.2641  0.0055 -0.0016
  325W        W 2525  20.358   6.096   5.228  0.0479  0.0044 -0.1912
  326W        W 2526  20.314   7.777  21.567  0.2995 -0.1287 -0.1256
  327W        W 2527   3.754   6.467  20.126  0.2322 -0.0114  0.1521
  328W        W 2528   3.580   6.764  17.746  0.0744  0.2956 -0.1294
  329W        W 2529  19.634   0.815  18.980 -0.0488  0.3145 -0.2939
  330W        W 2530  25.118   6.895  22.639  0.3172  0.0824  0.0452
  331W        W 2531  29.666   7.795  18.947 -0.2116 -0.0535  0.0150
  332W        W 2532  16.500   1.286   7.732 -0.0864 -0.3812 -0.2655
  333W        W 2533   4.881   0.931  15.826 -0.0389  0.0616  0.2589
  334W        W 2534  10.961   2.771  21.469 -0.3038 -0.0962  0.1694
  335W        W 2535  21.776   3.630   2.442  0.2614  0.0071  0.3051
  336W        W 2536  16.222   6.076  25.648  0.1174  0.4478 -0.0840
  337W        W 2537  30.105   7.759   7.971 -0.0313  0.0991  0.2013
  338W        W 2538  23.916   7.167  23.837  0.0872  0.1520  0.0449
  339W        W 2539   9.799   5.832  15.695 -0.0069  0.1174 -0.0037
  340W        W 2540  12.914   4.410  10.925  0.1761  0.0323 -0.0771
  341W        W 2541   7.159   3.210  18.632  0.1029 -0.2866 -0.1696
  342W        W 2542   7.786   4.982   8.492  0.0926 -0.1902 -0.1725
  343W        W 2543  14.797   1.532  24.204 -0.1132 -0.0185  0.1617
  344W        W 2544  19.913   5.631  18.634 -0.1467 -0.1673 -0.0007
  345W        W 2545   5.454   7.705   2.389 -0.0563  0.1008  0.2649
  346W        W 2546  12.267   5.215  24.769 -0.2243 -0.1329  0.1603
  347W        W 2547  28.692   2.739   3.169 -0.3404 -0.0271 -0.0083
  348W        W 2548  15.309   4.976   6.432 -0.1102  0.0221 -0.2825
  349W        W 2549   8.804   4.456  20.765  0.0351  0.4462  0.1292
  350W        W 2550  16.197   5.259   6.326 -0.1499 -0.0398 -0.1007
  351W        W 2551  23.002   0.646  10.326  0.1188 -0.0749  0.0204
  352W        W 2552  12.734   6.065   9.026  0.0148 -0.0906 -0.4375
  353W        W 2553  14.059   7.509   7.226  0.1738  0.1388  0.1871
  354W        W 2554  16.160   6.869   9.185  0.2335  0.0084  0.1583
  355W        W 2555  10.370   6.744  22.388 -0.0314  0.3840 -0.0264
  356W        W 2556   8.458   3.876  20.812  0.3602  0.1059 -0.5954
  357W        W 2557  22.206   4.049   6.919  0.0320  0.1106  0.1606
  358W        W 2558   6.827   7.172   1.368  0.0511 -0.0476 -0.1802
  359W        W 2559  13.771   6.376   9.553 -0.0970  0.0307 -0.3133
  360W        W 2560   2.064   0.951  21.247  0.0245  0.2590  0.0061
  361W        W 2561  15.646   6.489  21.771  0.4573  0.1161  0.0371
  362W        W 2562   6.480   3.395   4.969  0.1770  0.2021 -0.1923
  363W        W 2563   4.244   3.940   7.811 -0.0409  0.0035 -0.1328
  364W        W 2564   1.879   5.162  25.292 -0.0949 -0.2439  0.2304
  365W        W 2565  30.136   5.668  20.926  0.1569 -0.2091  0.1459
  366W        W 2566  22.605   1.362   7.628  0.0561  0.0983  0.3572
  367W        W 2567  25.697   2.964  19.988 -0.2094  0.1034 -0.0722
  368W        W 2568  20.489   1.577  20.186 -0.2214  0.2370  0.1851
  369W        W 2569  10.265   5.119  22.887  0.0686  0.0490  0.2307
  370W        W 2570  28.378   6.932  22.077 -0.2701 -0.3769  0.2606
  371W        W 2571  22.694   1.686  15.950  0.1569  0.0814 -0.1418
  372W        W 2572  26.287   5.240  17.305  0.0271 -0.1490  0.1273
  373W        W 2573   6.907   1.217  17.023  0.3477 -0.0351  0.0729
  374W        W 2574   5.461   3.908  24.757  0.1744 -0.0298  0.2944
  375W        W 2575  19.369   5.896  19.244  0.1333  0.0091 -0.0815
  376W        W 2576   3.256   1.812  25.450  0.1996 -0.0210  0.0409
  377W        W 2577   1.746   1.627   2.308 -0.0983  0.1122  0.2390
  378W        W 2578   3.643   4.834   9.203  0.1324  0.0557  0.4053
  379W        W 2579  10.277   3.647   3.834 -0.1066 -0.2655  0.0163
  380W        W 2580  16.864   6.923   7.785 -0.2821 -0.0309 -0.6310
  381W        W 2581  24.523   1.152   0.570  0.1113 -0.0465  0.2045
  382W        W 2582  29.395   7.704   2.538  0.3116 -0.1669  0.0034
  383W        W 2583   1.981   3.729  14.872  0.0158 -0.1717 -0.0340
  384W        W 2584   8.183   1.614   7.342  0.0658  0.1326 -0.0209
  385W        W 2585   3.203   5.556  17.760  0.1158 -0.4449 -0.3193
  386W        W 2586  11.163   5.225  21.056 -0.2571 -0.1749  0.0923
  387W        W 2587   6.361   2.093   9.567 -0.1759  0.1732  0.2525
  388W        W 2588  24.686   2.596  11.092  0.3412 -0.3137  0.2789
  389W        W 2589  17.096   5.199  25.115  0.1199  0.2321  0.0310
  390W        W 2590  30.898   7.768  20.371 -0.1193 -0.0713 -0.1314
  391W        W 2591  11.412   0.786  18.372  0.1424 -0.0590 -0.1381
  392W        W 2592  19.401   7.487  20.273  0.3691 -0.0951 -0.3492
  393W        W 2593  19.467   2.565  23.822 -0.4363 -0.0721 -0.0417
  394W        W 2594  18.131   1.693  23.323  0.0080  0.0888  0.1610
  395W        W 2595  26.420   2.680   5.329  0.0902 -0.0147  0.1921
  396W        W 2596  29.393   7.653  21.470 -0.1766  0.0789 -0.0380
  397W        W 2597   3.991   4.202   5.097 -0.3185  0.1870 -0.0914
  398W        W 2598  21.320   6.516  18.300  0.1427  0.0520  0.2519
  399W        W 2599  23.813   4.094   4.046  0.1104  0.0063 -0.1290
  400W        W 2600  28.521   0.657  16.364  0.0531 -0.0490  0.0198
  401W        W 2601   9.066   1.176   3.128 -0.1479  0.2655 -0.1794
  402W        W 2602   3.297   2.930  25.282  0.2856  0.0569 -0.1280
  403W        W 2603   6.368   5.601  19.639  0.0737  0.0791  0.0126
  404W        W 2604  10.049   4.882   8.883 -0.1444  0.2925  0.0449
  405W        W 2605   9.510   6.294  18.293  0.0475  0.1912 -0.1114
  406W        W 2606  28.501   0.068  24.223 -0.1302  0.2785 -0.4108
  407W        W 2607  21.181   6.413   5.236  0.2169  0.2103  0.1429
  408W        W 2608  14.947   3.742   2.775 -0.2273 -0.1359  0.0032
  409W        W 2609  19.089   4.546  25.277 -0.0474  0.0342 -0.2244
  410W        W 2610  15.068   7.522   8.103 -0.1185  0.2174 -0.0014
  411W        W 2611  24.033   4.584   9.355  0.2307  0.0804  0.0952
  412W        W 2612  27.252   3.230   6.131  0.1630  0.1124  0.1495
  413W        W 2613  12.353   5.398  10.189 -0.1614  0.0147  0.0144
  414W        W 2614   0.455   6.942   6.927 -0.0356 -0.1041  0.2154
  415W        W 2615  30.257   3.806  22.994 -0.1597  0.1837  0.0666
  416W        W 2616  25.372   3.501   1.323 -0.0517  0.3407  0.1318
  417W        W 2617   5.335   5.535   9.302 -0.0693 -0.1226 -0.1137
  418W        W 2618   8.531   7.326  24.206  0.0577  0.1170 -0.2027
  419W        W 2619  10.026   4.068  23.664 -0.1209 -0.0891 -0.0188
  420W        W 2620  25.623   4.512  18.967  0.0855 -0.2300 -0.1628
  421W        W 2621  10.965   0.181   1.822  0.0294  0.0894  0.2580
  422W        W 2622  21.845   5.429  21.923  0.1015 -0.0602 -0.2251
  423W        W 2623   2.321   2.922   7.477 -0.1151 -0.0774  0.0894
  424W        W 2624  20.762   6.854   5.894 -0.0623 -0.0532  0.3389
  425W        W 2625  17.701   2.642  20.435  0.3428 -0.0727 -0.3883
  426W        W 2626   5.907   2.866  23.916 -0.2883 -0.3338  0.0007
  427W        W 2627  18.259   2.599   7.835 -0.0198 -0.1896  0.1717
  428W        W 2628  21.390   5.908  23.514 -0.0131 -0.0871 -0.1542
  429W        W 2629  12.359   0.100   8.793  0.2128  0.2390  0.3193
  430W        W 2630   6.321   4.021  24.476 -0.3052  0.0271 -0.1533
  431W        W 2631  22.485   6.669  23.924 -0.1392  0.2112  0.1348
  432W        W 2632   6.465   5.203  16.590 -0.0408 -0.0052  0.1065
  433W        W 2633  20.831   5.325  24.302 -0.0249 -0.0083 -0.0136
  434W        W 2634   9.585   5.431  17.407 -0.0772 -0.3867 -0.0142
  435W        W 2635  11.465   5.714  18.209 -0.0264 -0.3261  0.1081
  436W        W 2636  25.434   3.190  21.843 -0.0105  0.2191  0.0456
  437W        W 2637  25.794   1.379  24.091 -0.0731  0.3295 -0.2631
  438W        W 2638  24.850   7.037  10.154 -0.1209  0.0630 -0.0698
  439W        W 2639  19.031   6.968   9.793  0.1478  0.1867 -0.1434
  440W        W 2640  12.765   3.217  22.054  0.2789  0.0097  0.2272
  441W        W 2641  11.792   5.982   1.013  0.1961  0.1362 -0.1041
  442W        W 2642  20.786   3.170  19.345 -0.1836 -0.0011  0.2633
  443W        W 2643  20.295   2.979  21.640 -0.3482 -0.0057  0.1988
  444W        W 2644  16.164   4.478  10.535 -0.0606 -0.3470 -0.0171
  445W        W 2645  11.146   3.912   4.301 -0.0883  0.2362  0.2480
  446W        W 2646  29.841   6.643   7.887 -0.1352 -0.1359  0.1017
  447W        W 2647  14.747   6.692   2.331  0.1436 -0.0237 -0.0143
  448W        W 2648  12.107   0.396  25.709 -0.2913  0.3582  0.1151
  449W        W 2649   9.616   4.853  18.316  0.0022 -0.1634  0.0169
  450W        W 2650  17.637   4.120   8.951 -0.0444  0.0618  0.1661
  451W        W 2651   7.722   3.518   2.532 -0.0257  0.4570 -0.0383
  452W        W 2652   9.983   4.671   7.930  0.0567  0.0834 -0.0867
  453W        W 2653  16.299   2.207   8.086 -0.2862 -0.1608  0.1509
  454W        W 2654   5.727   1.844   5.774  0.1748  0.1085  0.3383
  455W        W 2655  18.543   2.334   4.756  0.1280  0.0651  0.4586
  456W        W 2656  11.414   3.226  24.270 -0.1384  0.1247  0.0751
  457W        W 2657   9.292   4.973   1.890  0.2911 -0.0478  0.1312
  458W        W 2658   2.233   2.485  20.487 -0.0487  0.3126  0.3288
  459W        W 2659  16.223   0.559   5.416 -0.0773 -0.3416 -0.3182
  460W        W 2660   9.340   7.764   5.184 -0.1723 -0.1701 -0.0452
  461W        W 2661  26.330   2.751  10.351 -0.3411 -0.2416 -0.1246
  462W        W 2662  28.063   4.751  24.253 -0.0834  0.0780  0.2122
  463W        W 2663  27.681   1.852  21.665  0.0897  0.2089 -0.0369
  464W        W 2664  18.446   7.207   5.326 -0.1118  0.0330  0.0304
  465W        W 2665  21.509   1.337   0.554  0.3607  0.0765  0.0603
  466W        W 2666  22.196   6.513  21.109  0.5065  0.0916 -0.2319
  467W        W 2667   3.765   3.792   8.578  0.0190 -0.1252 -0.2668
  468W        W 2668  31.417   5.155  24.749 -0.0957 -0.0162 -0.0885
  469W        W 2669  18.846   4.760   0.595  0.2584  0.2294  0.1780
  470W        W 2670   6.588   7.098   9.390 -0.0020  0.1102 -0.3437
  471W        W 2671  30.745   4.992   0.592 -0.0870 -0.1024  0.0412
  472W        W 2672  14.898   3.526  22.518 -0.0795  0.0397  0.1481
  473W        W 2673  23.346   4.055  15.350  0.1248 -0.0940  0.0416
  474W        W 2674   7.477   6.933  24.504 -0.0829 -0.5377 -0.0541
  475W        W 2675   1.312   0.945   2.277 -0.1401  0.4193 -0.2070
  476W        W 2676  16.619   4.267   5.174 -0.1106  0.0732  0.0096
  477W        W 2677  12.392   5.822  20.496  0.1828 -0.1125  0.0524
  478W        W 2678   0.369   2.527  21.807  0.1267 -0.0045 -0.1940
  479W        W 2679  21.733   1.903  15.186 -0.6512 -0.0661 -0.1447
  480W        W 2680   6.733   6.916  19.718 -0.1588 -0.3174  0.0739
  481W        W 2681   3.401   6.625   4.979 -0.2263 -0.2590  0.1352
  482W        W 2682  12.101   4.746   4.844 -0.0094  0.1970 -0.0601
  483W        W 2683   2.469   5.467  15.875  0.0991 -0.2388  0.0018
  484W        W 2684   8.988   5.466  19.072  0.0220 -0.0619  0.1654
  485W        W 2685  12.688   4.266  15.873  0.0247  0.4346  0.2762
  486W        W 2686  20.410   0.867  10.215  0.2880  0.0645 -0.0547
  487W        W 2687   8.523   1.011  15.079 -0.0032  0.0303  0.0397
  488W        W 2688  23.858   7.417   2.854  0.0101  0.3008  0.1019
  489W        W 2689   4.151   6.733   4.750 -0.0803 -0.1118 -0.0654
  490W        W 2690   5.459   3.418  21.771 -0.0122  0.1696  0.4001
  491W        W 2691   0.687   5.570  16.252  0.1986 -0.3058 -0.3540
  492W        W 2692  23.219   5.046   5.566  0.1650  0.0983  0.2514
  493W        W 2693  13.045   1.118   0.202  0.2557 -0.3023  0.2709
  494W        W 2694  21.403   6.078  24.424 -0.3663  0.0610 -0.0201
  495W        W 2695  28.747   1.606  17.630  0.1357 -0.0891  0.2057
  496W        W 2696   9.516   5.583  22.575 -0.0049  0.1058 -0.0777
  497W        W 2697  10.030   7.803  21.951  0.0717  0.2998  0.0320
  498W        W 2698  21.034   3.499  15.065  0.0132 -0.1368  0.0103
  499W        W 2699  15.624   4.197  23.480  0.1061 -0.1591 -0.1969
  500W        W 2700   7.199   4.171  18.936  0.1469  0.3171  0.2205
  501W        W 2701   9.577   4.270  24.297 -0.3242 -0.1072 -0.0991
  502W        W 2702   9.521   3.006   1.895  0.1456 -0.1998 -0.0358
  503W        W 2703  28.095   6.121  25.635  0.0352 -0.3076 -0.0681
  504W        W 2704  21.704   5.952   3.375 -0.0857  0.2248 -0.2086
  505W        W 2705  24.846   5.454  21.211  0.3662  0.1755  0.1414
  506W        W 2706  16.063   0.156  10.506  0.2216 -0.3052 -0.1784
  507W        W 2707   7.981   2.291   1.698  0.0282  0.0050  0.0108
  508W        W 2708  30.727   3.586  25.232 -0.1883 -0.2157  0.2253
  509W        W 2709   9.054   4.843  21.402 -0.1426  0.0276  0.0468
  510W        W 2710   4.892   1.571   7.771  0.2567 -0.1917 -0.0949
  511W        W 2711  17.451   5.286   1.071  0.1509 -0.0274 -0.0361
  512W        W 2712  18.970   3.744   2.677  0.0491 -0.1065 -0.0949
  513W        W 2713   7.748   1.000  22.711  0.0666  0.1721  0.0080
  514W        W 2714  30.679   0.311  19.922 -0.1860  0.1177  0.1327
  515W        W 2715  25.357   3.377  19.922 -0.0120  0.3589 -0.1472
  516W        W 2716  15.774   1.203   1.609 -0.0263  0.0151  0.0431
  517W        W 2717  11.763   1.722   5.738  0.0818  0.1062  0.3436
  518W        W 2718  16.750   0.550  11.102 -0.2149  0.0729 -0.1114
  519W        W 2719   9.233   2.437  19.339  0.3056 -0.2015 -0.2670
  520W        W 2720   1.800   0.543  25.415 -0.0899  0.1177 -0.3327
  521W        W 2721  22.419   1.288  15.808  0.2506  0.0826  0.2591
  522W        W 2722  25.772   4.248   7.106  0.1720  0.1802  0.0596
  523W        W 2723  24.672   0.584  16.507 -0.0118  0.3943 -0.0479
  524W        W 2724  16.023   4.352  19.043 -0.1059 -0.0926 -0.0397
  525W        W 2725   1.839   7.725   6.432 -0.2009  0.0247  0.2014
  526W        W 2726  26.039   2.753  24.001 -0.1869  0.2056 -0.2278
  527W        W 2727   4.946   3.102   5.256 -0.1966  0.0726 -0.1462
  528W        W 2728  12.567   4.483   3.624  0.3804  0.0430  0.4474
  529W        W 2729  11.629   5.549   3.830  0.2186  0.0079 -0.0120
  530W        W 2730  11.802   1.595   7.490  0.0178 -0.0533  0.1206
  531W        W 2731  29.755   0.520   3.851  0.2113  0.2003  0.3352
  532W        W 2732  17.263   7.257   6.891  0.3518  0.0315  0.1168
  533W        W 2733  19.005   2.568  23.435  0.0695 -0.1267  0.0315
  534W        W 2734   5.624   5.455  14.964 -0.1063  0.2787 -0.0004
  535W        W 2735   0.076   0.457  19.258  0.2130  0.0644  0.2414
  536W        W 2736  25.451   6.374   9.309 -0.0742 -0.1005  0.1134
  537W        W 2737  17.272   3.903   3.459  0.1179  0.1148  0.2566
  538W        W 2738   4.439   7.149   9.185  0.0070 -0.1717  0.2221
  539W        W 2739   0.525   2.844  17.731  0.0281  0.0543 -0.0821
  540W        W 2740  10.400   1.836   5.546 -0.2086 -0.0639  0.1998
  541W        W 2741  26.072   3.349  15.913  0.0553  0.1027  0.1562
  542W        W 2742  19.078   5.729   7.079 -0.1507 -0.0621 -0.1745
  543W        W 2743   2.036   1.670   3.663 -0.0842 -0.4318  0.4221
  544W        W 2744  16.475   4.524   1.812  0.0609  0.0538  0.2175
  545W        W 2745   2.115   0.108  24.088  0.3156 -0.1905  0.1139
  546W        W 2746   3.967   2.907  15.627  0.4654  0.0505 -0.3515
  547W        W 2747  10.252   0.325   3.742  0.2511 -0.0951 -0.1934
  548W        W 2748  15.532   3.537   7.952  0.2786  0.0937 -0.0885
  549W        W 2749  11.621   1.138   2.542 -0.0477 -0.1319 -0.0454
  550W        W 2750  27.807   4.995  16.034  0.1301 -0.2844 -0.4358
  551W        W 2751  28.435   6.253   6.096  0.0545 -0.2570  0.0532
  552W        W 2752  18.556   4.499  19.884 -0.1767 -0.3591  0.5225
  553W        W 2753  29.502   3.376  23.890  0.2895 -0.2507  0.1013
  554W        W 2754   7.928   3.192  17.162  0.4167 -0.0254  0.4746
  555W        W 2755  17.459   4.499  18.186  0.0471 -0.0163 -0.1606
  556W        W 2756   6.785   1.066   4.320  0.0453 -0.2665  0.3201
  557W        W 2757  19.917   2.627   8.336 -0.1862  0.3876  0.0601
  558W        W 2758  18.011   3.322  25.225 -0.1212  0.1267 -0.0050
  559W        W 2759   4.347   3.807   6.402  0.1486  0.0585 -0.1490
  560W        W 2760   1.166   1.365  25.502  0.3449  0.1493 -0.0486
  561W        W 2761   8.894   3.059  16.621  0.0310 -0.0064  0.2925
  562W        W 2762  15.659   5.259   6.291 -0.0327  0.1816 -0.0575
  563W        W 2763  17.454   4.087   7.275  0.2545  0.1987 -0.0719
  564W        W 2764  14.098   5.645  20.989  0.0247  0.0391  0.4279
  565W        W 2765  20.761   3.598   0.440  0.0046 -0.1690  0.0648
  566W        W 2766  19.454   1.684  22.856  0.0919 -0.3584 -0.1926
  567W        W 2767  23.861   6.708  17.267  0.0825 -0.0991 -0.0409
  568W        W 2768  15.508   3.400   4.573 -0.3320  0.2016 -0.0207
  569W        W 2769  13.768   0.554   7.008 -0.0603  0.0230  0.0223
  570W        W 2770  26.013   4.932  22.931 -0.0230  0.1575  0.0682
  571W        W 2771  17.452   5.701   1.471  0.0158  0.0171  0.0053
  572W        W 2772  16.982   6.391  11.677  0.0654  0.1047  0.3244
  573W        W 2773  19.776   1.338   4.899 -0.2911  0.1530 -0.1079
  574W        W 2774  11.831   3.222  10.050  0.1900 -0.0598  0.0778
  575W        W 2775  16.472   3.298   8.605  0.3501 -0.1372 -0.0705
  576W        W 2776  25.634   3.684  18.208  0.0723  0.1194 -0.0193
  577W        W 2777  13.165   3.659  20.249 -0.1055 -0.1276  0.1256
  578W        W 2778  19.616   5.462  19.978 -0.2070  0.1533 -0.3969
  579W        W 2779   0.771   3.265  17.296 -0.0993  0.1010  0.0091
  580W        W 2780   6.836   0.463  18.236  0.0146 -0.1052 -0.0323
  581W        W 2781  26.709   6.334  15.782  0.1378 -0.0135  0.1710
  582W        W 2782  18.708   7.248   3.506 -0.0634  0.0258 -0.0346
  583W        W 2783  11.432   4.189   9.142 -0.0707 -0.1507  0.1536
  584W        W 2784   4.602   0.332   9.307 -0.0886 -0.0811 -0.0608
  585W        W 2785  13.747   5.677  20.165  0.1669 -0.2154 -0.0983
  586W        W 2786   9.160   6.568   0.306  0.0221 -0.1826 -0.2534
  587W        W 2787   4.628   1.367  20.282  0.2799  0.2785 -0.4033
  588W        W 2788   7.445   0.857  18.708 -0.0891 -0.1792 -0.2336
  589W        W 2789   9.903   5.197   3.048  0.3053 -0.2092 -0.1524
  590W        W 2790   2.406   4.281   6.784 -0.0895  0.1684  0.0636
  591W        W 2791  25.164   3.607   8.584 -0.0533  0.1756 -0.2065
  592W        W 2792  10.599   3.419  23.446 -0.1714  0.0273 -0.2099
  593W        W 2793  18.377   0.490  19.753  0.0511 -0.0283  0.0193
  594W        W 2794   7.259   3.974  22.203  0.0701  0.0617  0.0312
  595W        W 2795  27.447   2.180  21.378  0.1169 -0.0371  0.4420
  596W        W 2796   3.954   2.972  16.196 -0.3974  0.1479 -0.1729
  597W        W 2797   0.330   3.856  21.636 -0.0766 -0.2852 -0.1623
  598W        W 2798  29.012   5.504   8.104  0.0099  0.1750  0.0008
  599W        W 2799  31.151   4.017  18.542  0.1667 -0.0104  0.0545
  600W        W 2800   6.838   4.511  10.130 -0.1752  0.2192 -0.2279
  601W        W 2801  20.069   2.921  11.426  0.1670 -0.3247 -0.0007
  602W        W 2802  11.564   6.048  19.856  0.2076  0.4569 -0.1196
  603W        W 2803  11.102   2.923  22.809  0.0350 -0.0400 -0.0118
  604W        W 2804   5.502   4.895   2.115  0.2567  0.0081  0.0937
  605W        W 2805  14.474   6.971  22.772  0.2526 -0.0240  0.3163
  606W        W 2806  21.180   1.360  18.907 -0.1335 -0.1797 -0.0517
  607W        W 2807  23.464   6.221  18.617 -0.2613 -0.0761  0.1169
  608W        W 2808  20.782   2.512  26.043  0.1828 -0.0841  0.2362
  609W        W 2809   9.971   7.246  17.784  0.3353  0.0849 -0.2141
  610W        W 2810   9.288   3.707  19.192 -0.1775  0.0175 -0.0626
  611W        W 2811  11.862   4.371   9.064 -0.2416 -0.1526  0.2282
  612W        W 2812   5.133   6.854   6.054 -0.3636  0.1788 -0.3053
  613W        W 2813   3.275   6.094  17.866  0.0001 -0.1415 -0.0162
  614W        W 2814  15.314   4.820   5.456  0.3055 -0.0665  0.2398
  615W        W 2815  30.305   7.299   9.783 -0.0896  0.1963 -0.0305
  616W        W 2816  18.716   3.927  16.724  0.0705  0.0527 -0.4603
  617W        W 2817  16.240   4.968   1.977 -0.1203  0.4339 -0.0944
  618W        W 2818  13.654   5.998  17.947  0.0150 -0.2459 -0.0900
  619W        W 2819  26.270   5.421   7.414 -0.1052 -0.3070  0.1905
  620W        W 2820   8.120   3.932  17.832 -0.0957  0.1199 -0.2869
  621W        W 2821  20.831   5.782   0.959  0.0822 -0.0011 -0.0828
  622W        W 2822  16.835   3.212  19.835 -0.3030 -0.0177  0.0150
  623W        W 2823  28.566   5.858   4.843 -0.3479  0.0521  0.0001
  624W        W 2824  12.201   1.409  25.147  0.1251  0.1943 -0.0670
  625W        W 2825  20.406   1.676   0.639 -0.1169  0.0001  0.0798
  626W        W 2826  25.674   6.588   8.227 -0.0782 -0.0262  0.1092
  627W        W 2827  18.117   3.548   9.711  0.1593 -0.0892  0.1712
  628W        W 2828   5.886   2.114  18.773 -0.2928  0.0404 -0.0019
  629W        W 2829  27.014   2.181  25.892  0.1442  0.1624  0.1090
  630W        W 2830  23.009   1.117   7.868  0.0593 -0.0784 -0.1259
  631W        W 2831  27.917   1.682  23.800 -0.0014 -0.2089  0.0798
  632W        W 2832  18.736   1.365  25.087  0.3618 -0.0434  0.1903
  633W        W 2833   1.288   0.545  20.500 -0.0759 -0.3133 -0.3203
  634W        W 2834  11.299   1.137   6.693 -0.0855 -0.0823 -0.3060
  635W        W 2835   6.370   5.234   0.764 -0.0824 -0.0573  0.3166
  636W        W 2836  10.408   7.512   9.313 -0.2120  0.0734 -0.1330
  637W        W 2837   6.836   0.246   1.271  0.4369  0.1169 -0.0707
  638W        W 2838  16.572   5.224   8.782  0.0958  0.0787  0.1646
  639W        W 2839   0.522   2.890  22.341 -0.2244  0.2541 -0.0718
  640W        W 2840   4.085   0.012  19.366  0.3308  0.3252 -0.0294
  641W        W 2841  31.429   5.055   1.563 -0.1075 -0.0072 -0.1608
  642W        W 2842  27.145   2.148  17.767 -0.1982 -0.0928  0.0718
  643W        W 2843  14.761   7.163  21.945  0.0183  0.1646  0.0449
  644W        W 2844   2.290   7.828  18.459 -0.1343  0.0739  0.3353
  645W        W 2845  14.070   0.239   6.061  0.2059 -0.2852 -0.0331
  646W        W 2846   9.557   0.427  24.141 -0.0397 -0.1105 -0.0331
  647W        W 2847   9.885   7.186   4.101  0.1824  0.1802  0.0979
  648W        W 2848   5.000   4.458  10.819 -0.3264  0.0149  0.3262
  649W        W 2849  29.330   5.758  18.811 -0.0594 -0.0571 -0.2323
  650W        W 2850   1.860   5.818  21.314  0.2374 -0.1359 -0.2522
  651W        W 2851   4.928   2.206  17.754 -0.0497 -0.1307 -0.1732
  652W        W 2852  18.571   5.490  17.086 -0.1036 -0.3482 -0.1872
  653W        W 2853   7.711   1.118   8.111  0.1479  0.3357  0.1078
  654W        W 2854   3.700   1.426  19.410  0.3520 -0.1113  0.3783
  655W        W 2855   0.601   7.244   2.326  0.2554  0.1775  0.1223
  656W        W 2856  23.277   1.335  23.004 -0.1323  0.0686  0.0719
  657W        W 2857   7.314   1.165  22.397  0.0460 -0.0893 -0.0526
  658W        W 2858  21.151   7.626  23.769 -0.0419 -0.0616  0.0043
  659W        W 2859   1.207   3.813   3.009  0.1709 -0.1513 -0.1147
  660W        W 2860  28.613   7.449   1.960 -0.2712  0.3649 -0.0467
  661W        W 2861  28.829   4.841  17.502 -0.1386 -0.0672 -0.4102
  662W        W 2862  27.689   3.947  19.929 -0.0268 -0.0748 -0.1436
  663W        W 2863  13.909   3.498   0.550 -0.2750  0.0250 -0.1389
  664W        W 2864   3.837   5.121  24.325  0.0127  0.0791  0.0180
  665W        W 2865  14.961   0.820   7.518  0.2571 -0.0162 -0.0102
  666W        W 2866  30.719   1.717  16.699  0.0078  0.0712 -0.0740
  667W        W 2867   0.479   6.042  23.709  0.3075 -0.1904 -0.2709
  668W        W 2868  17.233   1.821  20.016  0.1610  0.0413  0.1208
  669W        W 2869  21.906   1.210  25.736  0.5091 -0.1399 -0.0739
  670W        W 2870   7.679   7.276  19.471  0.0866 -0.1134 -0.1419
  671W        W 2871   4.779   7.387   8.559 -0.0762 -0.0390 -0.0060
  672W        W 2872   0.910   0.831  21.273  0.0143 -0.1182 -0.0354
  673W        W 2873   4.292   4.649   5.780  0.0500  0.0329 -0.3871
  674W        W 2874  13.532   3.948  11.545 -0.0941 -0.2480  0.3754
  675W        W 2875   7.350   0.947  23.527  0.3409  0.0540  0.1087
  676W        W 2876  14.891   0.892  19.165 -0.2366  0.1632 -0.1130
  677W        W 2877   8.438   1.734   7.799  0.0229 -0.3423 -0.1802
  678W        W 2878   3.845   2.263   5.194 -0.1790 -0.2071 -0.2354
  679W        W 2879  11.760   4.896  18.278 -0.2212 -0.0342  0.3362
  680W        W 2880  29.761   3.724   8.049 -0.3104  0.2133  0.1874
  681W        W 2881   1.171   7.231   5.933  0.4399  0.2128 -0.0150
  682W        W 2882   3.356   3.508  23.814 -0.2015  0.1477 -0.2073
  683W        W 2883  18.376   0.502   6.408 -0.2248 -0.1251 -0.2417
  684W        W 2884  16.187   1.590  17.294 -0.1169  0.0898 -0.0375
  685W        W 2885  10.076   2.518  19.259  0.0006  0.2517  0.1243
  686W        W 2886  16.355   4.801  10.879  0.1306 -0.1382 -0.1207
  687W        W 2887  10.324   0.042  21.585  0.1963 -0.1370  0.3065
  688W        W 2888  30.849   1.989   2.373  0.2327  0.0318  0.0758
  689W        W 2889  22.686   7.397   6.946 -0.0187 -0.1148  0.3191
  690W        W 2890  26.796   4.945   2.342 -0.0579 -0.0006 -0.0975
  691W        W 2891  13.079   4.304   3.981 -0.2771  0.3380  0.2760
  692W        W 2892  13.588   5.705   3.295  0.3201  0.1238 -0.1118
  693W        W 2893   4.172   6.875  19.277 -0.1250  0.1892 -0.0049
  694W        W 2894  22.709   4.580   8.591 -0.0465  0.0995 -0.1004
  695W        W 2895  17.079   0.768  15.464 -0.0152 -0.0257 -0.1732
  696W        W 2896  28.165   1.804  15.135  0.0668  0.4066  0.2245
  697W        W 2897   1.653   7.786   3.068 -0.3063 -0.1946 -0.0788
  698W        W 2898   2.426   2.938  16.926  0.1284 -0.0420  0.1676
  699W        W 2899   1.505   1.772  10.518  0.2749 -0.0151 -0.0171
  700W        W 2900   1.209   2.735  22.934 -0.2378 -0.0864  0.0108
  701W        W 2901  28.050   1.995   2.771 -0.0591 -0.2043  0.0727
  702W        W 2902  14.129   2.510  24.574  0.0521 -0.1848 -0.1333
  703W        W 2903  18.042   3.590  24.544 -0.0554  0.1607 -0.0281
  704W        W 2904  19.959   3.639   3.202 -0.1133 -0.0250 -0.1271
  705W        W 2905  12.976   1.381   3.103  0.0016  0.2869 -0.2213
  706W        W 2906  28.653   7.162  23.232  0.0825  0.2268 -0.0323
  707W        W 2907  25.970   1.078  21.528  0.2667  0.0751  0.0759
  708W        W 2908  15.312   0.867   2.420 -0.0842 -0.1494  0.2527
  709W        W 2909  18.821   1.859   4.528 -0.1399 -0.3941 -0.1055
  710W        W 2910   8.479   4.646   5.042 -0.1435 -0.0512  0.0999
  711W        W 2911  31.044   6.572   1.348 -0.0415  0.0889  0.4056
  712W        W 2912  26.736   0.697  25.002 -0.1592 -0.0860 -0.4539
  713W        W 2913  14.239   4.795   9.710 -0.0761 -0.1752  0.3448
  714W        W 2914  25.946   5.383  24.454 -0.4084 -0.3176 -0.0969
  715W        W 2915  23.328   2.590   5.313  0.2317 -0.1592  0.0990
  716W        W 2916  17.857   7.341  11.229  0.0795  0.1287 -0.0184
  717W        W 2917  28.500   5.430   0.092  0.2735 -0.4117 -0.1406
  718W        W 2918   9.932   5.587   3.353  0.1566 -0.0544  0.3859
  719W        W 2919  12.651   7.239   4.386 -0.1195  0.1787 -0.0790
  720W        W 2920  20.167   5.074  17.926 -0.0166 -0.2469 -0.1529
  721W        W 2921  16.812   6.942  18.296  0.1331  0.1832 -0.0245
  722W        W 2922  24.480   5.709  23.263 -0.0346  0.0719 -0.0464
  723W        W 2923  24.705   3.410  19.557  0.2343  0.2518  0.0650
  724W        W 2924  15.351   1.306   1.303 -0.2732 -0.2847 -0.1114
  725W        W 2925  16.558   0.005  19.343 -0.1132 -0.3481 -0.1069
  726W        W 2926  23.278   7.278  24.309 -0.1963 -0.0364  0.1064
  727W        W 2927   8.735   5.830   9.771 -0.1409  0.1668  0.1459
  728W        W 2928  14.534   2.761  22.322 -0.2352 -0.0512 -0.4578
  729W        W 2929  10.759   1.535  22.625  0.0690 -0.1743  0.0451
  730W        W 2930  22.643   6.884   6.715 -0.2534  0.1228 -0.0847
  731W        W 2931  20.009   5.888   0.492 -0.0034 -0.1018  0.5249
  732W        W 2932  10.543   4.293   5.705  0.2710  0.3672 -0.1488
  733W        W 2933  29.282   4.083   0.567  0.1960  0.2309  0.0450
  734W        W 2934  20.813   5.778   3.140 -0.1388  0.1932  0.0569
  735W        W 2935   8.981   5.260  21.971  0.3230  0.1642 -0.1525
  736W        W 2936  23.846   3.400   8.987 -0.1540  0.0472  0.1162
  737W        W 2937   2.480   1.334  15.201  0.2212  0.1541 -0.2559
  738W        W 2938  26.397   6.795   7.777 -0.3582  0.1608 -0.0944
  739W        W 2939  10.454   5.155  24.108 -0.1954  0.0717  0.1686
  740W        W 2940  11.540   4.691  18.718 -0.1445  0.1883  0.0656
  741W        W 2941  15.873   7.144  18.676  0.2493  0.0049  0.2189
  742W        W 2942  13.073   2.949   5.510  0.2938 -0.1603 -0.0770
  743W        W 2943  25.984   0.758   9.210 -0.0346  0.2336  0.2137
  744W        W 2944  14.006   5.998   4.338  0.1202 -0.1034 -0.2769
  745W        W 2945  22.230   0.516  25.004 -0.1820  0.1970 -0.0350
  746W        W 2946  29.689   3.744   7.476 -0.0332  0.2604  0.2168
  747W        W 2947  30.684   3.844   1.194 -0.0268 -0.4741 -0.1114
  748W        W 2948   3.830   2.058  16.218  0.1157  0.0112  0.0362
  749W        W 2949   6.446   5.942   4.415 -0.2497  0.0604 -0.1073
  750W        W 2950  12.086   0.301   9.536 -0.0655  0.3783 -0.1464
  751W        W 2951   7.648   1.308   9.009  0.2316  0.2998  0.3554
  752W        W 2952  17.900   6.640  17.825 -0.5088  0.2071 -0.3053
  753W        W 2953  22.617   6.131   0.880  0.1567  0.0896  0.0157
  754W        W 2954  30.145   6.815  24.927  0.1590  0.2356  0.0419
  755W        W 2955  10.442   3.349  22.977 -0.1338  0.2789  0.2984
  756W        W 2956  12.618   2.278  10.804 -0.4800  0.0792  0.0618
  757W        W 2957  27.905   1.518   7.737  0.1529  0.4256  0.1550
  758W        W 2958  25.653   4.164  22.398 -0.1590 -0.3338 -0.0442
  759W        W 2959   3.596   2.425   0.732  0.2330  0.0670 -0.1458
  760W        W 2960  23.662   4.120  22.498 -0.1311  0.1388 -0.1286
  761W        W 2961  27.511   5.419   8.997 -0.1473  0.1782 -0.0093
  762W        W 2962  18.778   3.338   7.561  0.0179  0.1175  0.3339
  763W        W 2963   0.176   1.884   8.761  0.0279 -0.1161  0.0272
  764W        W 2964  17.793   4.288  17.687  0.2141 -0.1129  0.1573
  765W        W 2965   8.965   0.334  23.808 -0.1113 -0.0427  0.2261
  766W        W 2966   6.682   2.952   9.530 -0.0104 -0.0631  0.1639
  767W        W 2967  10.368   3.365   2.844  0.1284  0.2292 -0.0678
  768W        W 2968  19.528   2.397   4.663 -0.2854 -0.0331  0.0878
  769W        W 2969   7.738   6.062  20.922  0.2806  0.2450  0.2112
  770W        W 2970   9.590   2.751   7.982 -0.1583 -0.1577  0.1277
  771W        W 2971  28.316   3.495   8.538  0.0183 -0.0110  0.4394
  772W        W 2972  18.129   0.879   1.619 -0.2511 -0.0451 -0.0131
  773W        W 2973  25.609   7.362  25.692  0.0938  0.1511 -0.2271
  774W        W 2974  23.358   3.218   3.719  0.2225 -0.0615 -0.0092
  775W        W 2975  20.674   4.826   3.888  0.0647  0.2003 -0.0622
  776W        W 2976   1.065   7.434   1.625  0.0768 -0.1124 -0.2806
  777W        W 2977  26.810   1.835   0.801  0.0339  0.2535  0.0854
  778W        W 2978  11.730   2.392   0.439  0.0512 -0.1702 -0.0045
  779W        W 2979  21.954   0.979   0.070 -0.2063 -0.0194 -0.1808
  780W        W 2980   9.204   4.212   8.025  0.2264  0.3135  0.0990
  781W        W 2981   7.348   0.358  20.894  0.0907  0.1638  0.1378
  782W        W 2982   3.291   4.335   0.446 -0.0202  0.0080 -0.0380
  783W        W 2983  14.466   7.603  17.039  0.0176 -0.0900 -0.3000
  784W        W 2984  31.439   0.078   4.346 -0.0655 -0.1986  0.2254
  785W        W 2985   9.692   1.893  20.557  0.1132  0.1788 -0.0205
  786W        W 2986  21.458   1.951  16.120 -0.0782  0.0045  0.1075
  787W        W 2987  19.463   6.068   9.982 -0.1842  0.2150 -0.0645
  788W        W 2988  22.475   6.137   3.700  0.0169 -0.0829 -0.0993
  789W        W 2989  27.277   0.470   3.534 -0.4002 -0.0200  0.1864
  790W        W 2990  21.463   2.780  21.114 -0.1067 -0.1243  0.1637
  791W        W 2991  17.181   3.342  25.249  0.0110  0.1231  0.2542
  792W        W 2992  19.612   5.811   1.800  0.0539  0.1560 -0.3347
  793W        W 2993  22.191   6.119  20.701  0.0894  0.2882  0.0589
  794W        W 2994  18.759   5.372  10.376  0.3430  0.1253  0.4316
  795W        W 2995  29.321   3.788  23.637 -0.0082  0.1688 -0.0073
  796W        W 2996  29.105   6.931   6.359 -0.0189 -0.0784 -0.1991
  797W        W 2997  19.077   1.644   7.037  0.0812  0.4091 -0.0287
  798W        W 2998  18.410   7.421  24.972  0.0847 -0.0706  0.2049
  799W        W 2999   2.411   7.364   5.960  0.1317  0.3544 -0.1730
  800W        W 3000  25.964   6.039  23.368  0.0536 -0.0196 -0.0276
  801W        W 3001  14.315   2.367  16.997  0.1994 -0.2750  0.0086
  802W        W 3002   6.977   4.805  17.319 -0.0286  0.1527 -0.0084
  803W        W 3003   2.232   3.883  25.619  0.2283  0.1172  0.1188
  804W        W 3004  22.875   2.853  16.869  0.2030 -0.0738  0.1260
  805W        W 3005   3.907   0.139   4.006  0.2872 -0.0437  0.2100
  806W        W 3006  13.702   0.173   7.831  0.0888  0.0298  0.3070
  807W        W 3007  27.285   1.733   1.133  0.2171  0.3986  0.5617
  808W        W 3008  29.811   4.005  25.967 -0.0522 -0.1071 -0.0832
  809W        W 3009  28.631   1.359   4.470  0.2524  0.1567  0.0835
  810W        W 3010   3.090   1.226   4.005  0.0626  0.0102  0.0058
  811W        W 3011  20.398   4.842  16.110  0.0949 -0.0768  0.2097
  812W        W 3012  17.052   3.794   1.449 -0.4431 -0.2170  0.3123
  813W        W 3013  11.835   1.512   0.277  0.0021 -0.1268  0.0347
  814W        W 3014   7.024   2.791  23.829  0.3507  0.0480  0.0497
  815W        W 3015   2.176   5.456   6.418  0.0394 -0.0411  0.0723
  816W        W 3016  12.877   2.007  25.442 -0.2881  0.0178  0.0800
  817W        W 3017  12.949   3.638  21.865 -0.2681 -0.4352 -0.1289
  818W        W 3018   6.937   4.918   7.996  0.0298  0.0310 -0.1797
  819W        W 3019   8.297   7.841  20.950  0.1289  0.0857 -0.0609
  820W        W 3020  24.311   1.268  20.234 -0.2483 -0.3091 -0.0052
  821W        W 3021   1.204   5.556  21.643 -0.1177  0.0271 -0.0644
  822W        W 3022   0.920   6.825  24.628  0.0396  0.2932 -0.0267
  823W        W 3023   3.884   3.385   0.349 -0.2504 -0.0449 -0.0999
  824W        W 3024  18.124   4.695  19.962  0.0573 -0.0565 -0.0681
  825W        W 3025  16.825   7.578   5.176 -0.1945 -0.1001 -0.1640
  826W        W 3026  16.194   6.526  25.353 -0.0482 -0.1212  0.2789
  827W        W 3027   3.172   1.367   8.108  0.0381  0.1170 -0.1979
  828W        W 3028  23.323   7.664  10.871 -0.1169  0.0021 -0.1747
  829W        W 3029  13.649   4.440  20.644  0.1662 -0.0059  0.1813
  830W        W 3030  30.914   0.655   2.947  0.2684 -0.2667 -0.2805
  831W        W 3031   0.703   5.215  20.129 -0.1012 -0.1869 -0.3358
  832W        W 3032   5.205   6.246  23.171 -0.0438 -0.1948 -0.1279
  833W        W 3033  22.721   0.934   0.866  0.1782 -0.3576 -0.2804
  834W        W 3034  30.784   7.072  19.572 -0.0139  0.1463 -0.0740
  835W        W 3035   4.869   5.435  21.964  0.3104  0.2184  0.1417
  836W        W 3036   7.435   1.667  19.042  0.2527  0.0543 -0.2402
  837W        W 3037   9.085   3.646   3.866 -0.2340  0.0344  0.0055
  838W        W 3038   5.606   5.773  23.577  0.1369 -0.2845 -0.0146
  839W        W 3039  17.484   5.376  15.346 -0.1568  0.0514  0.0320
  840W        W 3040  21.316   1.545  20.435 -0.2038 -0.2284 -0.0293
  841W        W 3041   6.793   4.742   3.721 -0.2183 -0.1256  0.3497
  842W        W 3042  27.988   3.557   2.041 -0.0635  0.1764 -0.1504
  843W        W 3043   0.128   3.426   3.843 -0.0184  0.0389 -0.1494
  844W        W 3044  22.877   5.295  21.728  0.1206 -0.3036  0.2549
  845W        W 3045   4.138   6.695  21.932 -0.2951 -0.0245 -0.1389
  846W        W 3046   2.852   5.780  16.015 -0.3317 -0.2050 -0.0240
  847W        W 3047  12.922   6.597  18.903 -0.0885  0.0400  0.2034
  848W        W 3048  23.519   7.796  18.412 -0.2140  0.1962 -0.3610
  849W        W 3049  25.901   3.866  20.221 -0.1763  0.2918 -0.0450
  850W        W 3050  28.498   2.168   0.468 -0.0921 -0.0460  0.0425
  851W        W 3051  28.176   0.105  22.393  0.0748 -0.1941 -0.1175
  852W        W 3052   6.874   4.161  20.262 -0.4203 -0.2557 -0.3581
  853W        W 3053  13.029   4.652   8.407 -0.2124 -0.0473  0.3431
  854W        W 3054  19.150   2.361  17.461  0.1059  0.2413 -0.0040
  855W        W 3055   7.881   4.169   3.026 -0.1213 -0.2445 -0.1205
  856W        W 3056   5.556   7.651   0.924 -0.1046 -0.0707 -0.0007
  857W        W 3057  28.578   4.293   6.416  0.1287  0.0308 -0.1828
  858W        W 3058   6.787   6.234  23.639  0.2109  0.0802 -0.0623
  859W        W 3059   1.078   0.650  16.802 -0.3354  0.2813  0.1482
  860W        W 3060  29.967   7.709  25.619  0.0705 -0.1455  0.1535
  861W        W 3061   4.018   7.463  15.327  0.1215 -0.3041 -0.1011
  862W        W 3062  26.430   0.506   3.036  0.0068  0.0271 -0.2348
  863W        W 3063  16.289   0.242   4.785 -0.1377  0.0005  0.0629
  864W        W 3064  21.517   0.474  18.373  0.1361  0.3272 -0.0022
  865W        W 3065  18.640   0.020   6.158  0.3171  0.0473  0.0919
  866W        W 3066   7.842   1.966   3.989 -0.3362 -0.0137 -0.2105
  867W        W 3067   8.357   2.246  19.145  0.0595 -0.0287  0.2273
  868W        W 3068  24.033   3.613  16.003 -0.4516  0.0238 -0.0602
  869W        W 3069  22.394   0.033   2.231 -0.2200  0.1856 -0.2474
  870W        W 3070  13.998   6.978  25.058  0.0232  0.1603 -0.1079
  871W        W 3071  20.765   3.343  23.580  0.0693 -0.0944 -0.2135
  872W        W 3072  14.592   7.424  25.885 -0.0426 -0.1024  0.1761
  873W        W 3073  10.718   2.633   0.270 -0.1313  0.0653  0.1164
  874W        W 3074  23.665   4.903   9.524  0.1531 -0.3151 -0.1155
  875W        W 3075   2.048   5.059   2.762  0.0939  0.1138  0.0812
  876W        W 3076  13.473   3.373  25.593  0.1971 -0.1368  0.1626
  877W        W 3077  11.831   0.829   0.388 -0.1346  0.2064  0.1777
  878W        W 3078  25.031   7.721   9.355  0.1997  0.1774 -0.2361
  879W        W 3079  31.389   6.090  18.787 -0.1085  0.1189 -0.0108
  880W        W 3080   3.802   5.096   1.653 -0.1041  0.0943 -0.1126
  881W        W 3081  12.601   4.406  22.920  0.0017  0.0425 -0.0576
  882W        W 3082  16.646   4.429  25.618  0.3931 -0.2477  0.1633
  883W        W 3083  23.986   5.350  10.623  0.0947 -0.1920 -0.0266
  884W        W 3084   4.559   4.313   4.271  0.0585 -0.1944  0.2111
  885W        W 3085  30.087   1.780  24.254  0.0422  0.0320  0.0794
  886W        W 3086  16.287   1.775   5.497  0.0629  0.0662 -0.0145
  887W        W 3087  20.913   2.084  10.320  0.0846 -0.0587  0.0405
  888W        W 3088  26.618   4.838   5.819 -0.0088  0.2613  0.2176
  889W        W 3089   2.940   6.554   1.247 -0.0092  0.0796 -0.1358
  890W        W 3090  27.555   5.806   1.674  0.2721 -0.1148  0.0412
  891W        W 3091  21.368   6.422   9.988  0.0121 -0.0113  0.0559
  892W        W 3092  19.157   4.497  22.888  0.3429 -0.4164 -0.0329
  893W        W 3093  16.573   1.797   7.571 -0.1931  0.2577 -0.0390
  894W        W 3094   2.008   3.758   4.101  0.1003 -0.0778 -0.1711
  895W        W 3095  20.946   2.924  19.720  0.0430  0.0076 -0.1374
  896W        W 3096  26.643   7.310  18.944  0.2214  0.0411  0.1888
  897W        W 3097  12.716   0.533  23.278  0.3588  0.0651  0.1674
  898W        W 3098  22.188   0.128  18.053  0.2202 -0.0997 -0.1292
  899W        W 3099  10.197   5.020  16.194  0.1459 -0.1048  0.1155
  900W        W 3100  29.424   1.761  18.040 -0.2886 -0.3264 -0.4407
  901W        W 3101  19.967   4.487   0.292 -0.0394 -0.4084  0.2352
  902W        W 3102  17.821   3.299   4.061  0.1086  0.0339 -0.2475
  903W        W 3103   0.939   2.738   1.238  0.0127  0.0442  0.3648
  904W        W 3104   0.516   2.496  18.479  0.3498 -0.2941 -0.0616
  905W        W 3105  31.338   1.987   6.948  0.2146 -0.0418  0.0130
  906W        W 3106   1.921   5.342   0.241  0.0991 -0.3179  0.0281
  907W        W 3107  27.924   0.057  16.924 -0.1919 -0.2193  0.0003
  908W        W 3108   9.419   6.437  24.677 -0.0585  0.0259  0.0165
  909W        W 3109  18.124   0.602  20.811  0.1258  0.1380 -0.1099
  910W        W 3110   3.747   1.828   9.564  0.2570 -0.1136 -0.2190
  911W        W 3111   2.553   1.953  22.543 -0.1328  0.2730 -0.1570
  912W        W 3112  25.262   4.203  23.134 -0.1897 -0.1574  0.1262
  913W        W 3113  31.296   7.358   4.697  0.0633  0.1344  0.0183
  914W        W 3114  10.818   4.506   3.803 -0.0755  0.0544 -0.0544
  915W        W 3115  24.523   3.839  25.325  0.0043 -0.0240  0.0305
  916W        W 3116   5.526   4.436   5.298 -0.0168 -0.1872  0.1204
  917W        W 3117  30.342   0.320   8.800 -0.1645 -0.1341  0.0064
  918W        W 3118  20.037   7.738  19.179  0.0535 -0.1689 -0.0648
  919W        W 3119   1.563   7.426   3.882 -0.0145 -0.1216 -0.0095
  920W        W 3120  28.645   4.864   0.975 -0.1479  0.0298 -0.3992
  921W        W 3121  12.876   7.002  17.286 -0.0338 -0.1601 -0.1799
  922W        W 3122  19.366   2.393   5.735  0.2910  0.0358  0.0079
  923W        W 3123  15.814   0.287  22.209 -0.0876 -0.3689 -0.1202
  924W        W 3124  12.076   2.365  15.474 -0.1951  0.1027 -0.0898
  925W        W 3125  20.095   0.602  24.443 -0.0310  0.3634 -0.0402
  926W        W 3126  21.625   7.421  18.141 -0.2376 -0.1314  0.2224
  927W        W 3127   0.260   5.895   1.658  0.0533 -0.2343  0.1342
  928W        W 3128  25.579   1.003  23.515 -0.1077  0.1668 -0.0758
  929W        W 3129  25.290   0.626  20.147  0.0168 -0.2783 -0.0712
  930W        W 3130   2.239   6.841   7.361 -0.1102  0.4685 -0.0738
  931W        W 3131   1.458   4.450  16.907 -0.1493  0.1969  0.1114
  932W        W 3132  24.308   2.344  22.119  0.2530  0.0820 -0.0542
  933W        W 3133   0.779   2.129  16.208  0.0195 -0.2500  0.0126
  934W        W 3134  27.758   0.993   0.208 -0.3599 -0.0632 -0.0930
  935W        W 3135   5.664   0.494  23.905 -0.1133  0.1110 -0.1020
  936W        W 3136   3.640   5.056   6.293 -0.2670  0.0883  0.0220
  937W        W 3137   9.722   3.614   8.618  0.3699  0.1550 -0.1640
  938W        W 3138   6.041   6.386   9.142  0.2644 -0.0539  0.0590
  939W        W 3139  18.766   7.552   7.912  0.0090 -0.0539 -0.1600
  940W        W 3140   2.297   0.296   8.849 -0.0674  0.1617 -0.2633
  941W        W 3141  30.814   6.632   9.855  0.1410  0.1127  0.1359
  942W        W 3142  26.191   0.571  16.303 -0.0226 -0.0879 -0.1594
  943W        W 3143  28.746   1.969  17.300 -0.1525  0.3002 -0.0808
  944W        W 3144  30.573   7.284  23.315 -0.1204  0.2344 -0.0322
  945W        W 3145   1.281   0.447  21.474 -0.3678 -0.1333 -0.0288
  946W        W 3146   5.324   5.412   8.343  0.1027  0.3141  0.0954
  947W        W 3147  29.042   3.851  18.657 -0.1268 -0.1276  0.1571
  948W        W 3148  29.435   0.134   5.206 -0.2363 -0.1156 -0.0947
  949W        W 3149  13.598   2.983  10.121  0.0433 -0.1171  0.0760
  950W        W 3150  16.613   7.367  19.182 -0.0876 -0.6009  0.1200
  951W        W 3151   2.696   3.401  17.805  0.1626  0.3518 -0.0856
  952W        W 3152  26.778   5.140   0.352 -0.2210 -0.0014  0.1172
  953W        W 3153   9.341   5.377  16.355 -0.1685  0.1338  0.1669
  954W        W 3154  12.014   3.463   9.083  0.1364  0.0520 -0.2235
  955W        W 3155  16.599   1.782  19.476  0.4497 -0.2652 -0.0462
  956W        W 3156  27.596   2.440  17.424  0.1103 -0.0414 -0.1748
  957W        W 3157  23.568   5.241   0.161 -0.0870 -0.3384 -0.0903
  958W        W 3158  22.810   2.155   7.672 -0.1497 -0.1149 -0.2782
  959W        W 3159   7.022   6.726   5.202 -0.1336  0.0502  0.1554
  960W        W 3160   4.928   2.770  10.416 -0.1951 -0.2007  0.1737
  961W        W 3161  12.833   0.891  10.546  0.1735 -0.0331 -0.0498
  962W        W 3162  14.648   1.332  18.439  0.2590  0.0282  0.1990
  963W        W 3163   6.230   1.916   9.020 -0.2252  0.2507 -0.0717
  964W        W 3164  21.063   7.266  10.718 -0.2462 -0.1842  0.0511
  965W        W 3165  14.248   2.759  18.197  0.0495 -0.0814  0.1550
  966W        W 3166  15.493   1.321  18.966 -0.2204  0.2990 -0.0661
  967W        W 3167  10.049   4.064   9.940  0.1759  0.0937 -0.1167
  968W        W 3168  11.906   4.184   2.886 -0.1203  0.0065 -0.0281
  969W        W 3169  14.942   1.544   9.648 -0.2549  0.3928 -0.0381
  970W        W 3170  13.930   3.267  10.864 -0.0881  0.0667 -0.1811
  971W        W 3171  27.335   6.285  24.442 -0.2150 -0.0115 -0.0283
  972W        W 3172  19.513   1.277  11.794 -0.0164  0.0917  0.1247
  973W        W 3173  24.599   4.812  21.701 -0.1037  0.1011  0.2931
  974W        W 3174  13.100   3.524  16.281 -0.1757 -0.1894 -0.0631
  975W        W 3175   0.585   5.595  26.033  0.1189  0.0117 -0.0320
  976W        W 3176  22.685   7.816   5.244 -0.4213  0.1395 -0.3887
  977W        W 3177  29.960   3.210   1.154  0.0923 -0.1495  0.0702
  978W        W 3178  10.511   2.195  19.378  0.2460  0.1603 -0.1164
  979W        W 3179  30.097   2.991  16.946  0.2599  0.0821 -0.2355
  980W        W 3180  13.902   5.662  26.058  0.1116 -0.0947  0.1941
  981W        W 3181   2.451   7.306   4.990  0.0021 -0.0046  0.1353
  982W        W 3182  15.733   6.977  17.798  0.0104  0.1089  0.0106
  983W        W 3183  24.049   4.943   2.428 -0.0934 -0.4078 -0.4561
  984W        W 3184  11.595   1.901   0.501  0.0997 -0.0571 -0.1217
  985W        W 3185   8.468   7.716   1.063  0.1414  0.0818  0.1513
  986W        W 3186  25.488   3.357  24.902  0.1637 -0.0518 -0.1058
  987W        W 3187  25.271   2.398   8.006  0.1525 -0.0685 -0.2167
  988W        W 3188  19.930   0.810   4.064 -0.0572 -0.2197  0.0932
  989W        W 3189  26.043   6.715  16.012 -0.0763  0.2171 -0.0559
  990W        W 3190  26.142   1.122   8.336  0.0801  0.2147 -0.0527
  991W        W 3191   7.248   6.373  18.549  0.0886 -0.3008  0.3577
  992W        W 3192   5.553   6.013   4.245  0.1108 -0.0703  0.2946
  993W        W 3193  19.259   7.137   2.633 -0.0335 -0.0815 -0.1604
  994W        W 3194   1.375   3.134   8.541  0.2202 -0.0218 -0.2623
  995W        W 3195   7.083   2.436  19.310  0.2434  0.4197 -0.0431
  996W        W 3196  28.647   4.282   4.054  0.2103 -0.2766 -0.1844
  997W        W 3197  12.200   1.672  25.935  0.1849 -0.0072  0.0405
  998W        W 3198  16.931   0.295  19.162  0.3036  0.3391 -0.0387
  999W        W 3199  12.824   6.325  15.848 -0.0223  0.2264 -0.2569
 1000W        W 3200  25.580   5.308  24.794 -0.0279 -0.4448  0.0762
 1001W        W 3201  19.945   2.158  19.340  0.2360  0.1049  0.0885
 1002W        W 3202  11.702   7.020  10.769 -0.2702  0.0497 -0.2438
 1003W        W 3203  22.301   6.658  16.227 -0.3177 -0.2003 -0.0467
 1004W        W 3204  28.315   4.798   8.952  0.1299 -0.2282 -0.2153
 1005W        W 3205   7.759   6.546   2.956 -0.1295 -0.1381 -0.0833
 1006W        W 3206  24.719   0.813   6.605 -0.2323  0.1488 -0.0280
 1007W        W 3207  21.094   7.087   1.811  0.0926  0.0430  0.0614
 1008W        W 3208  15.482   3.923   8.272  0.1594  0.0169  0.2175
 1009W        W 3209  23.638   5.502   5.725 -0.1910 -0.1299 -0.0478
 1010W        W 3210  21.323   4.172   7.391 -0.1911 -0.1379 -0.3219
 1011W        W 3211  17.702   6.620  10.686 -0.0172  0.2203  0.1406
 1012W        W 3212  19.876   5.461  18.163 -0.1547 -0.1057  0.4863
 1013W        W 3213  15.457   0.446  15.589  0.0607 -0.1226 -0.2879
 1014W        W 3214  15.591   6.514   9.552 -0.0025 -0.1615 -0.1567
 1015W        W 3215   2.074   1.136   9.235  0.2835 -0.0089  0.4866
 1016W        W 3216  10.418   7.036   0.529 -0.0395 -0.1782 -0.2157
 1017W        W 3217  18.676   4.150   9.014  0.1170  0.3272  0.2860
 1018W        W 3218  12.035   7.126  22.751 -0.2474 -0.0795 -0.2215
 1019W        W 3219  28.769   5.727  10.982  0.0360  0.1003 -0.1156
 1020W        W 3220   2.655   2.409  16.202  0.1584 -0.0270  0.0419
 1021W        W 3221   6.408   1.617  23.190 -0.1147 -0.1139  0.1488
 1022W        W 3222  23.759   2.752  24.033  0.2593  0.0436 -0.0283
 1023W        W 3223   0.999   1.930  17.521  0.0767 -0.2476  0.4181
 1024W        W 3224  10.533   0.223  11.620  0.1646 -0.0101  0.0217
 1025W        W 3225  10.245   4.664  20.798 -0.2177 -0.2107  0.1816
 1026W        W 3226   3.355   1.880  23.461  0.2821 -0.1500 -0.0173
 1027W        W 3227   2.114   3.199  23.139  0.1430  0.1599 -0.0415
 1028W        W 3228   8.648   3.466  24.043  0.2814 -0.0500  0.2293
 1029W        W 3229  16.325   7.798  17.676 -0.2043  0.1639  0.0710
 1030W        W 3230   5.758   4.808   3.605 -0.0205  0.2864  0.2075
 1031W        W 3231  23.695   5.624  24.392  0.2028 -0.0657 -0.2046
 1032W        W 3232   2.338   1.426   9.650  0.0538  0.0880  0.0470
 1033W        W 3233  21.172   7.813   7.225  0.0651 -0.0176 -0.0355
 1034W        W 3234  11.759   6.447   1.371  0.0945  0.0252 -0.2974
 1035W        W 3235   2.753   1.700  19.563 -0.2733  0.0937 -0.3973
 1036W        W 3236   6.335   3.466  16.250  0.0147 -0.3281 -0.2447
 1037W        W 3237  16.899   1.505   7.997  0.0397  0.3017  0.1807
 1038W        W 3238  23.662   7.551   2.115  0.1758  0.3044  0.0058
 1039W        W 3239   0.531   6.465  16.112 -0.0002 -0.0252 -0.1045
 1040W        W 3240  24.076   7.440  10.668  0.0992  0.2083 -0.0821
 1041W        W 3241  20.670   1.909   4.051  0.0304  0.0080  0.0165
 1042W        W 3242  25.604   6.923  23.349 -0.0630  0.0138 -0.1622
 1043W        W 3243  21.061   0.504  18.507  0.1650 -0.0309  0.0580
 1044W        W 3244  14.204   6.244   4.822  0.2134  0.1739  0.0916
 1045W        W 3245  31.423   3.885  17.435 -0.1525  0.1797  0.0951
 1046W        W 3246  14.464   6.663  16.571  0.2388 -0.1002  0.0109
 1047W        W 3247   0.917   3.416  18.657 -0.0092  0.0581 -0.1876
 1048W        W 3248   7.085   4.823   1.113  0.0170 -0.0598 -0.2229
 1049W        W 3249  30.023   5.262   4.987  0.2796 -0.0701 -0.1346
 1050W        W 3250   3.654   5.365   2.042  0.1527  0.1016  0.0252
 1051W        W 3251   8.537   7.488  10.114 -0.2723  0.2428  0.1302
 1052W        W 3252   8.868   2.956   3.081 -0.2821  0.1764 -0.1024
 1053W        W 3253  20.933   4.653  16.382  0.1975  0.0448 -0.2579
 1054W        W 3254  25.020   2.578  19.302  0.0195 -0.3187 -0.0228
 1055W        W 3255   5.601   2.791   4.234 -0.0996  0.1433  0.1842
 1056W        W 3256   0.232   7.584   0.542 -0.1828  0.2284  0.0404
 1057W        W 3257  15.977   4.282   6.000 -0.2345 -0.0510  0.3653
 1058W        W 3258   1.194   2.185  10.637 -0.0514 -0.0545 -0.0511
 1059W        W 3259   0.066   0.186  20.495 -0.2002  0.0137 -0.0920
 1060W        W 3260  31.151   0.010  17.473 -0.2931 -0.1171 -0.0539
 1061W        W 3261  20.967   6.189  21.815  0.0863 -0.1640 -0.0320
 1062W        W 3262  24.756   5.095  17.995 -0.2242 -0.0415  0.2162
 1063W        W 3263   7.707   5.444   5.611 -0.0525 -0.0095 -0.0676
 1064W        W 3264  28.082   3.940  25.662  0.3695 -0.1912  0.0257
 1065W        W 3265  11.348   5.024   4.281 -0.3324  0.0053  0.1244
 1066W        W 3266  10.263   5.253   0.488  0.0456 -0.2366 -0.1656
 1067W        W 3267   1.597   5.469   5.102 -0.2523 -0.0012 -0.1217
 1068W        W 3268   6.001   6.915   9.965 -0.1066 -0.0051 -0.0406
 1069W        W 3269  24.066   5.879  18.152  0.1780 -0.1454 -0.2068
 1070W        W 3270  20.645   5.274   2.397  0.0227 -0.0430 -0.0833
 1071W        W 3271  17.155   5.268  20.389 -0.1791  0.0904 -0.1224
 1072W        W 3272  13.565   4.925   6.619 -0.1708 -0.0867  0.1588
 1073W        W 3273  20.275   0.172   3.685  0.0963 -0.1513  0.1640
 1074W        W 3274  21.505   3.745  18.677 -0.0367 -0.1915  0.1482
 1075W        W 3275  27.138   6.780  19.717 -0.1033  0.3139  0.0788
 1076W        W 3276   5.566   1.974  24.925  0.1920  0.3200  0.0234
 1077W        W 3277   1.356   4.452  24.999  0.1953 -0.0507  0.0172
 1078W        W 3278   7.150   5.167  24.027  0.3417 -0.4281 -0.0005
 1079W        W 3279  25.619   6.000  20.279 -0.2287 -0.1210  0.0740
 1080W        W 3280  28.312   5.198   1.937 -0.0550 -0.0306 -0.2526
 1081W        W 3281   6.682   0.804  10.893  0.0132 -0.1612 -0.2165
 1082W        W 3282   5.986   0.050   4.076  0.0376  0.1876 -0.0915
 1083W        W 3283  30.964   4.948  22.920 -0.1205 -0.1920  0.0190
 1084W        W 3284  12.061   2.026   0.268  0.1462 -0.3226  0.0776
 1085W        W 3285  21.003   0.397  25.034  0.3753  0.1601  0.1474
 1086W        W 3286  21.103   6.435   5.718  0.0851  0.1356 -0.4574
 1087W        W 3287  27.069   1.285  21.160  0.4759 -0.2975  0.2070
 1088W        W 3288  28.049   3.448  18.006  0.2411 -0.1181 -0.0288
 1089W        W 3289   0.840   4.008   1.688 -0.0707  0.1738 -0.0141
 1090W        W 3290  27.040   1.764   8.090 -0.0260 -0.1452  0.3167
 1091W        W 3291   0.047   3.140   4.322 -0.0135 -0.1265  0.1871
 1092W        W 3292  12.672   7.472  21.022  0.0312  0.5033  0.0181
 1093W        W 3293  28.131   7.203  23.263  0.2826  0.1323  0.0444
 1094W        W 3294  20.010   2.958   6.158 -0.0818  0.0033  0.2756
 1095W        W 3295   2.442   5.214  25.087 -0.1147  0.0040 -0.2095
 1096W        W 3296   8.839   4.055   0.297 -0.4123 -0.1273  0.1324
 1097W        W 3297   5.254   6.712  15.383  0.1294 -0.1068  0.2424
 1098W        W 3298  30.557   6.882   5.552  0.1310  0.1526 -0.0020
 1099W        W 3299  11.728   7.166   3.093 -0.0105 -0.1635  0.0312
 1100W        W 3300  11.473   4.152  22.259  0.1108 -0.1941 -0.0487
 1101W        W 3301  31.043   5.451   8.978 -0.2364 -0.2339 -0.1284
 1102W        W 3302   2.157   0.196  10.174 -0.2257  0.2335 -0.0105
 1103W        W 3303   6.337   4.919   6.680  0.0549 -0.1682 -0.2013
 1104W        W 3304   2.656   6.133  18.878 -0.1165  0.1385  0.2905
 1105W        W 3305   9.935   4.906  18.708  0.0595  0.1341 -0.3101
 1106W        W 3306   3.160   6.286  15.064 -0.0890  0.3890 -0.0884
 1107W        W 3307  11.907   2.110   7.430 -0.1164  0.0059  0.1009
 1108W        W 3308   7.117   7.217   5.270 -0.0736  0.0079 -0.2683
 1109W        W 3309  18.552   4.450   1.684  0.1357  0.0476 -0.0478
 1110W        W 3310  10.321   5.590   2.558  0.1490 -0.2169 -0.2363
 1111W        W 3311   3.101   3.643   5.595  0.1287  0.1557  0.0501
 1112W        W 3312  30.455   5.999   8.443  0.2363  0.1254 -0.0954
 1113W        W 3313  28.270   1.363  25.248  0.3219 -0.1590 -0.1437
 1114W        W 3314  24.293   4.265   7.932  0.0403 -0.0866  0.2227
 1115W        W 3315  13.642   0.463  15.807  0.3328 -0.1546 -0.0991
 1116W        W 3316  19.861   0.838  11.046  0.2347  0.1125  0.0086
 1117W        W 3317  12.722   3.752  25.036  0.1335  0.1387 -0.2168
 1118W        W 3318   2.496   1.826   6.656 -0.0334  0.0243  0.0373
 1119W        W 3319   8.430   0.547   6.076 -0.0531  0.2059 -0.1229
 1120W        W 3320  15.620   2.013  24.540 -0.0151  0.2626 -0.3666
 1121W        W 3321  22.085   1.787  17.508 -0.3258 -0.2131  0.2041
 1122W        W 3322   0.299   2.532  10.166 -0.2436 -0.0998  0.1760
 1123W        W 3323  21.918   2.165  19.724  0.2202  0.0290  0.0792
 1124W        W 3324  24.217   6.817   8.148 -0.1677 -0.3443 -0.0892
 1125W        W 3325  11.127   6.687   7.266  0.4812 -0.1806 -0.1355
 1126W        W 3326  24.554   2.213  23.771  0.0824  0.0722  0.1372
 1127W        W 3327  26.016   1.112   4.744 -0.0146 -0.2953  0.3706
 1128W        W 3328  24.880   4.966  19.064 -0.2594 -0.4520 -0.2359
 1129W        W 3329   2.995   2.118  20.088  0.2661  0.1315 -0.0920
 1130W        W 3330  12.715   7.666  16.202 -0.1736  0.0700  0.0898
 1131W        W 3331  14.405   6.500   6.239 -0.2370 -0.4158  0.0595
 1132W        W 3332   0.389   0.620  20.646 -0.2104  0.0952 -0.0350
 1133W        W 3333   8.336   7.404  24.684 -0.0049  0.3436 -0.1393
 1134W        W 3334  26.618   6.428   7.386  0.3145 -0.0015 -0.1116
 1135W        W 3335  22.196   2.814  23.211 -0.1572  0.1055  0.0285
 1136W        W 3336  25.903   7.381   1.920 -0.1638 -0.2460  0.1106
 1137W        W 3337  17.440   0.165  23.610 -0.1314  0.1526  0.0273
 1138W        W 3338  27.953   2.512  16.409 -0.1628  0.1652 -0.1170
 1139W        W 3339  20.426   2.244  22.323  0.1377  0.2362 -0.0523
 1140W        W 3340  28.052   0.358  18.742  0.0468 -0.2052  0.2744
 1141W        W 3341  16.622   2.067  16.225 -0.0121 -0.2361 -0.0058
 1142W        W 3342   2.353   7.750   5.185  0.2644 -0.1298  0.2163
 1143W        W 3343   4.613   5.567  15.059  0.0623  0.0048  0.1000
 1144W        W 3344  19.855   3.521   8.512 -0.2711  0.3558 -0.0828
 1145W        W 3345  30.505   0.240  22.677  0.0805 -0.0733  0.0259
 1146W        W 3346  30.367   3.859   9.209 -0.0717  0.1906  0.1221
 1147W        W 3347  21.060   1.260  25.389 -0.1250 -0.0898 -0.1073
 1148W        W 3348   1.004   4.951  15.409 -0.0167 -0.2424 -0.1416
 1149W        W 3349  17.865   6.108   7.272  0.0168  0.0414  0.3308
 1150W        W 3350  13.797   3.202   1.644  0.2759  0.0968 -0.0403
 1151W        W 3351  14.154   6.428  25.817  0.0246 -0.0951 -0.1311
 1152W        W 3352  20.831   1.392   3.360  0.2553  0.0900  0.0876
 1153W        W 3353  28.997   7.348   1.666 -0.2779  0.1917 -0.2161
 1154W        W 3354  28.012   1.527   3.732  0.1108 -0.1619  0.0022
 1155W        W 3355  31.310   3.363   0.875 -0.3470 -0.0328 -0.0727
 1156W        W 3356  25.478   3.052   4.606  0.1240  0.1922  0.0294
 1157W        W 3357  28.313   5.120  15.862 -0.2841 -0.0009  0.1834
 1158W        W 3358  30.227   4.377  23.400  0.1554 -0.1413 -0.2627
 1159W        W 3359   4.549   0.994   8.267  0.3243 -0.2805  0.0722
 1160W        W 3360  27.579   4.302  25.258 -0.2212 -0.2484  0.1686
 1161W        W 3361  19.838   3.514  17.097  0.0075 -0.0783 -0.0287
 1162W        W 3362  19.267   6.946  24.754  0.0670  0.2005 -0.2187
 1163W        W 3363  27.177   7.010   9.939 -0.1103 -0.0877 -0.0375
 1164W        W 3364  16.441   7.237   6.668 -0.1389 -0.0401 -0.0423
 1165W        W 3365  18.849   1.538  20.748 -0.1642 -0.0110  0.1656
 1166W        W 3366  27.618   5.396   1.281  0.0891  0.4006 -0.2521
 1167W        W 3367  26.181   3.034   6.984  0.2085  0.0060 -0.0800
 1168W        W 3368  23.928   4.610  21.691  0.1212 -0.1447  0.1139
 1169W        W 3369   0.007   5.920  15.876  0.2818  0.0635  0.3280
 1170W        W 3370  26.956   6.761   7.708 -0.0381 -0.0763 -0.2262
 1171W        W 3371   4.270   2.945   7.552  0.1089 -0.2055  0.1465
 1172W        W 3372  10.622   6.536  23.786  0.0559  0.1659  0.1888
 1173W        W 3373  15.751   3.483   2.355  0.2139  0.1007 -0.2701
 1174W        W 3374   0.414   6.911  16.361 -0.1920  0.1765  0.2744
 1175W        W 3375  24.379   4.650   4.925  0.0188  0.3675  0.3310
 1176W        W 3376   3.634   5.732  17.927  0.3735  0.1844  0.0487
 1177W        W 3377  27.030   1.205   0.070 -0.1022  0.2048  0.0546
 1178W        W 3378  11.776   7.822   0.872 -0.0630 -0.0347  0.0515
 1179W        W 3379  11.064   6.534  15.453  0.2274  0.0552  0.2027
 1180W        W 3380  14.001   6.298   9.121  0.1865 -0.2981  0.3244
 1181W        W 3381  25.748   2.699  23.076 -0.0723  0.3201  0.0184
 1182W        W 3382   9.229   2.342  19.950 -0.0562 -0.0669 -0.1454
 1183W        W 3383  13.042   5.426  15.645 -0.2002 -0.0066  0.1369
 1184W        W 3384   5.813   2.542  18.569 -0.1995  0.0381  0.1587
 1185W        W 3385  17.553   7.160   9.478  0.0566 -0.0160  0.1975
 1186W        W 3386  29.540   6.803   4.251 -0.0990 -0.0024 -0.2254
 1187W        W 3387  11.932   6.188   6.508  0.0866  0.0461 -0.1076
 1188W        W 3388  18.838   7.804  21.788 -0.0367 -0.2418 -0.1289
 1189W        W 3389  19.094   0.779  18.099 -0.1198 -0.0816 -0.1778
 1190W        W 3390   9.427   4.214  19.443  0.0529  0.0393  0.3011
 1191W        W 3391  21.782   7.353  10.140 -0.2079 -0.1156 -0.1366
 1192W        W 3392  26.681   0.030   2.080 -0.0025 -0.1831  0.0421
 1193W        W 3393  26.944   1.136  24.615  0.2497 -0.2480  0.3044
 1194W        W 3394  10.701   7.545   5.246  0.1964  0.1811  0.0516
 1195W        W 3395  11.374   4.012   3.041  0.1391  0.1175 -0.2307
 1196W        W 3396  24.411   2.120   7.888  0.1983 -0.0463  0.0141
 1197W        W 3397  17.489   5.185   3.814  0.0765  0.1319  0.4372
 1198W        W 3398   3.528   7.828   6.886 -0.2126 -0.2053 -0.0698
 1199W        W 3399   2.276   3.523   0.341 -0.1787  0.0226 -0.0778
 1200W        W 3400  19.250   7.351  25.511  0.1137 -0.2963 -0.1906
 1201W        W 3401  21.646   3.527  23.782  0.0969  0.2518  0.0369
 1202W        W 3402   0.179   3.995  19.245  0.0837  0.0023 -0.0101
 1203W        W 3403  20.679   3.834  18.221  0.1275 -0.1930 -0.0503
 1204W        W 3404  18.234   1.768  24.899  0.1019  0.2137 -0.0171
 1205W        W 3405  13.030   6.580   1.139 -0.1124  0.1560 -0.0588
 1206W        W 3406  22.783   1.814   6.662 -0.2530  0.3355 -0.0791
 1207W        W 3407   0.085   5.956  14.837 -0.2624 -0.0291  0.0335
 1208W        W 3408  12.097   0.004   1.361 -0.2316  0.0807  0.0217
 1209W        W 3409  18.267   3.778   6.337 -0.0044 -0.0804 -0.0189
 1210W        W 3410  19.568   2.856  18.153  0.1875 -0.0403 -0.2055
 1211W        W 3411  28.155   5.834   0.338  0.1134  0.0310  0.0799
 1212W        W 3412   0.715   1.810  19.517  0.1358  0.2529 -0.0713
 1213W        W 3413  12.349   1.439  21.729 -0.1032  0.1147  0.3194
 1214W        W 3414   6.621   3.567  22.902  0.1649  0.1003  0.0750
 1215W        W 3415   3.600   7.322  19.015  0.1072 -0.3136  0.0758
 1216W        W 3416  10.611   4.779   5.128  0.1011 -0.1519 -0.0727
 1217W        W 3417  10.500   6.281  18.669  0.2079  0.0653  0.0925
 1218W        W 3418  10.143   6.533  23.807 -0.0043 -0.0720 -0.0625
 1219W        W 3419   0.805   7.576   2.622  0.0111 -0.0858  0.2003
 1220W        W 3420  12.211   0.843   5.860 -0.4208 -0.1664 -0.6181
 1221W        W 3421  25.580   0.408  23.561 -0.2171 -0.1118 -0.3839
 1222W        W 3422  13.112   7.306   4.673 -0.0960 -0.0938 -0.0121
 1223W        W 3423  13.151   1.100   8.095  0.0955  0.2355  0.0518
 1224W        W 3424  21.999   3.354  23.025  0.0122  0.0416 -0.0787
 1225W        W 3425  10.722   5.414   9.916 -0.2448  0.3361 -0.1202
 1226W        W 3426  18.800   5.706   6.033 -0.3463 -0.1787 -0.0592
 1227W        W 3427  17.883   1.595   8.514 -0.2899 -0.2537  0.1087
 1228W        W 3428  17.422   1.099   4.741 -0.0260 -0.1285 -0.0099
 1229W        W 3429  29.413   4.372  20.405 -0.2992  0.2973 -0.0034
 1230W        W 3430  24.156   1.007   7.705  0.1138  0.0704  0.2403
 1231W        W 3431   1.622   1.500   1.027  0.0497 -0.0851  0.0512
 1232W        W 3432  23.994   4.677   0.689  0.1863 -0.0983  0.1087
 1233W        W 3433   8.637   4.047   6.797 -0.2042 -0.1568  0.2271
 1234W        W 3434   6.136   0.080   1.038 -0.1648 -0.0503 -0.1750
 1235W        W 3435  19.579   1.736   7.072  0.4275 -0.0557  0.0438
 1236W        W 3436   2.974   6.503   7.935 -0.0155 -0.1584 -0.1617
 1237W        W 3437  18.236   3.278  10.997  0.0446 -0.1702  0.1314
 1238W        W 3438   9.153   2.606   5.046  0.1142 -0.2125 -0.0892
 1239W        W 3439   8.441   0.154  17.436  0.0245 -0.0857 -0.0433
 1240W        W 3440  30.830   7.370   5.443  0.1014  0.1392 -0.2805
 1241W        W 3441   5.776   4.052  22.278 -0.0891  0.1229  0.0740
 1242W        W 3442  11.819   6.752  18.742 -0.0598 -0.0672  0.0599
 1243W        W 3443  30.675   7.595   0.228  0.1647  0.1526  0.1150
 1244W        W 3444   2.699   6.445  20.870  0.1286  0.3344 -0.0963
 1245W        W 3445  28.182   6.871  19.126 -0.2074  0.2703  0.0870
 1246W        W 3446   3.311   6.894  22.135 -0.2036  0.1352 -0.0194
 1247W        W 3447  30.621   2.298   4.206 -0.3152  0.2906 -0.5445
 1248W        W 3448  28.979   0.269   5.084  0.3121 -0.1033 -0.0112
 1249W        W 3449  25.165   1.846   5.137  0.1742  0.1831 -0.1777
 1250W        W 3450  11.673   7.119   2.158  0.0705  0.1926 -0.0721
 1251W        W 3451   8.360   5.523  11.109 -0.4407 -0.2476 -0.2497
 1252W        W 3452   6.274   0.003  23.220  0.0842 -0.1238 -0.0317
 1253W        W 3453   5.008   2.207  19.035  0.0464 -0.0190  0.1579
 1254W        W 3454  20.903   5.269  18.270 -0.1424 -0.2783 -0.0848
 1255W        W 3455  30.004   2.235   7.062 -0.1852  0.1295 -0.4129
 1256W        W 3456   8.370   3.576   1.788  0.1269 -0.0211  0.0013
 1257W        W 3457  11.726   0.181  10.319  0.0501  0.1217 -0.2207
 1258W        W 3458   3.525   1.573  21.616  0.2602  0.3199  0.0754
 1259W        W 3459   4.979   2.711   1.422 -0.1111 -0.2494  0.1423
 1260W        W 3460   9.789   3.488  25.764  0.0863 -0.4299 -0.0344
 1261W        W 3461  23.467   3.964   8.174 -0.0969 -0.1734  0.2942
 1262W        W 3462  13.628   0.998   6.837 -0.0591  0.1205 -0.1063
 1263W        W 3463  14.823   5.091  21.568  0.2673 -0.0730 -0.0533
 1264W        W 3464   4.284   3.381  15.573  0.0856 -0.4310  0.1786
 1265W        W 3465  10.321   7.372   6.230 -0.1940 -0.2527  0.0800
 1266W        W 3466   5.972   5.019   4.667  0.0333 -0.0442 -0.3871
 1267W        W 3467  25.264   1.485   3.105  0.2931 -0.2055  0.0690
 1268W        W 3468   8.806   7.765   1.950 -0.2109 -0.0808  0.0397
 1269W        W 3469  27.340   5.332  17.020  0.1581 -0.0567  0.0000
 1270W        W 3470  14.353   5.331   6.092  0.2903  0.1421 -0.0967
 1271W        W 3471  15.629   4.661  16.277 -0.2293 -0.0239 -0.0246
 1272W        W 3472   4.594   5.163   2.669  0.0797  0.0032  0.0874
 1273W        W 3473   5.565   0.949  22.540  0.1194 -0.4911  0.1820
 1274W        W 3474  14.260   6.613   1.492 -0.0401  0.1609  0.0095
 1275W        W 3475   1.398   5.331  17.370 -0.0589 -0.0767  0.1582
 1276W        W 3476  30.850   1.246   1.609  0.0675  0.0511  0.0444
 1277W        W 3477  13.928   4.318   4.634 -0.0976 -0.0279  0.0051
 1278W        W 3478  13.406   4.421  16.499  0.1212  0.1677 -0.2525
 1279W        W 3479   8.926   1.617  17.469  0.1368 -0.1967 -0.1070
 1280W        W 3480  23.678   5.547   2.551 -0.0414 -0.0958  0.1728
 1281W        W 3481   5.445   6.669  22.234  0.0086 -0.1193 -0.0230
 1282W        W 3482  12.930   3.523   5.393 -0.0166 -0.2394 -0.0306
 1283W        W 3483   9.390   0.727   3.270  0.1611 -0.1959  0.1178
 1284W        W 3484  30.004   1.663  21.015 -0.0171 -0.2110  0.0927
 1285W        W 3485  13.398   1.757  21.896  0.2097  0.0142 -0.2290
 1286W        W 3486  22.686   4.331  23.748 -0.1279  0.2524  0.0881
 1287W        W 3487  18.430   6.043  16.082  0.0666  0.1382  0.3627
 1288W        W 3488  18.184   3.015  23.853  0.1138 -0.2982  0.0303
 1289W        W 3489   5.848   0.385  18.024 -0.1818  0.0409 -0.1464
 1290W        W 3490   5.291   1.369   4.808  0.1892  0.1039 -0.0085
 1291W        W 3491   6.581   6.795   4.196 -0.0240  0.1263 -0.0339
 1292W        W 3492  22.404   5.583   7.263  0.0195  0.2438  0.1979
 1293W        W 3493   0.327   4.685  21.079  0.1369 -0.1094  0.2235
 1294W        W 3494  21.352   1.855   3.306  0.1035 -0.1249  0.0150
 1295W        W 3495  18.609   6.329  18.972 -0.0835 -0.1809  0.0893
 1296W        W 3496  27.091   6.052   8.400  0.2561  0.1161  0.0332
 1297W        W 3497   1.085   1.124  16.743  0.0359 -0.0161  0.0370
 1298W        W 3498  13.931   0.579   6.474  0.0109  0.1416  0.1508
 1299W        W 3499  11.095   5.760   9.771 -0.1483  0.0464 -0.1755
 1300W        W 3500  14.346   5.949  16.636  0.0237 -0.3403  0.1975
 1301W        W 3501  11.024   0.812  24.711 -0.2563  0.3935 -0.1117
 1302W        W 3502  15.897   0.770   4.765  0.4666  0.2084 -0.1220
 1303W        W 3503  18.268   4.336  16.878  0.3548 -0.0423 -0.2949
 1304W        W 3504   5.610   4.719   9.215 -0.0937 -0.1271  0.1857
 1305W        W 3505   0.251   2.795   9.175  0.1835 -0.1526  0.4245
 1306W        W 3506   8.555   0.792  22.068 -0.3548 -0.0060  0.0680
 1307W        W 3507   9.572   1.853  22.146 -0.0770  0.3224  0.2857
 1308W        W 3508   1.175   6.195   6.905  0.0023  0.2031 -0.2491
 1309W        W 3509  31.287   7.253   5.234  0.1387  0.0378  0.4020
 1310W        W 3510  13.015   6.391  24.916  0.0137  0.0880  0.2997
 1311W        W 3511   2.356   1.512   4.927 -0.1033  0.0354  0.4545
 1312W        W 3512  22.174   6.587  19.733 -0.0956 -0.0468  0.1693
 1313W        W 3513   6.436   0.358   2.406  0.1683 -0.1626 -0.0112
 1314W        W 3514  19.607   7.289  22.398  0.0547 -0.0935 -0.1761
 1315W        W 3515   4.363   1.120  21.421  0.0884 -0.2102  0.0912
 1316W        W 3516  24.839   4.669   6.605  0.1149 -0.1523 -0.3845
 1317W        W 3517   4.617   7.629  14.750 -0.0016 -0.1754  0.0670
 1318W        W 3518   4.010   4.814  23.931 -0.1054  0.0950  0.1824
 1319W        W 3519  20.107   6.092   2.560  0.0096 -0.0958 -0.0343
 1320W        W 3520   1.772   4.321  18.015 -0.1312  0.0053 -0.0750
 1321W        W 3521  11.180   1.274   2.591 -0.2591 -0.2574  0.0345
 1322W        W 3522  17.862   7.480  16.180  0.1096 -0.0807 -0.3681
 1323W        W 3523  20.140   5.371  15.842 -0.0617  0.0938  0.0333
 1324W        W 3524  15.624   5.698  10.433  0.0904  0.2997 -0.2699
 1325W        W 3525   2.121   2.965  21.769 -0.2700 -0.2985 -0.0242
 1326W        W 3526  24.023   6.746  22.781  0.0555  0.2840  0.2605
 1327W        W 3527  26.414   1.631  19.153  0.1311 -0.1921 -0.0383
 1328W        W 3528  18.827   1.856  18.756 -0.3306 -0.2877 -0.2037
 1329W        W 3529  12.534   2.247   9.134 -0.0129  0.1401 -0.0471
 1330W        W 3530  23.254   7.479   1.389  0.3682 -0.0667  0.1842
 1331W        W 3531  17.817   1.117   3.388 -0.0893 -0.0623 -0.2499
 1332W        W 3532  22.489   0.151   9.089 -0.1565 -0.1166 -0.3865
 1333W        W 3533   1.074   5.963  16.333  0.2053 -0.3810 -0.2781
 1334W        W 3534   9.295   5.012   4.666  0.0792 -0.0322 -0.3090
 1335W        W 3535  30.317   1.947   8.799  0.1880 -0.2439 -0.0407
 1336W        W 3536  29.712   0.645   1.619 -0.0370  0.2832  0.3314
 1337W        W 3537  21.902   0.082   2.527 -0.1573 -0.0732 -0.2375
 1338W        W 3538  15.889   7.256  25.709  0.1920  0.1814 -0.0326
 1339W        W 3539  29.594   1.953   9.528  0.3731 -0.0911  0.1883
 1340W        W 3540  12.217   4.628   6.644 -0.2071 -0.1905  0.0701
 1341W        W 3541   8.995   0.399   0.453 -0.1044 -0.1168  0.3231
 1342W        W 3542  17.569   6.944   5.306 -0.2774 -0.0142  0.1118
 1343W        W 3543   1.785   0.269  19.674  0.0340  0.0249  0.1479
 1344W        W 3544  16.679   1.515  25.857 -0.1239  0.1301 -0.1284
 1345W        W 3545   4.004   3.606   3.252 -0.1162  0.0973 -0.3455
 1346W        W 3546   5.868   0.643  21.087  0.0295 -0.2091 -0.0098
 1347W        W 3547   4.839   5.780  10.043 -0.0431  0.1060 -0.1378
 1348W        W 3548  19.673   0.751   8.113  0.0180 -0.0345  0.0617
 1349W        W 3549   1.289   1.128  17.219  0.1219 -0.1094 -0.1504
 1350W        W 3550  25.706   4.397   8.338 -0.1016  0.3224  0.2616
 1351W        W 3551   0.296   7.131  24.002  0.1756 -0.3605  0.0036
 1352W        W 3552  21.273   3.979  24.087  0.2022  0.0577  0.1806
 1353W        W 3553   6.186   2.406  16.513  0.0548 -0.2340 -0.0731
 1354W        W 3554  11.596   2.673   9.499 -0.0445  0.0564 -0.2774
 1355W        W 3555   6.148   7.796   5.905  0.0134  0.2506 -0.2946
 1356W        W 3556  19.895   3.703  26.072  0.1064 -0.2208 -0.3251
 1357W        W 3557  12.473   0.926  23.412 -0.1058  0.1063  0.1006
 1358W        W 3558  25.533   7.814   1.925  0.1924 -0.1822  0.1526
 1359W        W 3559   8.849   5.055   0.709  0.2869  0.2618  0.0708
 1360W        W 3560   0.607   5.462  17.662  0.1818 -0.2601 -0.0651
 1361W        W 3561  22.086   0.993  17.725  0.0141  0.1761  0.1911
 1362W        W 3562  28.390   2.396   1.009  0.1166 -0.0011 -0.0905
 1363W        W 3563  26.320   5.200  21.849 -0.2049 -0.0332 -0.0513
 1364W        W 3564  29.517   1.184   1.593 -0.2236 -0.0373 -0.0378
 1365W        W 3565  22.424   1.926   1.143 -0.2178 -0.2900 -0.2203
 1366W        W 3566  12.772   6.536   1.625  0.0644 -0.0132  0.0482
 1367W        W 3567   4.172   6.107  17.295  0.1372  0.3327  0.0200
 1368W        W 3568  26.356   5.487  10.324 -0.0433  0.0224 -0.3808
 1369W        W 3569   8.571   2.523  25.058  0.1391  0.0021  0.1977
 1370W        W 3570   8.243   2.895   8.488 -0.0127  0.2000 -0.1075
 1371W        W 3571   8.758   7.261  17.097  0.1699  0.0193 -0.0465
 1372W        W 3572  18.119   6.345  19.075  0.2380  0.2235 -0.1714
 1373W        W 3573  14.818   7.001   0.708  0.4044 -0.2504 -0.1824
 1374W        W 3574   6.475   6.050  22.848  0.2426  0.0421  0.1289
 1375W        W 3575   8.331   7.856  23.653  0.2763 -0.3560 -0.2811
 1376W        W 3576  14.557   6.635  20.973  0.1013  0.2400  0.3846
 1377W        W 3577  16.737   7.653  21.092  0.0401 -0.2337  0.2752
 1378W        W 3578  18.049   4.169   0.814 -0.1645 -0.0525 -0.0597
 1379W        W 3579  26.859   1.094  17.489  0.0765 -0.0342  0.1647
 1380W        W 3580   8.325   0.275   3.344  0.0283 -0.1399  0.3651
 1381W        W 3581  14.019   3.408  24.331 -0.0808 -0.1448  0.1294
 1382W        W 3582  22.613   1.093  22.671  0.0496 -0.0874  0.0931
 1383W        W 3583   6.102   4.336   0.392  0.1676  0.1296  0.3241
 1384W        W 3584   2.658   7.653  18.101  0.2239 -0.0786  0.1071
 1385W        W 3585  30.069   4.468   2.702  0.1172 -0.2318 -0.2650
 1386W        W 3586  19.411   1.726  20.659 -0.0795  0.1101 -0.0958
 1387W        W 3587   9.285   4.243  20.770  0.3455  0.2685 -0.0752
 1388W        W 3588   4.980   1.109  15.395 -0.0147 -0.1291 -0.0920
 1389W        W 3589  13.948   1.310  25.967  0.0784 -0.0835  0.2548
 1390W        W 3590   0.524   0.636   5.853  0.1289 -0.0299 -0.0106
 1391W        W 3591  19.382   0.440  17.580  0.0389 -0.1142  0.3557
 1392W        W 3592  18.243   1.623  14.965  0.0490 -0.3206  0.0533
 1393W        W 3593  23.166   4.372   6.952 -0.2177  0.1480  0.0450
 1394W        W 3594  16.900   4.277   1.600  0.0380 -0.2879 -0.1375
 1395W        W 3595  11.127   2.682   2.615 -0.4516 -0.1823 -0.1432
 1396W        W 3596   9.045   3.780  18.670 -0.1146  0.2955 -0.0726
 1397W        W 3597  14.573   5.116   9.194 -0.0348 -0.3085 -0.0337
 1398W        W 3598  22.797   3.089   2.528 -0.1955  0.1549  0.3593
 1399W        W 3599  27.026   6.769  23.827 -0.1540  0.1091 -0.1016
 1400W        W 3600  27.604   1.344   9.004 -0.0440  0.1035 -0.2982
 1401W        W 3601  18.306   6.757  25.544  0.0808 -0.0173  0.0279
 1402W        W 3602  19.978   0.913   6.718 -0.2629 -0.2146 -0.1810
 1403W        W 3603   5.136   3.336   9.167  0.1757  0.1078  0.2091
 1404W        W 3604   3.638   4.981   0.918  0.1281 -0.0038 -0.1732
 1405W        W 3605  24.317   1.132  21.161  0.0869  0.0232  0.1612
 1406W        W 3606   1.417   7.535  16.542  0.0781 -0.0080 -0.0255
 1407W        W 3607  19.137   6.117  10.457 -0.2041 -0.0300 -0.0665
 1408W        W 3608   0.545   0.326   9.634 -0.0610 -0.2260 -0.1177
 1409W        W 3609  13.464   2.422   3.300  0.2313 -0.0172  0.2008
 1410W        W 3610  17.675   6.351   3.255 -0.3916  0.0108 -0.1014
 1411W        W 3611   6.975   7.450   6.797 -0.0883 -0.1312 -0.0804
 1412W        W 3612  29.914   4.467   3.555  0.1952 -0.3185  0.2548
 1413W        W 3613  21.101   4.988  21.504  0.2784  0.1734  0.4649
 1414W        W 3614   2.024   1.731  15.767 -0.0474  0.2628  0.0032
 1415W        W 3615  19.116   2.818  10.653 -0.4389  0.1194  0.1422
 1416W        W 3616  24.008   4.655  18.934 -0.0702 -0.1452 -0.1426
 1417W        W 3617   4.247   6.305  16.060  0.0574 -0.1586  0.1452
 1418W        W 3618   8.853   0.558   4.584 -0.0298 -0.0055  0.0117
 1419W        W 3619  12.285   2.389  22.005  0.2085  0.2426  0.2743
 1420W        W 3620  14.692   0.971  25.012 -0.0593 -0.1109  0.0814
 1421W        W 3621   6.711   5.710   8.511  0.1594  0.1890  0.2949
 1422W        W 3622  14.721   0.886  21.057  0.0226 -0.2110  0.1305
 1423W        W 3623   8.491   4.385   2.399  0.1529 -0.1839  0.1611
 1424W        W 3624  25.212   3.426  22.548 -0.1463  0.1552 -0.2166
 1425W        W 3625   6.254   1.786  18.006  0.0336 -0.0953  0.0386
 1426W        W 3626  16.541   6.527   9.309  0.3778  0.0499  0.2565
 1427W        W 3627   2.605   0.484  25.302 -0.0605 -0.0509 -0.1007
 1428W        W 3628  11.949   1.058   2.138  0.0664 -0.1692 -0.0156
 1429W        W 3629   9.806   6.414  25.100 -0.2325 -0.0757  0.0838
 1430W        W 3630   5.757   1.834   7.271 -0.0294 -0.1655  0.0265
 1431W        W 3631  22.056   7.433  10.795  0.2577 -0.1729 -0.0764
 1432W        W 3632  12.220   1.534   5.952 -0.1888  0.0960  0.1743
 1433W        W 3633  27.710   6.163   3.686  0.1440  0.1591  0.2246
 1434W        W 3634  14.332   3.855   0.201 -0.2416 -0.3201 -0.1928
 1435W        W 3635  23.028   1.481  15.577  0.2388  0.0675  0.0052
 1436W        W 3636   1.786   7.018   3.585  0.1463  0.0328 -0.0939
 1437W        W 3637   2.712   2.077   7.142 -0.1490 -0.0871 -0.3925
 1438W        W 3638   0.274   0.995  17.080 -0.1812  0.1821 -0.0521
 1439W        W 3639  20.224   6.710  22.429  0.0126  0.2288 -0.0454
 1440W        W 3640   3.185   0.004  19.531 -0.3436  0.0433 -0.1687
 1441W        W 3641   8.210   4.472   4.555 -0.2934  0.1380 -0.0385
 1442W        W 3642   8.197   0.667  17.905 -0.2821 -0.1678 -0.1106
 1443W        W 3643  19.672   0.368   6.206 -0.0097  0.2665 -0.3671
 1444W        W 3644  10.008   3.391  17.443  0.2190  0.3565 -0.0601
 1445W        W 3645  14.170   7.482  22.417 -0.0238  0.0117  0.0981
 1446W        W 3646   4.099   2.465  18.403 -0.2858  0.0012  0.3118
 1447W        W 3647  20.896   3.295  17.515 -0.1285 -0.1345 -0.1713
 1448W        W 3648   2.275   7.195  16.394 -0.0339  0.0378  0.0060
 1449W        W 3649   1.517   4.200  15.210 -0.0256 -0.2528 -0.0118
 1450W        W 3650  11.124   4.977   9.274  0.0251 -0.2867 -0.2647
 1451W        W 3651  24.126   1.819  26.035  0.2220 -0.0882  0.3050
 1452W        W 3652  29.670   5.438   7.419  0.1103 -0.1194  0.0092
 1453W        W 3653  24.625   4.088  11.418  0.0973 -0.0973 -0.0895
 1454W        W 3654   5.383   4.768   0.248  0.2842 -0.1011  0.1389
 1455W        W 3655  10.462   0.521   5.826  0.3513 -0.5211 -0.1530
 1456W        W 3656   4.485   6.079   6.324 -0.1169  0.3393  0.0803
 1457W        W 3657  24.513   1.242  10.958 -0.2559  0.3252 -0.0196
 1458W        W 3658  21.465   0.531  20.380 -0.2942  0.1483  0.0137
 1459W        W 3659  18.693   5.753  26.053  0.0887  0.1802 -0.1751
 1460W        W 3660  15.257   4.871   0.956 -0.0077 -0.0538 -0.2879
 1461W        W 3661   4.577   4.504   9.196 -0.0570  0.0542 -0.0521
 1462W        W 3662  14.789   5.518  17.632 -0.2339 -0.1018  0.1530
 1463W        W 3663  10.634   0.888  25.790  0.0036 -0.2852 -0.0491
 1464W        W 3664  13.910   1.395   6.753  0.1501  0.0329  0.1698
 1465W        W 3665  13.043   5.885   6.835  0.0230  0.0937  0.3083
 1466W        W 3666  13.509   3.301  19.685  0.0660  0.1415  0.1516
 1467W        W 3667  17.462   0.095  21.453  0.1467  0.0144  0.0848
 1468W        W 3668  19.467   6.439   8.337  0.1047  0.0254 -0.2772
 1469W        W 3669  23.644   2.529   4.321  0.1302 -0.3099 -0.3281
 1470W        W 3670  10.279   0.768   3.559 -0.2466 -0.3587 -0.0697
 1471W        W 3671  15.668   2.835   9.308  0.1439  0.0050  0.3093
 1472W        W 3672  26.457   0.065  20.118 -0.3021 -0.2103 -0.1123
 1473W        W 3673   8.617   5.816  24.606 -0.1543 -0.3109  0.1146
 1474W        W 3674  31.193   6.518   8.456 -0.0613  0.0167 -0.0395
 1475W        W 3675  25.673   4.663   6.847  0.0885 -0.1027  0.0431
 1476W        W 3676   1.058   7.167   7.897 -0.0137  0.1422  0.0876
 1477W        W 3677  12.886   4.301  19.538  0.0088  0.0197  0.0899
 1478W        W 3678   1.534   5.462  23.330  0.1519  0.0772  0.0106
 1479W        W 3679   0.386   7.138   1.064  0.2547 -0.6156  0.1349
 1480W        W 3680  26.673   4.026   2.155  0.4002 -0.1996  0.0027
 1481W        W 3681  17.560   0.973  18.588 -0.0721 -0.3213  0.1632
 1482W        W 3682  31.343   3.914  15.395  0.1139  0.1554  0.0395
 1483W        W 3683  14.669   5.091   5.783  0.0491 -0.3247 -0.0947
 1484W        W 3684  27.632   5.176  17.402  0.1503  0.2450 -0.0219
 1485W        W 3685   2.470   3.533  18.225 -0.0238 -0.0037 -0.1480
 1486W        W 3686  30.203   4.804  14.893 -0.0731 -0.0758 -0.1848
 1487W        W 3687  24.615   1.421   6.975  0.1642 -0.0537  0.1135
 1488W        W 3688  12.389   3.686  22.107  0.0729  0.2734 -0.1495
 1489W        W 3689  29.212   5.682  21.604  0.3077  0.1238 -0.1703
 1490W        W 3690  19.957   3.008  19.771  0.1702 -0.1987 -0.0750
 1491W        W 3691  27.500   2.462   8.462  0.2277 -0.0660  0.1110
 1492W        W 3692   0.854   2.605  24.583  0.1472 -0.2325 -0.2897
 1493W        W 3693   7.573   4.366   9.148 -0.1218  0.0845 -0.6479
 1494W        W 3694   1.694   4.987  22.248 -0.1510  0.2669 -0.3567
 1495W        W 3695   2.650   0.009  25.949  0.0363 -0.0285  0.2046
 1496W        W 3696  13.760   5.550  14.939  0.1889 -0.1207 -0.0737
 1497W        W 3697  24.405   4.253   5.816 -0.2024 -0.3438 -0.2207
 1498W        W 3698   6.000   6.329   1.368 -0.2118  0.0390 -0.1437
 1499W        W 3699  17.603   5.976  21.312  0.0269  0.3524 -0.5029
 1500W        W 3700   4.641   1.098  10.329 -0.1940 -0.1029  0.2326
 1501W        W 3701   6.738   7.093  25.142  0.0517 -0.0147  0.0099
 1502W        W 3702  25.785   4.340   1.772 -0.0403 -0.2887  0.1039
 1503W        W 3703   2.803   6.803  16.749  0.1863 -0.2728 -0.1065
 1504W        W 3704   9.401   4.510  18.975 -0.2521 -0.0751 -0.2253
 1505W        W 3705  18.377   3.903   1.569 -0.1854  0.3922  0.0803
 1506W        W 3706  17.448   3.936  17.444  0.1408 -0.1475  0.1996
 1507W        W 3707  18.120   5.684  24.716 -0.0151 -0.1121  0.0613
 1508W        W 3708  15.879   5.253   0.044 -0.0864  0.0046 -0.0003
 1509W        W 3709  28.655   0.848   7.535  0.2025 -0.2556 -0.3831
 1510W        W 3710  26.020   7.472   9.734  0.1294  0.2882  0.1029
 1511W        W 3711   2.470   7.317   0.873 -0.1592 -0.0676 -0.0260
 1512W        W 3712  25.756   5.812  18.511 -0.2345 -0.1180 -0.1359
 1513W        W 3713   5.124   0.245   8.073 -0.1026 -0.0520 -0.2539
 1514W        W 3714  22.979   6.969   7.065  0.1083  0.1117 -0.2659
 1515W        W 3715  30.527   6.429  24.442 -0.0837 -0.1543 -0.2155
 1516W        W 3716   9.844   1.299  18.029 -0.2037  0.2058 -0.0644
 1517W        W 3717  31.142   7.811  10.390 -0.0644  0.1164  0.0895
 1518W        W 3718  11.912   0.548  20.428  0.2505 -0.1184  0.0206
 1519W        W 3719  30.587   2.266   3.712  0.1259  0.2621 -0.2043
 1520W        W 3720  22.621   5.908   1.332 -0.2230  0.0365  0.1856
 1521W        W 3721  23.685   2.425  17.345 -0.1199 -0.0172 -0.0196
 1522W        W 3722  14.048   3.580  25.456  0.0825 -0.0346 -0.0072
 1523W        W 3723  22.740   0.234  22.823 -0.0027  0.1255 -0.1758
 1524W        W 3724  24.987   2.157  23.355  0.0227 -0.0929  0.3194
 1525W        W 3725   7.717   3.997   5.742  0.0481 -0.3076  0.1025
 1526W        W 3726  25.014   2.785  18.538  0.0561 -0.0151  0.0275
 1527W        W 3727  18.507   4.098   5.965 -0.0051  0.3053  0.1192
 1528W        W 3728   3.870   5.913   0.310  0.2181 -0.0087 -0.1422
 1529W        W 3729   0.176   6.748   2.983 -0.1840  0.1268  0.0706
 1530W        W 3730   9.369   6.905   9.175 -0.2289  0.1006 -0.1777
 1531W        W 3731  16.623   0.865   9.601  0.0247  0.1445 -0.0560
 1532W        W 3732  23.632   6.798   3.902 -0.1446  0.0957 -0.2258
 1533W        W 3733  14.637   0.882  22.885  0.3604  0.1715  0.1401
 1534W        W 3734  10.405   4.529   0.927 -0.0145  0.1091 -0.0316
 1535W        W 3735   7.867   2.619   0.055 -0.2585  0.2575 -0.0508
 1536W        W 3736   3.011   5.068  22.172  0.1555 -0.1838  0.2330
 1537W        W 3737  14.106   5.351   0.326 -0.0947  0.0012 -0.0874
 1538W        W 3738  11.790   5.472   1.156  0.2209 -0.0395 -0.1336
 1539W        W 3739   4.753   1.658  25.294  0.2071  0.2703 -0.1269
 1540W        W 3740  22.485   7.594   4.822 -0.0864 -0.0815  0.1349
 1541W        W 3741  12.484   3.419  21.699  0.0863 -0.0882 -0.1494
 1542W        W 3742  27.640   4.996   5.069 -0.2541 -0.1819 -0.2581
 1543W        W 3743  18.417   2.308   5.937  0.1033 -0.2774 -0.0234
 1544W        W 3744   2.164   4.610   7.442  0.0767  0.2071 -0.2663
 1545W        W 3745  20.658   1.056   7.340  0.0834 -0.3276  0.1393
 1546W        W 3746  11.159   3.899  16.215 -0.0235  0.1604  0.1972
 1547W        W 3747  30.114   0.118   8.394  0.0141 -0.2470 -0.1867
 1548W        W 3748   6.407   0.139   0.309 -0.1230 -0.3539 -0.1298
 1549W        W 3749  12.213   2.381   5.801 -0.1319  0.2095 -0.0550
 1550W        W 3750  23.566   0.964  24.002  0.0888  0.2270  0.0457
 1551W        W 3751  10.757   4.828   0.672 -0.1483  0.0558 -0.2525
 1552W        W 3752  24.932   7.461  10.380 -0.3131 -0.1463  0.1716
 1553W        W 3753  26.795   5.004   3.705  0.2384 -0.0491 -0.0747
 1554W        W 3754  18.019   4.404   8.094 -0.2141 -0.1914 -0.0030
 1555W        W 3755  23.050   1.549   4.671  0.0373 -0.1485  0.2779
 1556W        W 3756  17.748   4.688   3.930 -0.0276  0.0100  0.3007
 1557W        W 3757  19.867   7.470  20.133 -0.1174 -0.0894 -0.1925
 1558W        W 3758  11.917   3.020  17.855  0.1708 -0.1279 -0.1813
 1559W        W 3759  19.155   7.276  22.824  0.0313 -0.1044  0.1704
 1560W        W 3760   5.249   3.167  15.490  0.0289 -0.0248 -0.3059
 1561W        W 3761  20.792   5.286   6.336 -0.1295  0.1051 -0.1022
 1562W        W 3762   9.561   7.394  22.423 -0.2926 -0.1697 -0.1262
 1563W        W 3763   0.816   5.053  18.714  0.1885  0.0054  0.0587
 1564W        W 3764   6.230   1.240   4.549  0.2373  0.2559 -0.0728
 1565W        W 3765  19.262   3.955   4.769  0.1201 -0.1207  0.0687
 1566W        W 3766   2.957   4.253   4.189 -0.0719 -0.2697 -0.2525
 1567W        W 3767   2.013   0.183  14.961 -0.2919  0.1572 -0.2377
 1568W        W 3768   5.684   3.489   8.981  0.0147  0.0701  0.1637
 1569W        W 3769   6.440   7.039   8.489 -0.1286  0.0085 -0.1253
 1570W        W 3770  15.479   2.551   2.725  0.0258 -0.1719  0.2990
 1571W        W 3771  28.329   6.134   5.163 -0.2729 -0.0534 -0.3002
 1572W        W 3772   1.479   3.502   8.843  0.0049  0.2398 -0.0957
 1573W        W 3773   0.153   3.709   7.738  0.1144 -0.0093  0.0723
 1574W        W 3774   8.944   6.723  24.861  0.0242 -0.2315 -0.1031
 1575W        W 3775  25.613   6.995  18.875  0.0414  0.0871 -0.0170
 1576W        W 3776  28.065   1.314   7.289  0.1832  0.0399 -0.1328
 1577W        W 3777  19.522   3.085  23.263 -0.3670 -0.0850  0.2372
 1578W        W 3778  18.791   0.128  20.965  0.0463  0.0565 -0.3487
 1579W        W 3779   2.111   2.888   8.331 -0.0139 -0.3368  0.2085
 1580W        W 3780  26.134   2.167   8.998 -0.2739  0.2416 -0.1417
 1581W        W 3781   9.946   1.990  20.168 -0.0012  0.1834  0.2364
 1582W        W 3782   1.345   1.337  16.099 -0.0625 -0.0601 -0.0004
 1583W        W 3783  22.363   3.490   1.687  0.0859  0.1073 -0.3475
 1584W        W 3784  20.844   6.112  11.043 -0.1225  0.0833  0.1803
 1585W        W 3785  27.948   6.512  15.896  0.2067 -0.3595 -0.0716
 1586W        W 3786  29.247   3.245   1.581 -0.2088 -0.0638 -0.2014
 1587W        W 3787  19.851   2.409  16.323 -0.5355  0.1103  0.2854
 1588W        W 3788  16.676   2.064  17.767 -0.0087 -0.1793  0.0795
 1589W        W 3789   9.269   7.034  19.838  0.2794 -0.1495  0.3249
 1590W        W 3790  13.504   4.718  10.287  0.0768  0.0651 -0.1900
 1591W        W 3791  15.922   3.917   3.802 -0.0506 -0.1304  0.1158
 1592W        W 3792   7.933   3.095  19.007 -0.0575  0.3485  0.1975
 1593W        W 3793  14.699   4.176   9.877 -0.1558  0.1088  0.2233
 1594W        W 3794  11.151   5.742  17.047  0.0898  0.0505  0.1724
 1595W        W 3795   3.556   5.137   0.417 -0.1303  0.2070 -0.0518
 1596W        W 3796  21.754   0.074  18.973 -0.0275 -0.1680  0.2073
 1597W        W 3797  26.922   5.764   2.547 -0.0455 -0.0505  0.0641
 1598W        W 3798  27.295   3.238   5.558  0.2041  0.3151 -0.0348
 1599W        W 3799  27.073   4.437  19.063 -0.1096 -0.0565  0.0338
 1600W        W 3800  15.686   0.180   0.170 -0.0236 -0.0667  0.2246
 1601W        W 3801   3.557   6.227  23.907 -0.2545  0.0890  0.1626
 1602W        W 3802  11.092   7.206   7.210  0.1835  0.2264  0.0652
 1603W        W 3803  14.567   6.654  25.542 -0.0468  0.2056 -0.0511
 1604W        W 3804  17.522   3.522  18.077  0.1539  0.1849 -0.1218
 1605W        W 3805  29.013   0.530   7.426 -0.2425 -0.0551 -0.1888
 1606W        W 3806  28.871   3.414  22.804 -0.1064  0.2343 -0.1381
 1607W        W 3807   6.687   4.822  25.582  0.0025  0.3040 -0.0833
 1608W        W 3808   5.015   5.052   8.019 -0.1799  0.5189 -0.4190
 1609W        W 3809  13.341   4.915  24.804  0.1396  0.2261  0.2504
 1610W        W 3810  16.116   7.351  21.795  0.0865 -0.1598 -0.0173
 1611W        W 3811   4.356   7.719  17.373  0.2422  0.2801  0.1009
 1612W        W 3812   0.455   6.651  24.627  0.0024 -0.2277  0.1004
 1613W        W 3813  15.979   7.177   2.473 -0.1412 -0.0850 -0.0538
 1614W        W 3814  25.634   0.994  10.817 -0.0372 -0.0298 -0.3194
 1615W        W 3815   6.930   7.732  17.958  0.1783 -0.1031 -0.0613
 1616W        W 3816  21.320   4.595  18.536 -0.2432 -0.0921  0.0376
 1617W        W 3817  14.695   4.589  15.143 -0.1974 -0.0458  0.3709
 1618W        W 3818  14.653   5.580   3.093 -0.1802 -0.2351 -0.2355
 1619W        W 3819   9.959   5.636   9.065 -0.0340 -0.1906  0.0551
 1620W        W 3820  12.320   1.772   9.023  0.0261 -0.0007  0.0682
 1621W        W 3821  17.726   5.624  21.624 -0.0424 -0.2628 -0.2087
 1622W        W 3822   2.641   1.364   4.158 -0.0149  0.1865 -0.0088
 1623W        W 3823   3.206   4.187  20.552  0.3069  0.1175 -0.3031
 1624W        W 3824  13.270   7.751  10.308  0.1181 -0.0235  0.0815
 1625W        W 3825  16.350   0.400   0.739  0.1791  0.1620  0.0125
 1626W        W 3826   1.279   3.670  23.888  0.0727  0.0399  0.1380
 1627W        W 3827  23.733   2.815  25.898 -0.0597 -0.0407 -0.0707
 1628W        W 3828   2.187   7.649  23.535 -0.0295  0.2360 -0.0619
 1629W        W 3829  26.557   4.045  21.228 -0.2011  0.0866 -0.0820
 1630W        W 3830  24.209   3.427   3.201  0.0593  0.0180  0.0863
 1631W        W 3831  26.493   2.782  23.697  0.1227  0.1674  0.0830
 1632W        W 3832   1.057   5.303   9.249  0.2970 -0.5198  0.0400
 1633W        W 3833  18.711   1.813  11.553  0.2524  0.0822  0.1884
 1634W        W 3834   9.471   0.912   5.931 -0.1670 -0.0845  0.0871
 1635W        W 3835  19.782   4.112   9.370 -0.2038 -0.1613 -0.3273
 1636W        W 3836   6.100   1.327  21.334  0.2946  0.1944  0.0556
 1637W        W 3837  19.908   5.544  21.441  0.2967 -0.2372  0.0400
 1638W        W 3838  16.866   2.527  25.053 -0.0304  0.1755  0.0046
 1639W        W 3839  31.118   7.185  22.512 -0.0287  0.0349 -0.1842
 1640W        W 3840  26.631   5.829  18.586 -0.1088  0.1082  0.1389
 1641W        W 3841  17.066   4.070   5.771  0.0958 -0.2771  0.1309
 1642W        W 3842  24.102   4.525   2.680  0.0031 -0.0901  0.2669
 1643W        W 3843  25.135   3.457  15.670  0.2081 -0.1618 -0.0270
 1644W        W 3844  30.918   5.330  24.916  0.0215  0.0564  0.1757
 1645W        W 3845  14.398   4.654   3.815 -0.3752  0.1589 -0.0472
 1646W        W 3846   7.914   5.362  22.328 -0.1794  0.0982 -0.0940
 1647W        W 3847   8.686   7.296  19.267  0.1383 -0.1788  0.1864
 1648W        W 3848  23.396   1.661   4.323  0.2486 -0.1548  0.3718
 1649W        W 3849   4.981   1.540   9.902  0.1686 -0.2664 -0.0511
 1650W        W 3850  30.418   0.823   6.810 -0.0947 -0.3246 -0.0732
 1651W        W 3851  19.857   1.767  10.198  0.0079  0.1032 -0.0608
 1652W        W 3852  28.962   5.329  19.492  0.1120  0.0556  0.0424
 1653W        W 3853  12.199   3.644  15.910  0.0874 -0.0057 -0.0635
 1654W        W 3854  17.153   4.249  23.909  0.1811  0.0331 -0.0466
 1655W        W 3855  27.612   2.655  20.610 -0.0618 -0.0435 -0.1078
 1656W        W 3856  23.834   2.489   8.995  0.0558  0.0980 -0.2980
 1657W        W 3857  11.529   4.967  17.735 -0.1749  0.3414  0.2227
 1658W        W 3858  25.716   5.708   3.679  0.0654 -0.0457 -0.1642
 1659W        W 3859  22.870   7.163   9.019  0.1767 -0.2860  0.3626
 1660W        W 3860  23.128   1.276  19.574 -0.0882 -0.0407  0.1415
 1661W        W 3861  26.900   6.773  17.719 -0.2972  0.1703  0.1027
 1662W        W 3862   9.351   6.508  17.840  0.0444 -0.0991 -0.2449
 1663W        W 3863   7.966   7.097   9.658  0.3062 -0.0957  0.0315
 1664W        W 3864  23.727   0.753  25.652  0.1948  0.0431  0.0626
 1665W        W 3865  26.325   7.166   5.719  0.5519  0.4969 -0.3280
 1666W        W 3866  17.334   0.738   2.001  0.0713 -0.1099 -0.4179
 1667W        W 3867  10.821   6.631   1.258  0.0252 -0.0477 -0.0404
 1668W        W 3868  15.331   5.028  17.777 -0.0954  0.1743 -0.2881
 1669W        W 3869   5.929   6.135   0.650  0.0701  0.0808  0.1198
 1670W        W 3870   2.658   1.033  20.610  0.3795  0.0214  0.0757
 1671W        W 3871  17.240   5.992   5.333  0.1553  0.0278 -0.0830
 1672W        W 3872  12.396   6.250  19.717 -0.4183 -0.1482 -0.2100
 1673W        W 3873  31.436   6.895  20.547 -0.4301 -0.4938  0.0621
 1674W        W 3874  10.146   3.508   0.257 -0.1753 -0.0020 -0.1610
 1675W        W 3875  10.927   7.615   7.500 -0.1024  0.0294  0.1557
 1676W        W 3876  18.191   2.378   4.066  0.0978 -0.0030  0.1319
 1677W        W 3877  23.987   1.803  16.646  0.1174 -0.2667 -0.1175
 1678W        W 3878  10.260   1.738  24.906 -0.0872  0.3118 -0.0668
 1679W        W 3879   7.861   2.296   0.433 -0.0766 -0.0251  0.0845
 1680W        W 3880  28.932   6.147   3.448 -0.0555  0.0386  0.0684
 1681W        W 3881   8.546   0.711   3.089  0.0041  0.0711 -0.0032
 1682W        W 3882  17.141   0.132  10.101 -0.2175  0.0912 -0.0547
 1683W        W 3883  12.255   4.409  23.869  0.0476 -0.2492 -0.1295
 1684W        W 3884  15.724   4.159   1.439  0.0567  0.2016  0.1330
 1685W        W 3885  23.781   6.308  18.200  0.1076 -0.1212 -0.0912
 1686W        W 3886  18.392   1.017  21.166  0.0948  0.2017  0.1956
 1687W        W 3887  13.041   5.403  18.765 -0.1410  0.1145  0.3515
 1688W        W 3888  26.039   5.804  17.155  0.0852  0.0322 -0.0633
 1689W        W 3889   2.144   1.350   1.081  0.1371 -0.2262 -0.1284
 1690W        W 3890  26.557   1.682  24.410 -0.1900 -0.0617 -0.1098
 1691W        W 3891   6.368   1.247   6.238  0.0878 -0.3059  0.4297
 1692W        W 3892  17.550   2.465   7.509 -0.1991  0.0580 -0.2232
 1693W        W 3893   4.924   4.827  23.160  0.4581  0.0252  0.0411
 1694W        W 3894   4.523   7.084   8.253 -0.0391 -0.0475  0.1419
 1695W        W 3895   7.695   0.355  20.391  0.0866 -0.2450 -0.1009
 1696W        W 3896  30.398   3.631   6.220  0.1057  0.2039  0.2945
 1697W        W 3897   0.873   4.768  25.219  0.3359 -0.1339 -0.0338
 1698W        W 3898   1.665   1.138   2.795 -0.0087 -0.2653 -0.0149
 1699W        W 3899  17.202   5.005   6.090  0.0002 -0.1181  0.0119
 1700W        W 3900   2.924   4.501   8.457  0.5037 -0.0809  0.1143
 1701W        W 3901  12.777   2.230  23.241  0.2261  0.2498  0.0282
 1702W        W 3902  21.804   3.434   5.715  0.0454  0.0508 -0.0985
 1703W        W 3903  17.410   7.664  16.263  0.3519 -0.0150  0.0134
 1704W        W 3904   4.353   3.364   1.331 -0.2316 -0.0657  0.0342
 1705W        W 3905  10.108   4.797   0.558 -0.1454  0.1975  0.0110
 1706W        W 3906   2.584   2.552   2.794  0.1646  0.1402 -0.0628
 1707W        W 3907   5.787   2.860  19.512  0.0695 -0.0375 -0.1685
 1708W        W 3908  20.718   3.590  16.324 -0.0548  0.4303 -0.0946
 1709W        W 3909  16.975   1.063   2.413  0.1214  0.0904 -0.2389
 1710W        W 3910  19.175   0.052   5.588  0.1628 -0.0394 -0.2478
 1711W        W 3911  22.918   5.973   1.910  0.3217 -0.2128 -0.5202
 1712W        W 3912  27.711   2.032  17.176 -0.0880 -0.1601 -0.0516
 1713W        W 3913  14.709   7.250   8.408 -0.1637 -0.1010 -0.0908
 1714W        W 3914   1.330   1.542  22.837 -0.0361 -0.3094  0.0075
 1715W        W 3915   4.579   6.223   9.067  0.0605 -0.2221  0.0922
 1716W        W 3916   4.053   3.733   1.457  0.0426  0.1330  0.0128
 1717W        W 3917  19.677   7.099  16.153 -0.1388 -0.2424 -0.1523
 1718W        W 3918  13.268   3.239  21.791  0.2430  0.3385 -0.2387
 1719W        W 3919  18.982   5.211  20.780 -0.2976  0.1123  0.0223
 1720W        W 3920   5.323   2.250   8.972 -0.1089  0.3288  0.1114
 1721W        W 3921   0.334   4.025  23.379  0.0655  0.1356  0.0612
 1722W        W 3922  30.453   6.329  10.707  0.0424 -0.3310  0.1797
 1723W        W 3923  11.295   0.769  15.262 -0.1143  0.2156 -0.1857
 1724W        W 3924  31.289   3.533   4.504  0.0218  0.3355 -0.0351
 1725W        W 3925  23.635   5.833  20.096  0.1450  0.0984  0.0389
 1726W        W 3926  27.870   4.311  23.334 -0.1963  0.0092  0.2092
 1727W        W 3927   9.940   0.593   7.715  0.0588 -0.1264 -0.0286
 1728W        W 3928  24.330   1.371   9.601  0.0511  0.0216 -0.1286
 1729W        W 3929  12.540   2.080  18.893 -0.3335  0.2041  0.1133
 1730W        W 3930  14.619   7.049   2.687  0.0883  0.0581 -0.1289
 1731W        W 3931  26.792   7.772  17.796 -0.1394  0.0879 -0.0070
 1732W        W 3932   1.248   3.794   9.853 -0.1618 -0.0054 -0.2265
 1733W        W 3933  21.116   1.366  24.750 -0.0334 -0.0172 -0.1622
 1734W        W 3934   9.000   2.315  25.939  0.3047  0.0325 -0.2111
 1735W        W 3935  26.169   4.385  10.354 -0.1862 -0.2890 -0.0525
 1736W        W 3936   4.482   0.276  22.035  0.3425  0.0655 -0.3257
 1737W        W 3937  26.572   1.461  17.295 -0.1539 -0.0199 -0.0511
 1738W        W 3938  19.692   1.345  20.571 -0.0708 -0.0143  0.0122
 1739W        W 3939  20.554   2.790  17.321  0.3326  0.0264  0.1979
 1740W        W 3940  28.868   0.119  18.671 -0.0819 -0.2676 -0.3786
 1741W        W 3941   3.035   4.681  25.547  0.2211 -0.0795  0.0470
 1742W        W 3942  13.620   4.593  23.176  0.0750  0.1168  0.0905
 1743W        W 3943  10.818   3.161  18.525 -0.0388 -0.0180  0.2084
 1744W        W 3944  15.828   2.094   3.813  0.0560 -0.2145  0.1485
 1745W        W 3945  23.888   1.693  16.164 -0.2381  0.1499 -0.1500
 1746W        W 3946   1.840   3.284  19.952  0.5736  0.1902 -0.1969
 1747W        W 3947  17.455   0.755   6.037 -0.0591 -0.1452  0.1633
 1748W        W 3948  22.366   0.144  22.459  0.0619 -0.2216  0.0458
 1749W        W 3949  11.208   5.097  18.754  0.0557 -0.1769 -0.2452
 1750W        W 3950  15.082   1.233  11.310  0.0811  0.1686  0.1064
 1751W        W 3951  30.129   6.620  15.585 -0.1789  0.1244  0.3225
 1752W        W 3952  12.807   0.541  10.028  0.0046 -0.1043 -0.4497
 1753W        W 3953  17.107   5.259   8.691 -0.0874 -0.0427 -0.0588
 1754W        W 3954  29.708   3.488   6.492 -0.3012 -0.1687  0.0047
 1755W        W 3955   1.686   2.490  25.705 -0.1480 -0.1408  0.1938
 1756W        W 3956  21.256   6.747  22.209 -0.1060  0.3266 -0.2501
 1757W        W 3957   1.582   6.199  19.040 -0.0995 -0.0304 -0.2959
 1758W        W 3958  13.695   5.318   4.645  0.2313  0.0353  0.1503
 1759W        W 3959   3.145   7.162  18.121 -0.1169 -0.1800  0.0520
 1760W        W 3960  20.952   0.634  23.709  0.0951 -0.2628  0.0529
 1761W        W 3961  18.167   5.043  21.526 -0.0063 -0.3984  0.0335
 1762W        W 3962  24.513   5.062  16.711  0.1743  0.0998  0.1441
 1763W        W 3963  25.875   3.222  16.906 -0.1724 -0.0380 -0.0463
 1764W        W 3964  30.018   7.550   1.539 -0.1102 -0.0188  0.0461
 1765W        W 3965   5.444   6.941  22.970  0.0520  0.0606  0.0457
 1766W        W 3966  24.187   6.581  20.098  0.3077 -0.2847  0.0943
 1767W        W 3967  27.593   3.847  23.256  0.2942 -0.3466 -0.2780
 1768W        W 3968  19.602   1.713  25.312  0.1319 -0.2053  0.0513
 1769W        W 3969   2.853   4.743   3.993  0.0683  0.0855  0.1930
 1770W        W 3970  16.876   4.750  17.492  0.2019 -0.0322  0.2691
 1771W        W 3971  11.841   6.357  16.908 -0.2096 -0.3176 -0.0408
 1772W        W 3972  27.335   3.844  16.825 -0.0719  0.1192  0.1489
 1773W        W 3973   4.233   7.609  21.416 -0.1383  0.3532  0.1184
 1774W        W 3974   1.471   1.406   3.226  0.0533 -0.0260  0.1510
 1775W        W 3975   8.683   2.704   4.115  0.0577  0.2389 -0.0695
 1776W        W 3976   6.519   0.368   1.922  0.1436  0.0814 -0.0374
 1777W        W 3977   8.273   1.793  18.585 -0.2065 -0.0893  0.2374
 1778W        W 3978  12.284   7.332   0.147 -0.0385  0.0107  0.0222
 1779W        W 3979  23.255   3.483  22.975 -0.1336 -0.2933  0.0453
 1780W        W 3980  13.073   1.284   7.094 -0.1437  0.1917  0.1745
 1781W        W 3981  24.638   7.217   3.871 -0.0956  0.1789 -0.0211
 1782W        W 3982  16.696   1.054  23.060 -0.0290 -0.0747  0.0050
 1783W        W 3983  14.686   4.186  21.759 -0.1275  0.1045  0.0226
 1784W        W 3984  25.860   2.719  18.188 -0.0585  0.0352  0.1220
 1785W        W 3985  28.229   7.150  15.215 -0.1855  0.1480 -0.0251
 1786W        W 3986  22.928   0.427   1.663 -0.0182  0.1375  0.1591
 1787W        W 3987   2.717   6.299  14.831  0.1984 -0.0798  0.0428
 1788W        W 3988   1.386   4.901   1.600 -0.2106 -0.0544  0.1495
 1789W        W 3989  11.276   4.385   9.548 -0.2176  0.3466  0.1074
 1790W        W 3990   7.145   1.091  24.702  0.2473  0.1608  0.0848
 1791W        W 3991  10.737   4.236   4.212 -0.0052 -0.0509 -0.3324
 1792W        W 3992  12.271   3.204  18.162  0.0072  0.2717 -0.0785
 1793W        W 3993  19.630   5.675  17.726  0.1340 -0.0934  0.0804
 1794W        W 3994  12.932   3.653   0.611  0.0668  0.0361 -0.1784
 1795W        W 3995  27.982   0.711   6.415  0.1105 -0.2083 -0.1135
 1796W        W 3996   0.942   5.302  20.591  0.2154 -0.2566 -0.3181
 1797W        W 3997  15.531   5.060  16.008  0.1991 -0.0823  0.1604
 1798W        W 3998  19.657   3.883  21.721  0.4243 -0.1445 -0.2936
 1799W        W 3999   5.543   5.032  14.595 -0.1228  0.0578  0.0980
 1800W        W 4000   7.165   2.515   6.505  0.1987  0.0925  0.3541
 1801W        W 4001   5.237   2.400   1.804 -0.0749 -0.0130  0.0639
 1802W        W 4002   6.937   7.737   5.476  0.0569 -0.3625 -0.2233
 1803W        W 4003  11.770   1.459  23.675 -0.1725 -0.0058  0.0650
 1804W        W 4004   2.755   7.239  18.430 -0.1195 -0.0665  0.0860
 1805W        W 4005   8.727   0.227   5.827  0.2165 -0.0917  0.3041
 1806W        W 4006  11.417   1.432  16.084  0.3261 -0.2119 -0.1967
 1807W        W 4007  19.014   7.134  23.251 -0.1271 -0.2644 -0.2831
 1808W        W 4008   7.870   1.572  10.541  0.0576 -0.0518 -0.0659
 1809W        W 4009  11.757   2.309  10.121 -0.1345 -0.0639  0.0923
 1810W        W 4010   7.777   3.353  20.869  0.0575  0.0127 -0.0474
 1811W        W 4011  23.257   0.278   5.904 -0.2440 -0.0393  0.0142
 1812W        W 4012  11.577   5.851   9.967 -0.2395  0.2497  0.1977
 1813W        W 4013  15.994   3.746   2.755 -0.1348  0.0363 -0.0591
 1814W        W 4014  16.105   4.307  23.607  0.0923  0.0196 -0.2135
 1815W        W 4015  24.512   0.071   0.068  0.0953  0.1395 -0.0480
 1816W        W 4016   1.219   2.897  20.686  0.1434 -0.0587 -0.2185
 1817W        W 4017   6.279   3.901  22.183  0.2445  0.3245  0.0306
 1818W        W 4018   2.003   6.044   0.905  0.1100  0.0789  0.3189
 1819W        W 4019   7.503   2.403   1.337 -0.2495  0.1394 -0.3375
 1820W        W 4020  14.560   6.790  25.049  0.0289  0.1065 -0.1369
 1821W        W 4021   7.964   5.583  18.786  0.1505  0.0647 -0.2926
 1822W        W 4022   1.395   3.799   0.188 -0.1242  0.2067  0.3465
 1823W        W 4023  23.581   7.255   6.301  0.0283  0.0988  0.2183
 1824W        W 4024  27.944   5.894   1.950  0.0647 -0.0151 -0.0367
 1825W        W 4025  22.206   3.830   2.557 -0.0585  0.1246 -0.1002
 1826W        W 4026   6.960   1.870  15.347  0.1802  0.2057  0.1663
 1827W        W 4027   8.529   6.860  22.409  0.3971 -0.0507 -0.2001
 1828W        W 4028  23.805   3.936   4.929  0.0526 -0.1935 -0.1923
 1829W        W 4029   0.438   6.636   1.701 -0.0232 -0.1711 -0.0140
 1830W        W 4030   5.835   2.164  23.178 -0.0112 -0.3105  0.2900
 1831W        W 4031  17.004   2.817   2.792  0.1012 -0.1300 -0.2846
 1832W        W 4032  20.435   6.767   8.645  0.2708  0.2429  0.1200
 1833W        W 4033  30.897   6.761  21.936 -0.0607  0.2178 -0.0620
 1834W        W 4034  21.283   0.130  18.744  0.0979 -0.1470 -0.0588
 1835W        W 4035  21.164   4.193  16.282  0.0005  0.0923 -0.1266
 1836W        W 4036  30.439   1.528  17.205  0.0836 -0.1457 -0.0764
 1837W        W 4037  20.133   5.245   3.809  0.2900 -0.0553  0.1727
 1838W        W 4038   5.586   1.137   8.151 -0.1165 -0.0648 -0.0316
 1839W        W 4039  12.441   1.514   4.658  0.0124  0.2690  0.3298
 1840W        W 4040  24.203   5.581  19.265  0.1503 -0.1013 -0.0858
 1841W        W 4041  20.026   0.965  24.066 -0.0872  0.0406  0.2225
 1842W        W 4042  15.642   1.247   5.891 -0.0072  0.1466 -0.3223
 1843W        W 4043  16.404   3.429   2.665  0.3732 -0.2254 -0.1122
 1844W        W 4044  11.201   4.622   7.222 -0.3335 -0.1084  0.0148
 1845W        W 4045   8.766   1.156   4.583 -0.3146 -0.1859  0.1283
 1846W        W 4046  10.110   6.978   8.785  0.2607 -0.0714  0.2359
 1847W        W 4047   4.334   0.432  25.374 -0.1808  0.1368  0.1791
 1848W        W 4048  15.934   2.221   8.573  0.3100  0.3225 -0.2850
 1849W        W 4049  13.080   7.170  15.251  0.3181 -0.3119  0.1641
 1850W        W 4050  19.361   2.236   9.392  0.0618  0.2215  0.0968
 1851W        W 4051  18.608   0.687   3.694  0.1320 -0.0366  0.2554
 1852W        W 4052  10.353   1.285   5.817  0.2391  0.1194  0.1246
 1853W        W 4053  30.371   3.688  18.202 -0.3037 -0.1349  0.0896
 1854W        W 4054   9.710   7.071   5.765 -0.1913  0.1800 -0.1915
 1855W        W 4055  18.970   2.842  10.115  0.2756  0.2015 -0.0283
 1856W        W 4056  24.756   1.382  19.163  0.2672 -0.1730  0.2244
 1857W        W 4057   1.343   5.438  14.636 -0.0363 -0.1542 -0.2631
 1858W        W 4058  18.820   5.447  18.789  0.0771 -0.0823  0.0024
 1859W        W 4059  14.730   5.063  18.477  0.1656  0.1403  0.0026
 1860W        W 4060  28.969   0.743  16.508 -0.2320  0.1592  0.0456
 1861W        W 4061  22.713   0.490   1.078 -0.2469  0.0937 -0.1174
 1862W        W 4062  22.653   6.405  20.694 -0.0476  0.4223 -0.0420
 1863W        W 4063  13.196   3.387   0.253 -0.1512 -0.1805 -0.0818
 1864W        W 4064   8.275   2.578   8.905 -0.0830  0.2026  0.0978
 1865W        W 4065  18.418   2.518   2.531 -0.1927 -0.0132 -0.0469
 1866W        W 4066  13.724   6.891  23.089  0.2763 -0.0688 -0.0189
 1867W        W 4067   0.924   3.400   8.508 -0.1735 -0.3705 -0.3538
 1868W        W 4068  14.845   4.014   4.980 -0.2839 -0.1498 -0.0673
 1869W        W 4069  28.233   1.741   9.201 -0.0382  0.1000  0.1836
 1870W        W 4070  13.721   2.266  21.950 -0.2681  0.1378  0.1436
 1871W        W 4071  18.396   5.895  17.732 -0.0371 -0.0289 -0.1111
 1872W        W 4072  20.994   1.774  11.196  0.0944 -0.3399  0.3276
 1873W        W 4073   8.877   3.555  16.583 -0.1493 -0.2206  0.2623
 1874W        W 4074  11.559   1.651  22.713 -0.1262  0.3442  0.2062
 1875W        W 4075  16.836   0.490  21.859 -0.0907 -0.1016 -0.0041
 1876W        W 4076   7.319   5.121  21.395 -0.0919  0.1355  0.1145
 1877W        W 4077  14.376   7.360   1.589 -0.2069 -0.3303 -0.0374
 1878W        W 4078  14.919   4.872  10.783  0.1666  0.0213  0.2800
 1879W        W 4079  13.026   7.279   9.003  0.2042 -0.0130  0.1921
 1880W        W 4080   9.868   6.582   4.298  0.1776  0.1250 -0.0296
 1881W        W 4081  26.787   0.980   0.584  0.0175 -0.0743 -0.2574
 1882W        W 4082  24.436   1.833   6.299  0.1889 -0.1416  0.0118
 1883W        W 4083   5.246   7.382  23.166 -0.1566 -0.0916  0.2070
 1884W        W 4084  22.156   3.165  19.246  0.0443  0.1367 -0.0937
 1885W        W 4085   0.824   4.633  19.090  0.0156  0.2615  0.0158
 1886W        W 4086  16.923   1.667   2.501  0.3387 -0.1235 -0.1086
 1887W        W 4087  17.735   3.971  20.252 -0.1701  0.0926 -0.0870
 1888W        W 4088  18.188   0.400   1.422 -0.0416  0.3765  0.1632
 1889W        W 4089  28.824   7.824   1.645 -0.1359  0.1150 -0.3689
 1890W        W 4090  22.096   5.107   7.209 -0.2589 -0.1124  0.2888
 1891W        W 4091  17.591   1.962  22.460 -0.2122  0.2989 -0.0187
 1892W        W 4092  14.204   2.929  17.715 -0.2611  0.0953  0.2569
 1893W        W 4093  13.735   6.544   1.546  0.0246  0.1923  0.2918
 1894W        W 4094  11.372   0.954   7.216  0.2561 -0.1015  0.2203
 1895W        W 4095   9.869   5.023  25.678  0.1786  0.1846 -0.2415
 1896W        W 4096   2.248   7.806   6.072  0.0843  0.0045 -0.0388
 1897W        W 4097  20.890   7.144  16.491  0.1374  0.0168  0.0198
 1898W        W 4098   5.923   6.779   7.432  0.1704 -0.0755 -0.0276
 1899W        W 4099  23.874   1.561  22.544 -0.1735 -0.1926  0.0659
 1900W        W 4100  17.667   2.370   6.994  0.0626 -0.0474 -0.1348
 1901W        W 4101  21.230   5.589   3.507 -0.3465 -0.1392 -0.2949
 1902W        W 4102  27.253   6.859   8.917  0.0665 -0.3244  0.1504
 1903W        W 4103  31.349   6.168   8.808  0.0999 -0.0704 -0.3466
 1904W        W 4104  21.435   6.218  25.634 -0.0224  0.3384 -0.1049
 1905W        W 4105  19.955   2.031   2.233  0.1181  0.4136 -0.0316
 1906W        W 4106  18.984   0.872  16.049 -0.0459 -0.0348 -0.1423
 1907W        W 4107  14.373   6.050  24.824 -0.0065 -0.1116 -0.3403
 1908W        W 4108  20.280   2.579   6.903 -0.1174  0.0632  0.2830
 1909W        W 4109   0.581   1.297   4.410  0.0766  0.1980 -0.2828
 1910W        W 4110  17.689   0.304   5.268  0.2352 -0.1384 -0.0466
 1911W        W 4111  20.198   2.316  22.802  0.0523  0.0791 -0.1721
 1912W        W 4112  17.368   4.350  20.277 -0.3627 -0.0604 -0.0136
 1913W        W 4113  29.217   6.451   5.579 -0.1025 -0.3549  0.2252
 1914W        W 4114  15.279   5.720  25.828 -0.2384  0.4216 -0.1048
 1915W        W 4115   3.294   2.381   4.350  0.4758  0.1061  0.1309
 1916W        W 4116  14.994   1.978  18.676  0.2114  0.1149  0.2154
 1917W        W 4117   1.483   7.007  16.145  0.2710 -0.0544 -0.2405
 1918W        W 4118   8.530   1.563   2.581 -0.1087 -0.2384 -0.1337
 1919W        W 4119  21.937   5.000  17.798  0.1901  0.1540  0.0607
 1920W        W 4120  17.899   5.324   8.031 -0.2109 -0.0992 -0.0337
 1921W        W 4121  30.919   1.328   4.149 -0.2033 -0.0805  0.0601
 1922W        W 4122   9.852   1.611   9.316 -0.2284 -0.1560 -0.2265
 1923W        W 4123  27.282   0.900   3.226  0.1388 -0.0157 -0.3245
 1924W        W 4124   2.181   3.323  23.698 -0.0977 -0.0898  0.0269
 1925W        W 4125  21.859   7.675  16.239 -0.1629 -0.0991 -0.0049
 1926W        W 4126   2.032   1.232  22.518  0.2174 -0.2406 -0.1433
 1927W        W 4127  30.127   2.132  20.506 -0.0142  0.2842 -0.2027
 1928W        W 4128   9.089   1.192  15.156  0.2762 -0.0032 -0.1297
 1929W        W 4129  15.967   1.871  24.868  0.1589 -0.1231  0.1725
 1930W        W 4130   0.571   3.133   4.509  0.2176 -0.1247  0.0125
 1931W        W 4131   5.420   7.286   2.109  0.2463  0.2008 -0.0485
 1932W        W 4132  21.741   0.064  10.068 -0.1173 -0.1503  0.2519
 1933W        W 4133   6.998   7.185   0.934 -0.0750  0.0383  0.0646
 1934W        W 4134  17.413   7.859  19.704  0.1304 -0.1462 -0.1421
 1935W        W 4135  20.466   3.863   2.364 -0.2078  0.1152 -0.1622
 1936W        W 4136  12.072   6.692   6.301  0.0951  0.2523 -0.2638
 1937W        W 4137  18.509   6.431  23.782 -0.0636 -0.1152  0.1286
 1938W        W 4138   9.505   6.302   0.532 -0.0827 -0.1477 -0.0259
 1939W        W 4139  21.307   5.937   9.749  0.1452 -0.1549 -0.2136
 1940W        W 4140  27.461   7.493  22.817  0.0640 -0.1629 -0.2112
 1941W        W 4141  25.460   0.814  15.814 -0.2165 -0.3726  0.1287
 1942W        W 4142   7.222   3.578  18.283  0.0517  0.0931 -0.0469
 1943W        W 4143  12.425   3.586  18.588  0.1095  0.0899  0.1619
 1944W        W 4144   4.526   0.972   2.031 -0.0699 -0.4069  0.3497
 1945W        W 4145  20.403   2.572  11.033 -0.1265 -0.2200  0.4794
 1946W        W 4146  22.206   7.157  16.038  0.1214 -0.2160 -0.1143
 1947W        W 4147  30.597   0.216  19.354  0.1073  0.5815 -0.2260
 1948W        W 4148  26.933   5.779   9.750 -0.0167 -0.0671  0.1139
 1949W        W 4149  21.620   6.402   3.145  0.0344 -0.0250 -0.0221
 1950W        W 4150  30.331   3.271  19.228  0.3553 -0.0651 -0.0325
 1951W        W 4151   7.379   0.820  17.784 -0.1800  0.3635  0.2009
 1952W        W 4152   4.613   1.338   5.409  0.0594  0.0401 -0.0623
 1953W        W 4153  16.676   6.704   6.462  0.2228  0.1943  0.3100
 1954W        W 4154  29.040   7.362   3.984  0.2224 -0.0578 -0.1139
 1955W        W 4155  17.169   6.079  20.759  0.3549  0.2040 -0.1100
 1956W        W 4156  11.111   4.050  19.455 -0.1621  0.2159  0.0050
 1957W        W 4157  12.418   7.805   7.423 -0.0611 -0.0760  0.0307
 1958W        W 4158  23.976   6.088   1.051  0.3652  0.1714 -0.2583
 1959W        W 4159  21.628   6.196  25.159 -0.2353  0.0435  0.1805
 1960W        W 4160  27.728   3.802  25.257 -0.2823  0.1828 -0.4651
 1961W        W 4161   5.313   7.707   8.386 -0.0540  0.1299 -0.4730
 1962W        W 4162   4.384   6.028  23.745  0.0068 -0.3190 -0.4407
 1963W        W 4163  10.606   1.705   9.012 -0.2035 -0.0962 -0.0421
 1964W        W 4164  21.876   2.333  14.849  0.1039  0.0407  0.1042
 1965W        W 4165   1.711   5.288  16.428 -0.0916  0.1013  0.1007
 1966W        W 4166   7.401   2.036  24.374  0.1465 -0.0858 -0.1094
 1967W        W 4167  17.585   1.497  23.819  0.2793 -0.0160  0.0339
 1968W        W 4168  19.063   2.050  25.210  0.0862 -0.0402  0.0387
 1969W        W 4169   7.127   4.574  18.665  0.0591  0.1073  0.2702
 1970W        W 4170  18.111   6.527   2.499  0.1198 -0.1403 -0.0603
 1971W        W 4171  25.210   4.574  10.738  0.1340  0.2179 -0.0047
 1972W        W 4172  19.664   7.299   1.690  0.1768 -0.0234  0.2110
 1973W        W 4173  23.697   5.790   4.437 -0.1252 -0.0238 -0.2633
 1974W        W 4174  26.810   6.726   3.990  0.0358 -0.0521  0.3904
 1975W        W 4175   7.079   4.964  22.337  0.0670  0.1235  0.1568
 1976W        W 4176   4.673   4.784  18.911  0.0350 -0.1651  0.0387
 1977W        W 4177   2.925   7.457  19.629 -0.2185 -0.2422 -0.1225
 1978W        W 4178  27.154   1.368  25.545  0.1111 -0.2922  0.1510
 1979W        W 4179   6.151   4.686   7.119 -0.0755  0.0803  0.1431
 1980W        W 4180  24.061   3.578  10.321 -0.1789  0.0131 -0.0906
 1981W        W 4181  22.098   5.958  15.737 -0.0397  0.0914 -0.2580
 1982W        W 4182  14.225   5.986  10.383  0.0688 -0.2758 -0.1541
 1983W        W 4183  27.845   4.955   2.019 -0.0943  0.1733 -0.0437
 1984W        W 4184   4.142   5.351  17.322  0.1175  0.2578 -0.4339
 1985W        W 4185  21.859   1.403  22.558  0.2103  0.2891 -0.2178
 1986W        W 4186  22.816   1.234   9.534  0.2770 -0.0237  0.1025
 1987W        W 4187  20.724   5.589   7.300 -0.0706 -0.0788 -0.2197
 1988W        W 4188  30.918   0.823  25.965  0.1026  0.1652 -0.0552
 1989W        W 4189  17.366   3.308  15.178 -0.3197 -0.0208  0.1139
 1990W        W 4190  19.390   3.570  21.450  0.2781  0.0628  0.0824
 1991W        W 4191  18.302   7.273  16.013  0.1366  0.2041  0.3928
 1992W        W 4192  13.950   0.667  16.203 -0.1590 -0.0173 -0.0787
 1993W        W 4193  28.566   3.126   7.158 -0.2283 -0.0992  0.0610
 1994W        W 4194  14.976   4.755  18.115  0.1279 -0.3275  0.2943
 1995W        W 4195   4.073   6.049   2.735  0.2861  0.2973  0.3196
 1996W        W 4196  10.350   6.750  23.121 -0.0796  0.2731  0.2463
 1997W        W 4197   1.291   3.459  20.062  0.0904  0.2466 -0.6303
 1998W        W 4198  30.274   0.791  15.832  0.3853 -0.0941  0.2047
 1999W        W 4199  12.374   4.449  16.901 -0.0234 -0.1965 -0.0547
 2000W        W 4200  11.013   1.319  16.662 -0.0764  0.2157  0.2373
 2001W        W 4201  26.842   0.311   3.865 -0.0207 -0.0493  0.0088
 2002W        W 4202  26.165   3.668   8.656  0.0039  0.1761  0.1090
 2003W        W 4203  29.859   0.485  19.709 -0.0567  0.1360 -0.3016
 2004W        W 4204   7.953   2.602   4.615  0.0731 -0.0505 -0.0872
 2005W        W 4205  20.172   4.708   3.021 -0.0314  0.2510 -0.1644
 2006W        W 4206  19.487   1.643   4.143  0.0594  0.3254 -0.1015
 2007W        W 4207  23.339   2.277  15.346 -0.2257  0.2283  0.1590
 2008W        W 4208   0.723   5.937   8.569  0.1619 -0.0073  0.0521
 2009W        W 4209   7.758   1.114  17.581 -0.1974 -0.1561  0.0451
 2010W        W 4210  10.965   1.564  23.994  0.3908  0.1051 -0.1335
 2011W        W 4211  17.573   5.316   3.235  0.1386  0.0813 -0.2024
 2012W        W 4212  10.984   1.593   5.349  0.3103 -0.0226 -0.3696
 2013W        W 4213   3.265   5.625  16.396  0.1201 -0.1052  0.3050
 2014W        W 4214  23.852   5.624   0.402  0.1652  0.1735 -0.1282
 2015W        W 4215   8.274   0.798   4.418 -0.0873 -0.1041  0.0046
 2016W        W 4216  24.137   5.132  15.762 -0.1566  0.1542  0.0256
 2017W        W 4217  23.067   6.668  25.486 -0.1292 -0.0726  0.0233
 2018W        W 4218   4.120   7.636   2.793  0.1090 -0.0299 -0.1396
 2019W        W 4219  19.512   7.322  24.991  0.1711 -0.0115 -0.2594
 2020W        W 4220  22.004   2.455  15.790  0.2927 -0.2230  0.0453
 2021W        W 4221  29.253   0.322   5.869  0.3653  0.2418 -0.2361
 2022W        W 4222   6.859   1.765   5.191  0.0978 -0.1339 -0.0838
 2023W        W 4223  22.158   2.890   6.482  0.0176 -0.1448 -0.1251
 2024W        W 4224  24.110   1.533  22.020 -0.2187  0.0273 -0.0705
 2025W        W 4225   5.186   4.920  25.910 -0.1634 -0.0058  0.2198
 2026W        W 4226  18.150   1.465  22.474 -0.0148  0.2107 -0.1170
 2027W        W 4227   1.305   1.597   2.038 -0.3796 -0.3361 -0.0665
 2028W        W 4228  22.393   1.680   4.213  0.1550  0.2872  0.1148
 2029W        W 4229  28.763   0.659   8.865 -0.2618  0.1224  0.0462
 2030W        W 4230  29.102   0.180  23.544  0.3024  0.0511  0.2173
 2031W        W 4231   7.969   1.230  20.125 -0.0939 -0.0069 -0.1808
 2032W        W 4232  30.260   6.205   6.384  0.1633 -0.0310 -0.3028
 2033W        W 4233  14.542   4.247   6.974  0.1979 -0.1135 -0.0098
 2034W        W 4234  24.131   4.923  20.827 -0.0293  0.0950 -0.2549
 2035W        W 4235   0.419   1.003   0.655  0.2026  0.1523 -0.0598
 2036W        W 4236  27.654   3.501  22.597 -0.3728  0.0531 -0.1069
 2037W        W 4237  14.117   6.367   2.928 -0.2433 -0.1947 -0.1197
 2038W        W 4238  23.556   3.734   9.627  0.4467 -0.3211 -0.4140
 2039W        W 4239   4.504   0.346  17.339  0.2403 -0.0569 -0.0692
 2040W        W 4240  23.514   6.933  25.763  0.0587 -0.0956 -0.1634
 2041W        W 4241  24.493   0.203  20.179  0.0201 -0.0713 -0.2010
 2042W        W 4242  30.026   3.216   9.995 -0.0406 -0.0196  0.0108
 2043W        W 4243   9.521   5.657   5.548  0.1375  0.2414 -0.0001
 2044W        W 4244   4.558   1.491  23.253 -0.1099 -0.0186  0.1306
 2045W        W 4245  24.490   7.057   3.465  0.0958 -0.1041 -0.4820
 2046W        W 4246  25.634   0.859   2.084 -0.1070 -0.4533 -0.1712
 2047W        W 4247  22.572   7.124   6.053 -0.0312  0.0320 -0.1576
 2048W        W 4248  17.776   2.512  19.959  0.2885  0.2312  0.1028
 2049W        W 4249  23.234   1.417  18.909 -0.1680 -0.0593 -0.0318
 2050W        W 4250   0.607   6.254   2.020  0.0589 -0.2391 -0.1791
 2051W        W 4251  21.163   5.413  18.876 -0.0280 -0.0255 -0.0857
 2052W        W 4252   5.344   4.192   3.378  0.1152 -0.0454 -0.0298
 2053W        W 4253  28.199   2.509   8.242 -0.0053  0.0515 -0.3362
 2054W        W 4254  31.298   5.056  15.268 -0.0935 -0.0598 -0.1492
 2055W        W 4255   9.613   7.640  15.896  0.0177 -0.0054 -0.0370
 2056W        W 4256  28.928   7.446  20.315  0.0555 -0.0622  0.1256
 2057W        W 4257  12.137   0.405   3.253  0.0991  0.0954  0.2009
 2058W        W 4258  26.120   6.650   5.544 -0.2840 -0.1329 -0.1107
 2059W        W 4259  11.726   1.084   8.015 -0.0946  0.1513 -0.1069
 2060W        W 4260  21.530   7.643  17.688 -0.1343 -0.1174 -0.0229
 2061W        W 4261  11.873   6.598  21.261 -0.2012  0.0239 -0.1629
 2062W        W 4262  17.170   2.512   8.275 -0.5454 -0.2747  0.1711
 2063W        W 4263  22.311   4.481   8.910 -0.2418 -0.1702  0.0353
 2064W        W 4264  28.210   1.087   1.701  0.0541  0.0956  0.2820
 2065W        W 4265  29.389   1.892   1.203 -0.1933 -0.2230 -0.0791
 2066W        W 4266  10.167   6.625  15.207 -0.1274 -0.2362 -0.0579
 2067W        W 4267   2.403   3.405   2.044 -0.0811 -0.0926  0.0299
 2068W        W 4268   9.191   3.407   9.212  0.0076 -0.0258  0.1772
 2069W        W 4269  11.862   0.307  19.586  0.0440  0.1043 -0.0569
 2070W        W 4270   6.434   4.860   4.476  0.2907  0.3414  0.0857
 2071W        W 4271  26.483   1.026  15.441  0.0614  0.0172 -0.0621
 2072W        W 4272  16.400   0.137   3.817  0.2119  0.0189 -0.1065
 2073W        W 4273   5.901   2.311   0.107 -0.1551 -0.1368  0.2458
 2074W        W 4274   1.962   6.577  24.490  0.0195  0.0120  0.0227
 2075W        W 4275   6.913   2.516   1.994 -0.1413 -0.0115 -0.0708
 2076W        W 4276  21.471   2.263   7.905 -0.1540 -0.0938 -0.1921
 2077W        W 4277  25.772   6.834   5.082  0.1659 -0.1466  0.0000
 2078W        W 4278  14.577   4.642  17.178  0.0087  0.0876  0.2542
 2079W        W 4279  21.634   0.996  17.204  0.4321 -0.1340  0.1018
 2080W        W 4280  17.854   2.619   2.511  0.1376 -0.1974  0.2737
 2081W        W 4281   5.601   3.196  22.440 -0.2163 -0.2190  0.1783
 2082W        W 4282   4.109   4.976   6.814  0.2783 -0.1790  0.0196
 2083W        W 4283  31.191   0.492  23.078 -0.3377 -0.0713  0.0320
 2084W        W 4284   7.814   6.112   4.734  0.0497 -0.1808 -0.0655
 2085W        W 4285  20.392   1.936  11.418 -0.2932 -0.0455  0.1115
 2086W        W 4286  21.034   7.840   5.124  0.0594 -0.1521 -0.1324
 2087W        W 4287  30.927   6.999  20.636 -0.2679 -0.0628  0.2547
 2088W        W 4288  21.433   2.986  16.994 -0.0710 -0.2084 -0.1270
 2089W        W 4289  24.918   6.557  10.071 -0.0537  0.0676 -0.1727
 2090W        W 4290   1.469   7.649  18.693  0.2707  0.0856 -0.3309
 2091W        W 4291  17.100   1.372  16.122 -0.1967  0.1210  0.2530
 2092W        W 4292   7.901   4.712   1.504 -0.0243  0.1255 -0.1573
 2093W        W 4293   3.880   2.767  16.891 -0.0228 -0.0040  0.0243
 2094W        W 4294  20.456   0.308  24.223  0.1889 -0.3612 -0.0933
 2095W        W 4295  13.530   2.726  17.015 -0.0918  0.0023 -0.0472
 2096W        W 4296  29.919   1.863   2.109 -0.2102  0.3197  0.1462
 2097W        W 4297  28.571   2.052   1.422  0.0691  0.0032  0.3618
 2098W        W 4298  21.780   4.289  16.874 -0.1966 -0.1136 -0.1702
 2099W        W 4299  17.607   7.753   0.356 -0.0318 -0.1738 -0.2051
 2100W        W 4300  11.817   7.524   5.225 -0.0152 -0.2275  0.0094
 2101W        W 4301   6.497   3.551  16.728 -0.1363  0.2442  0.1063
 2102W        W 4302  21.392   0.498  22.404  0.3162 -0.2560 -0.2217
 2103W        W 4303   9.464   7.366   0.492 -0.1052  0.4110 -0.0815
 2104W        W 4304   2.714   1.092  22.849  0.0915  0.0870 -0.1729
 2105W        W 4305  23.147   0.416   7.190  0.3443 -0.1661  0.1242
 2106W        W 4306  23.628   2.524  10.160 -0.2258 -0.0048  0.1751
 2107W        W 4307  26.080   5.383   4.427  0.0009  0.2091 -0.0317
 2108W        W 4308   7.224   2.188  21.379  0.2243 -0.1656 -0.4165
 2109W        W 4309   6.915   2.373   7.915  0.3355 -0.0172 -0.0770
 2110W        W 4310  26.799   3.311  19.347  0.0063 -0.0489  0.0225
 2111W        W 4311  20.696   2.727  21.526 -0.0845  0.3305  0.0981
 2112W        W 4312  26.435   7.350   4.535 -0.0734 -0.1592  0.1499
 2113W        W 4313  29.346   4.951   8.097 -0.3059 -0.5115  0.0511
 2114W        W 4314   2.234   4.730   6.470  0.1894  0.4541  0.0832
 2115W        W 4315   9.497   0.587  21.545  0.2506 -0.0826 -0.0510
 2116W        W 4316   8.213   7.247  17.117  0.2737  0.0106  0.0814
 2117W        W 4317   5.134   4.296  22.819  0.1233  0.1181 -0.0277
 2118W        W 4318  22.997   4.545  24.614 -0.0933  0.0904 -0.0177
 2119W        W 4319   4.994   6.538  19.470 -0.0810  0.0595  0.1115
 2120W        W 4320   4.715   0.271  20.646 -0.1986  0.1159  0.0580
 2121W        W 4321   5.925   6.263   9.624 -0.2544  0.0945  0.2245
 2122W        W 4322  16.925   4.200  20.225  0.1772 -0.1316  0.0419
 2123W        W 4323   9.072   7.829   3.328 -0.0913 -0.0266 -0.0658
 2124W        W 4324  21.967   3.244   9.015  0.4625 -0.2489  0.2683
 2125W        W 4325  12.508   2.990  15.462 -0.2132 -0.0916 -0.0582
 2126W        W 4326   9.101   0.313   5.014 -0.0159 -0.0215 -0.0552
 2127W        W 4327  28.098   2.752   2.094  0.0647  0.0785 -0.5405
 2128W        W 4328  22.196   1.427  17.914  0.1966 -0.1876 -0.1160
 2129W        W 4329   9.238   5.300  18.218  0.1696  0.1671  0.1876
 2130W        W 4330  10.317   6.979  26.073  0.0986  0.3222  0.0655
 2131W        W 4331  15.132   4.786   3.118 -0.2609  0.0549 -0.0491
 2132W        W 4332   5.831   3.438  20.418 -0.0651 -0.0993 -0.2426
 2133W        W 4333   4.486   5.898   9.594 -0.0163  0.1607  0.2637
 2134W        W 4334  15.828   5.653   7.485 -0.1003  0.0113 -0.1559
 2135W        W 4335  27.444   5.624  10.855  0.4222  0.1471 -0.1099
 2136W        W 4336  19.667   0.038  15.299  0.1517 -0.3438 -0.3055
 2137W        W 4337  11.730   3.781   5.017  0.0044  0.0476 -0.2432
 2138W        W 4338  12.486   5.830   4.247 -0.1203  0.0794 -0.0906
 2139W        W 4339  19.377   0.098   6.512  0.0731  0.1420 -0.0849
 2140W        W 4340   9.767   6.715   8.456  0.2301  0.0734 -0.2911
 2141W        W 4341  15.885   3.770  21.084  0.0908  0.3189  0.0395
 2142W        W 4342  21.292   4.690  20.633 -0.0148 -0.0114 -0.0205
 2143W        W 4343   4.054   0.552  22.933 -0.2452  0.0623  0.0329
 2144W        W 4344  26.923   7.495   1.751 -0.2176 -0.1125  0.0557
 2145W        W 4345  21.356   0.254  19.895  0.0321  0.1232  0.2458
 2146W        W 4346  23.066   2.962   5.606 -0.2036 -0.2854  0.0819
 2147W        W 4347  19.654   1.367   0.707 -0.1982  0.0835 -0.1459
 2148W        W 4348   2.488   1.873  23.122  0.0659 -0.1039 -0.0418
 2149W        W 4349   2.936   6.006   9.991  0.1010 -0.0443 -0.1683
 2150W        W 4350  23.930   7.004  16.745  0.0678  0.1862  0.0673
 2151W        W 4351  26.933   6.698   2.575 -0.0925  0.1270  0.1456
 2152W        W 4352  28.451   3.866  23.973  0.0934  0.1739 -0.0563
 2153W        W 4353  26.405   0.884  16.598  0.1120 -0.0225 -0.0869
 2154W        W 4354  11.735   6.575  23.365 -0.1105  0.1029  0.0426
 2155W        W 4355  28.017   2.919  23.721  0.3018 -0.1047  0.2055
 2156W        W 4356   2.957   6.810  24.464  0.1822 -0.0708 -0.1505
 2157W        W 4357  16.705   4.464   6.429 -0.0990 -0.0757 -0.3280
 2158W        W 4358  23.950   2.336   7.744 -0.2230 -0.0562  0.1771
 2159W        W 4359  19.964   5.613  16.250 -0.0827 -0.0738  0.0019
 2160W        W 4360  15.849   7.656   3.534 -0.0874 -0.0450  0.1714
 2161W        W 4361   1.375   7.860   4.173  0.2523  0.0807 -0.1156
 2162W        W 4362  23.947   5.894  24.762  0.0068  0.2008 -0.0016
 2163W        W 4363  11.547   3.059  25.187 -0.0757 -0.0938 -0.0997
 2164W        W 4364  25.615   1.344   5.991  0.0225  0.0944  0.0907
 2165W        W 4365  21.373   2.287   9.310  0.2501  0.3210 -0.2815
 2166W        W 4366   1.719   4.656   2.882 -0.1342 -0.0861  0.1597
 2167W        W 4367  23.662   2.404  23.650  0.0276  0.2030  0.5452
 2168W        W 4368  10.994   6.188  16.858 -0.2504  0.1258 -0.2009
 2169W        W 4369   8.045   3.918   3.868 -0.1280 -0.0198 -0.1030
 2170W        W 4370  30.238   3.691  15.249  0.2173  0.0052 -0.1187
 2171W        W 4371  30.082   3.370  24.652  0.0518  0.0109 -0.1117
 2172W        W 4372  24.638   5.059   8.522  0.1260  0.0776  0.0710
 2173W        W 4373   3.947   3.673   3.770  0.0681  0.0173  0.0447
 2174W        W 4374   9.718   1.803   9.816 -0.2012 -0.0248  0.1628
 2175W        W 4375   6.549   2.292   9.079 -0.0575  0.3934  0.0344
 2176W        W 4376  25.886   4.380  20.347 -0.1120 -0.3333  0.0383
 2177W        W 4377  28.883   2.771  21.820 -0.0511 -0.2048 -0.0375
 2178W        W 4378  25.650   0.668  22.319  0.0468 -0.0045 -0.2059
 2179W        W 4379  24.148   0.292   9.664 -0.0548  0.0687  0.1028
 2180W        W 4380  15.202   2.849   5.361  0.0994  0.1750 -0.1339
 2181W        W 4381  19.995   6.234  21.860  0.0331  0.3718 -0.1376
 2182W        W 4382  18.099   1.789  16.983  0.3244  0.0093  0.1171
 2183W        W 4383  27.687   6.346   5.939  0.2122  0.1399  0.1364
 2184W        W 4384  20.233   2.553  10.545 -0.1633  0.4459  0.0169
 2185W        W 4385  10.709   6.680  19.099 -0.1028  0.0727  0.0855
 2186W        W 4386  25.696   2.102   9.781  0.0687 -0.1481 -0.2080
 2187W        W 4387  13.408   4.826  16.134  0.0674  0.2364  0.1670
 2188W        W 4388  10.524   4.840  10.613  0.0625 -0.0553 -0.1939
 2189W        W 4389  15.147   2.350   4.030  0.0999 -0.1656 -0.0265
 2190W        W 4390  13.100   2.271   7.404  0.1861 -0.0112  0.0180
 2191W        W 4391  25.943   5.762   7.695 -0.1976  0.2327  0.0240
 2192W        W 4392  27.694   2.752   7.508  0.2341  0.0932  0.1121
 2193W        W 4393   7.966   0.238  16.609 -0.0227 -0.0041  0.0422
 2194W        W 4394   2.056   6.259   2.619 -0.0168  0.1418 -0.1077
 2195W        W 4395   1.934   4.271  22.549 -0.0510  0.3038  0.3695
 2196W        W 4396  19.554   4.625  24.370  0.1025 -0.1606 -0.0026
 2197W        W 4397  24.334   0.702   4.938  0.0095 -0.0993 -0.0097
 2198W        W 4398   9.889   5.236   7.225  0.0316 -0.0553  0.1619
 2199W        W 4399  25.423   7.716   1.389 -0.2029 -0.0836 -0.2556
 2200W        W 4400   9.252   4.816  23.244 -0.1362 -0.0036  0.1489
 2201W        W 4401  20.555   0.698   2.812  0.1298 -0.1894  0.0249
 2202W        W 4402  18.642   3.956  10.771 -0.0759 -0.1611 -0.0383
 2203W        W 4403  30.517   6.339   2.815 -0.2698  0.0033  0.1116
 2204W        W 4404  29.041   6.386  22.220  0.2219 -0.1207  0.0308
 2205W        W 4405   0.115   0.001  17.128 -0.2854  0.1568 -0.0956
 2206W        W 4406  10.798   4.906   6.845 -0.0979  0.0325  0.1646
 2207W        W 4407   8.643   4.435   4.222 -0.0801 -0.0490 -0.0024
 2208W        W 4408  23.238   5.998  10.991 -0.1664  0.0984 -0.1560
 2209W        W 4409  17.884   4.436   5.736  0.0079  0.0513  0.0162
 2210W        W 4410  26.917   0.083  20.421 -0.2664 -0.3313  0.0059
 2211W        W 4411  30.157   4.189   3.971 -0.1356 -0.0116  0.0719
 2212W        W 4412  15.785   4.025   5.332  0.1688 -0.1430  0.0035
 2213W        W 4413  24.561   2.775   4.725  0.1096  0.1183 -0.1991
 2214W        W 4414  29.829   3.150  21.612 -0.1227 -0.1829  0.1418
 2215W        W 4415  20.000   7.825  17.753 -0.0356  0.1064 -0.1010
 2216W        W 4416   5.894   6.824   0.727 -0.1326  0.0953  0.1137
 2217W        W 4417   0.592   3.015   6.474 -0.1038 -0.0113  0.0495
 2218W        W 4418   0.709   5.474   3.559 -0.0655  0.2698  0.0102
 2219W        W 4419  14.205   2.098  21.921  0.1346  0.2218 -0.0170
 2220W        W 4420   0.959   4.165   0.300  0.0177  0.4865  0.1622
 2221W        W 4421  13.443   7.085   2.583 -0.2191 -0.0045  0.0020
 2222W        W 4422   0.396   7.787   1.011  0.3383 -0.2373 -0.1538
 2223W        W 4423  23.328   0.438  19.928 -0.0613 -0.0286 -0.0538
 2224W        W 4424   4.116   0.773   2.811  0.1540 -0.0108 -0.2315
 2225W        W 4425   7.520   3.038   0.738 -0.1189  0.1685  0.1634
 2226W        W 4426  27.320   5.924  23.704 -0.2327 -0.3942  0.1726
 2227W        W 4427   0.287   6.349   4.302 -0.2612 -0.1815 -0.0418
 2228W        W 4428   8.364   0.579  24.623  0.0794  0.3126 -0.2164
 2229W        W 4429  11.734   6.480  22.328 -0.2000 -0.1887 -0.3086
 2230W        W 4430  13.484   1.632   6.870  0.4110 -0.1171  0.0445
 2231W        W 4431  18.667   0.893  25.722 -0.0349  0.0113  0.1625
 2232W        W 4432   4.149   4.280  15.440 -0.0094  0.1037  0.0439
 2233W        W 4433  28.887   2.473  23.941  0.2820 -0.1114  0.0685
 2234W        W 4434  21.478   5.313  10.983  0.2734 -0.0341 -0.1785
 2235W        W 4435  13.183   1.300  21.792 -0.1736 -0.1296 -0.1880
 2236W        W 4436   0.426   2.701  15.012 -0.1320  0.0614 -0.0456
 2237W        W 4437  24.281   5.057   0.860  0.1534 -0.1055  0.2800
 2238W        W 4438   2.720   6.923  20.903  0.0367  0.0001 -0.0049
 2239W        W 4439  29.431   3.577  25.923 -0.0250 -0.0346  0.0386
 2240W        W 4440  10.601   4.267   9.305 -0.2581  0.0458 -0.0474
 2241W        W 4441   7.796   1.476  11.369  0.0882  0.1473  0.1895
 2242W        W 4442  22.286   2.220  17.735  0.0591  0.0446 -0.0697
 2243W        W 4443   4.749   6.381   7.762 -0.0445 -0.1283  0.0720
 2244W        W 4444  17.293   5.529   7.605 -0.1412  0.1017 -0.3509
 2245W        W 4445   3.498   2.152  21.491 -0.1267  0.1503 -0.1052
 2246W        W 4446  28.644   1.387   8.324 -0.1118 -0.1075  0.3710
 2247W        W 4447   7.361   2.299   2.264  0.4631  0.3747  0.0510
 2248W        W 4448  19.044   1.008  21.951  0.2443  0.2407 -0.3336
 2249W        W 4449  14.978   1.938  23.861  0.0731  0.0043 -0.1410
 2250W        W 4450  15.876   2.175  20.531  0.2193 -0.0083  0.1298
 2251W        W 4451  27.619   1.339  17.879  0.1373 -0.4555  0.1380
 2252W        W 4452  20.626   3.456  10.636  0.3009  0.0017 -0.1560
 2253W        W 4453   4.558   5.758  24.591  0.3526 -0.1551 -0.0510
 2254W        W 4454  26.673   2.252  20.690 -0.0491 -0.0231  0.2621
 2255W        W 4455   0.859   3.825   5.546  0.1890  0.2898  0.1745
 2256W        W 4456  23.500   3.696  10.980 -0.0237 -0.0029  0.3018
 2257W        W 4457  15.815   4.689  23.959 -0.0132 -0.1321  0.0865
 2258W        W 4458  15.418   6.310   1.312  0.2920  0.1806  0.0534
 2259W        W 4459   7.026   4.789  22.788  0.5321 -0.2323 -0.0540
 2260W        W 4460   0.232   0.107  20.033 -0.2501 -0.0512 -0.2476
 2261W        W 4461  26.670   6.962  16.477 -0.0931 -0.0825 -0.2520
 2262W        W 4462  16.893   6.801  17.796  0.2999 -0.0561 -0.2254
 2263W        W 4463  18.663   2.907  16.623  0.0335 -0.0043 -0.2610
 2264W        W 4464   6.447   1.185   5.744 -0.1902 -0.4492  0.0281
 2265W        W 4465   1.518   7.015  23.040 -0.3867 -0.0768 -0.0275
 2266W        W 4466   1.540   2.430  23.873  0.3439  0.4472  0.1185
 2267W        W 4467  23.713   3.062   8.331  0.1639  0.2402  0.1266
 2268W        W 4468  11.932   6.189   7.534 -0.1203 -0.0435  0.1916
 2269W        W 4469   4.790   6.394  16.602  0.0254  0.2064  0.2352
 2270W        W 4470  30.297   0.909   2.162  0.1455  0.0353  0.1559
 2271W        W 4471  26.763   1.682   1.594 -0.3298 -0.1837 -0.1333
 2272W        W 4472  15.838   3.433   4.159  0.1236  0.1591  0.0324
 2273W        W 4473   5.044   7.333  21.987  0.0822  0.3529 -0.1086
 2274W        W 4474  19.113   0.918  19.154  0.1908  0.0837  0.1606
 2275W        W 4475  31.404   2.949  24.237 -0.0298 -0.2588 -0.4249
 2276W        W 4476  15.265   0.910  16.733  0.0368 -0.0609  0.0199
 2277W        W 4477  22.882   1.649  20.610  0.0260 -0.4742 -0.0822
 2278W        W 4478  27.533   6.679  19.935 -0.0864  0.1445 -0.2537
 2279W        W 4479  19.000   7.784  15.751  0.2291 -0.2294  0.2095
 2280W        W 4480  16.917   6.526  23.537  0.1965 -0.0834 -0.2599
 2281W        W 4481  13.178   3.453  17.026 -0.0756  0.1751  0.1881
 2282W        W 4482  29.259   2.614   3.027 -0.3156  0.0964 -0.2615
 2283W        W 4483  11.337   3.068  22.391  0.1736  0.2171  0.0763
 2284W        W 4484   5.172   1.556   3.599  0.0294 -0.0749  0.1266
 2285W        W 4485   2.518   2.456  22.319  0.0178  0.2643 -0.0065
 2286W        W 4486   6.386   0.386  20.975 -0.0369 -0.1348  0.0790
 2287W        W 4487  11.437   1.997   1.584  0.1880 -0.1931 -0.0341
 2288W        W 4488  30.184   3.942  17.314  0.2829  0.1835  0.0763
 2289W        W 4489  13.642   7.595  20.608 -0.1071 -0.1608 -0.0864
 2290W        W 4490  11.857   2.361  22.303 -0.1558 -0.6236 -0.1244
 2291W        W 4491  21.631   3.484  17.366 -0.1436 -0.1842 -0.0038
 2292W        W 4492   7.951   1.477  22.994  0.0615 -0.0707 -0.1967
 2293W        W 4493  28.870   7.655  23.222 -0.2037 -0.3296 -0.0337
 2294W        W 4494   9.556   6.475  10.673 -0.0462  0.0867  0.0120
 2295W        W 4495   0.609   6.456   1.256 -0.1522 -0.0526 -0.0335
 2296W        W 4496  14.651   3.378   2.310  0.0188 -0.4385 -0.1229
 2297W        W 4497   2.629   2.849   6.512  0.1969  0.0738 -0.2612
 2298W        W 4498  27.155   2.919   0.638 -0.1380  0.0990  0.1926
 2299W        W 4499  13.974   1.335  24.044  0.0646 -0.2201  0.2613
 2300W        W 4500  10.231   3.507   5.345 -0.1380  0.0201 -0.0917
 2301W        W 4501   8.101   6.039  22.247 -0.2526  0.1513  0.1941
 2302W        W 4502  17.821   1.975   1.604 -0.0327 -0.1133 -0.3127
 2303W        W 4503   5.089   7.355  16.445  0.0064  0.0588 -0.1079
 2304W        W 4504   1.695   2.131   2.717 -0.0912 -0.1177 -0.1515
 2305W        W 4505   3.954   4.896   9.612 -0.3161 -0.1197  0.1592
 2306W        W 4506  30.837   7.470   1.888  0.1148 -0.0587 -0.1784
 2307W        W 4507  22.966   2.437  18.559 -0.0756  0.1122  0.1615
 2308W        W 4508   4.443   4.129   9.550  0.0629 -0.0619 -0.0405
 2309W        W 4509  10.277   1.962   9.967  0.2343  0.0887  0.2308
 2310W        W 4510   5.340   0.971  23.594 -0.3633 -0.1160 -0.0498
 2311W        W 4511  10.044   3.340   7.280 -0.0813  0.0294 -0.0610
 2312W        W 4512  28.726   3.544  24.761  0.5416  0.0969  0.0542
 2313W        W 4513  21.488   2.684  18.622 -0.0251 -0.0002 -0.2539
 2314W        W 4514   8.929   5.541   7.582 -0.0336  0.1335 -0.3046
 2315W        W 4515  30.160   3.667  10.130  0.1414 -0.2278 -0.0249
 2316W        W 4516  26.486   4.430   2.384  0.2938  0.0786  0.0241
 2317W        W 4517  21.083   7.099  15.939 -0.1904  0.4405 -0.1695
 2318W        W 4518  15.891   6.082   1.033  0.3386  0.0297  0.2317
 2319W        W 4519  28.841   2.533  19.750 -0.1609 -0.1894 -0.0984
 2320W        W 4520   2.475   3.131  24.294 -0.1867  0.0348 -0.4515
 2321W        W 4521  16.500   5.301   9.310  0.0577 -0.0544 -0.1648
 2322W        W 4522  17.852   3.101   2.390  0.1564 -0.1603  0.0324
 2323W        W 4523   4.557   0.229   7.140 -0.0568  0.1525 -0.0958
 2324W        W 4524  13.940   0.941  22.190 -0.2323 -0.1524 -0.5359
 2325W        W 4525  14.054   4.728  23.403 -0.2025  0.0964 -0.2899
 2326W        W 4526  29.765   7.566  22.834 -0.0685 -0.1102  0.0862
 2327W        W 4527  14.498   1.919  18.752  0.1928 -0.4023  0.2290
 2328W        W 4528  25.817   2.792   0.985  0.1539  0.3062  0.1266
 2329W        W 4529  13.306   3.128   5.879 -0.0173 -0.3178  0.0131
 2330W        W 4530   1.867   3.732  23.903  0.0894  0.0661 -0.0006
 2331W        W 4531  25.403   2.518   5.769 -0.3139  0.0601 -0.2430
 2332W        W 4532  28.766   1.917   6.694  0.0338 -0.0816 -0.2411
 2333W        W 4533  17.684   0.550  24.378 -0.0698  0.0114  0.2780
 2334W        W 4534   3.195   2.818  22.388 -0.3651 -0.3857  0.3820
 2335W        W 4535  30.702   7.335  21.338 -0.1109  0.3671  0.1582
 2336W        W 4536  26.230   0.244  18.780  0.0085  0.3728 -0.3947
 2337W        W 4537  18.026   0.602   2.523 -0.2625  0.0871 -0.5301
 2338W        W 4538  25.905   7.639   3.769 -0.1598  0.0030  0.1802
 2339W        W 4539  23.046   3.061  25.411 -0.5326 -0.0264  0.1663
 2340W        W 4540  21.768   4.342  17.876 -0.0074  0.2449  0.2440
 2341W        W 4541  16.341   6.400   0.591 -0.0588 -0.1146  0.2315
 2342W        W 4542  15.538   7.601  25.678  0.0929  0.1662 -0.1020
 2343W        W 4543  18.971   1.354  25.720 -0.1724  0.1766  0.2961
 2344W        W 4544   2.733   1.300   2.937  0.0356 -0.1957  0.1384
 2345W        W 4545  14.624   3.981   2.075 -0.0334 -0.1404 -0.1390
 2346W        W 4546  28.690   6.613   5.672  0.0289 -0.1676 -0.0986
 2347W        W 4547   4.730   3.113   5.714  0.0105  0.3234  0.0311
 2348W        W 4548  13.345   7.636   9.191  0.1614  0.1198  0.0881
 2349W        W 4549  20.449   1.782  20.719  0.0549  0.0230 -0.1242
 2350W        W 4550  19.850   1.026  24.579 -0.2028  0.1580 -0.0843
 2351W        W 4551   9.010   2.776  18.239  0.0295  0.2159 -0.1697
 2352W        W 4552   4.115   4.540   1.925 -0.2130  0.1431 -0.1582
 2353W        W 4553  16.719   4.712   4.254 -0.1502 -0.0168  0.0731
 2354W        W 4554  30.769   7.749  17.900  0.0758 -0.4010  0.0317
 2355W        W 4555  30.463   2.155  16.544  0.1694  0.0346 -0.2027
 2356W        W 4556   3.691   7.614   9.492  0.1314 -0.0105 -0.1129
 2357W        W 4557  22.882   3.026   9.264 -0.0525  0.1433 -0.0950
 2358W        W 4558   6.908   3.994  25.046  0.0616 -0.2620  0.1682
 2359W        W 4559  17.651   6.877   9.095  0.0337 -0.0009 -0.2600
 2360W        W 4560  14.435   0.644  18.793  0.0876  0.0931  0.0919
 2361W        W 4561  21.585   0.690   8.310  0.1019 -0.0739 -0.1312
 2362W        W 4562  25.236   3.160   3.055  0.1149  0.0976  0.0191
 2363W        W 4563  24.857   0.968  19.934  0.0610  0.0345 -0.0076
 2364W        W 4564  16.137   5.298  11.054 -0.0498  0.0350 -0.2506
 2365W        W 4565   9.615   3.601   7.479 -0.0421 -0.2334 -0.1573
 2366W        W 4566  17.973   2.487  23.618 -0.2554 -0.2262  0.1602
 2367W        W 4567  20.795   6.490   7.287 -0.0268 -0.2110 -0.2576
 2368W        W 4568  17.731   0.532   1.739 -0.0820  0.0295 -0.2264
 2369W        W 4569   4.320   3.831  15.882 -0.0204  0.1883  0.0609
 2370W        W 4570  16.885   2.649  16.988 -0.0140  0.0056  0.1685
 2371W        W 4571  13.168   2.140   5.833 -0.1557 -0.0700  0.1118
 2372W        W 4572  20.347   2.008  10.140  0.0004 -0.0568  0.1884
 2373W        W 4573  25.646   4.548   5.999 -0.1968  0.1671 -0.0904
 2374W        W 4574   8.205   5.338  21.560  0.0150 -0.2321 -0.1325
 2375W        W 4575  21.161   3.535  17.137  0.0873 -0.1765 -0.3354
 2376W        W 4576  24.562   2.347   9.872 -0.2824 -0.2751 -0.0643
 2377W        W 4577   9.979   6.750  10.891  0.0781 -0.0915  0.2768
 2378W        W 4578  18.418   4.480  24.110  0.3266  0.1001 -0.0447
 2379W        W 4579  16.035   3.961  20.645 -0.1116  0.0048 -0.1353
 2380W        W 4580  21.587   2.304  23.148 -0.1684 -0.4624  0.1967
 2381W        W 4581   4.756   5.792   1.929 -0.0727 -0.0950  0.0653
 2382W        W 4582  19.467   1.032  15.802  0.1444  0.2567  0.0473
 2383W        W 4583  17.619   5.263   5.853 -0.3777 -0.0822 -0.4486
 2384W        W 4584  29.159   0.921  24.953 -0.1701 -0.1667  0.2340
 2385W        W 4585  12.424   4.211  11.032 -0.1208 -0.1756 -0.3786
 2386W        W 4586  19.405   6.602  24.364 -0.1850  0.0645  0.1878
 2387W        W 4587  21.956   4.480   3.592  0.1935 -0.4099  0.0281
 2388W        W 4588  26.426   2.545   9.099 -0.0298  0.0172 -0.0002
 2389W        W 4589   5.865   7.749   5.440 -0.1303  0.2592 -0.0127
 2390W        W 4590   7.217   2.961  16.118  0.0768  0.2072  0.2273
 2391W        W 4591  17.988   5.765   5.964 -0.1892 -0.1784 -0.2837
 2392W        W 4592  10.243   4.630   2.181 -0.1165  0.0427  0.0456
 2393W        W 4593  22.993   4.363  20.188  0.0018 -0.0527  0.0807
 2394W        W 4594   8.989   5.234  19.605  0.0526 -0.0999  0.0934
 2395W        W 4595  12.596   4.275   6.614 -0.3706 -0.1068 -0.2237
 2396W        W 4596  17.787   7.810  20.196 -0.3718  0.0388 -0.2269
 2397W        W 4597  12.249   6.233   2.874 -0.0109  0.1593 -0.1308
 2398W        W 4598  13.622   5.963   1.602  0.0336 -0.1031  0.0493
 2399W        W 4599   0.529   1.436  18.956 -0.1473 -0.2854  0.0985
 2400W        W 4600  28.951   1.151  10.114 -0.1538 -0.1362 -0.0585
 2401W        W 4601  27.777   1.239  10.464  0.0198  0.2730  0.1899
 2402W        W 4602  22.771   1.644   2.899 -0.2681 -0.2657  0.3799
 2403W        W 4603  29.707   0.032  16.159 -0.0458  0.0931  0.1082
 2404W        W 4604  19.393   0.137  22.173 -0.0511 -0.3247 -0.1570
 2405W        W 4605   2.782   0.072  10.074  0.1126  0.1539 -0.1042
 2406W        W 4606   8.012   5.171   9.466  0.0042  0.0736  0.2392
 2407W        W 4607   7.482   0.542   6.726  0.2017  0.0110  0.0590
 2408W        W 4608   3.249   7.220  25.469 -0.1108  0.1851 -0.1036
 2409W        W 4609   2.520   6.661  21.323  0.0817  0.2215 -0.0623
 2410W        W 4610  30.813   6.136   7.826 -0.0463  0.3125  0.3102
 2411W        W 4611  20.835   3.101  22.523 -0.3139  0.2554  0.0670
 2412W        W 4612  16.048   2.310  21.087  0.1248  0.2013 -0.1374
 2413W        W 4613   2.904   7.662  22.384 -0.0011  0.4045  0.2076
 2414W        W 4614  25.863   6.014  17.563 -0.1562 -0.1363 -0.2138
 2415W        W 4615  24.070   7.805   1.989 -0.4105 -0.0118 -0.0634
 2416W        W 4616  16.756   0.248  20.198  0.0018  0.1628 -0.1887
 2417W        W 4617  12.603   6.819   5.361  0.1842  0.1493 -0.0098
 2418W        W 4618   7.671   7.524  19.026  0.0189  0.0935 -0.1890
 2419W        W 4619   0.115   7.198   2.575 -0.0612 -0.0370 -0.1912
 2420W        W 4620   9.500   1.909  25.786  0.3219 -0.0179  0.1616
 2421W        W 4621  25.651   7.300   4.965 -0.1581 -0.1587 -0.1278
 2422W        W 4622  24.650   1.617  17.773 -0.1322  0.1459  0.1848
 2423W        W 4623   6.073   1.578  16.754 -0.1694  0.1328 -0.0047
 2424W        W 4624  12.752   3.292  17.865  0.2292 -0.1613  0.0750
 2425W        W 4625  21.756   5.582  24.365 -0.2393 -0.1129  0.0011
 2426W        W 4626   6.804   4.865   2.841 -0.0208 -0.0843  0.2524
 2427W        W 4627  11.718   4.368  18.294 -0.0767  0.0047 -0.1031
 2428W        W 4628  22.913   6.532   9.855 -0.1228 -0.0377 -0.2197
 2429W        W 4629  27.853   1.365  16.008  0.1806 -0.4999  0.1993
 2430W        W 4630  15.758   4.282   7.507 -0.0204 -0.3042  0.0161
 2431W        W 4631   1.097   4.594   0.594 -0.1840  0.2754 -0.1713
 2432W        W 4632  30.588   6.353   4.376 -0.0955  0.2985 -0.0334
 2433W        W 4633  13.177   5.083   1.627  0.2718 -0.3280 -0.1307
 2434W        W 4634  31.061   3.770  21.886 -0.0967  0.1116  0.1955
 2435W        W 4635   9.373   1.954  15.485  0.0479 -0.1947  0.0572
 2436W        W 4636   7.656   0.150  15.024 -0.1429 -0.3420 -0.0539
 2437W        W 4637  25.482   1.216   7.318  0.2908 -0.0288  0.1114
 2438W        W 4638   7.766   6.577   0.965 -0.2866 -0.2436 -0.0882
 2439W        W 4639   8.630   7.648  21.769  0.3415  0.0594 -0.0058
 2440W        W 4640   0.127   5.084  10.252 -0.2199 -0.1199 -0.2463
 2441W        W 4641  15.289   7.551   1.877 -0.0807 -0.1511  0.0457
 2442W        W 4642  30.651   4.288   4.113  0.0335 -0.1344 -0.1923
 2443W        W 4643   9.062   0.485  21.301  0.2681 -0.0644 -0.1129
 2444W        W 4644  14.973   3.215  18.579  0.3486  0.3414  0.1125
 2445W        W 4645  27.194   0.429   5.213 -0.1677  0.5039  0.1712
 2446W        W 4646   4.085   6.200   9.687  0.1497  0.2348 -0.1803
 2447W        W 4647   6.178   6.027   7.433  0.1080  0.2744  0.1960
 2448W        W 4648   0.507   4.590   6.015 -0.2212  0.1955  0.2341
 2449W        W 4649  27.746   0.743  24.121 -0.0519 -0.1515 -0.0098
 2450W        W 4650  19.172   6.581  20.740  0.2822  0.1860  0.2893
 2451W        W 4651  14.347   0.700   9.501 -0.2770 -0.1730 -0.0083
 2452W        W 4652   7.437   5.970   5.045 -0.0693 -0.1756 -0.0529
 2453W        W 4653  12.406   0.814  10.253 -0.0953  0.0495  0.2817
 2454W        W 4654  30.653   5.013   1.974  0.4247 -0.0520  0.0761
 2455W        W 4655  30.191   4.152  24.277  0.1481  0.1565 -0.0100
 2456W        W 4656  14.238   4.057   0.632  0.1219 -0.0818 -0.0835
 2457W        W 4657  16.187   0.735   9.799 -0.0762  0.0611 -0.4354
 2458W        W 4658  24.673   6.792   5.919  0.2128  0.2065  0.1873
 2459W        W 4659  30.623   2.552  24.186  0.1528  0.2132  0.0135
 2460W        W 4660   9.106   5.724  25.848 -0.1617 -0.0238 -0.0379
 2461W        W 4661  24.214   2.960   2.975  0.0150  0.0836 -0.1009
 2462W        W 4662  24.079   2.687  18.108  0.1109  0.2450 -0.0889
 2463W        W 4663   8.935   6.935   0.060 -0.0705  0.1239 -0.2321
 2464W        W 4664   4.087   5.316  21.586 -0.0648  0.1356  0.1746
 2465W        W 4665  27.834   0.164   0.428 -0.1348  0.0310 -0.3066
 2466W        W 4666  29.205   5.305  24.073 -0.0796  0.0394  0.1295
 2467W        W 4667  11.982   6.470   4.597  0.1577  0.1092 -0.1430
 2468W        W 4668  30.438   2.355  18.911  0.1489  0.1938 -0.2112
 2469W        W 4669  17.143   3.681  16.158  0.2585  0.0901 -0.3948
 2470W        W 4670  19.403   1.747  16.856  0.0640 -0.0938 -0.1647
 2471W        W 4671   4.411   4.858   0.946  0.2402  0.0895 -0.1787
 2472W        W 4672   6.773   2.208  25.102 -0.0873  0.2408  0.1787
 2473W        W 4673   6.977   7.652   1.062  0.1361  0.1417 -0.1656
 2474W        W 4674  26.033   6.720  23.054  0.1809 -0.0431 -0.0295
 2475W        W 4675  24.851   7.046   7.279 -0.0088  0.0275 -0.1607
 2476W        W 4676  30.074   4.038   6.031 -0.1315 -0.0891  0.0207
 2477W        W 4677   2.392   6.175   2.015  0.0770 -0.1208 -0.0046
 2478W        W 4678  11.654   5.231  25.636  0.1260 -0.0475 -0.0255
 2479W        W 4679  10.833   5.967  22.513 -0.0802 -0.2125  0.0549
 2480W        W 4680  18.323   6.302  21.628 -0.1857  0.2482  0.1163
 2481W        W 4681  25.508   2.783  11.316 -0.1689  0.4409 -0.0309
 2482W        W 4682  25.964   1.831  24.222  0.0416  0.1575  0.1052
 2483W        W 4683  22.116   7.541  22.082  0.2001 -0.0823 -0.0518
 2484W        W 4684  16.122   1.074   1.318  0.0013  0.1245  0.1871
 2485W        W 4685  18.329   3.767  17.896 -0.0130 -0.0688  0.1378
 2486W        W 4686  11.781   7.754   3.916 -0.1287  0.0493  0.0599
 2487W        W 4687   4.531   2.165   0.659  0.2335  0.0437  0.1289
 2488W        W 4688  19.136   5.356  25.513 -0.0846 -0.0382  0.3138
 2489W        W 4689  19.735   0.607  23.008  0.1566  0.2567 -0.2373
 2490W        W 4690  16.241   7.688   1.728 -0.2783  0.0705 -0.0345
 2491W        W 4691  19.229   5.833  15.659  0.3650  0.2005 -0.1169
 2492W        W 4692  29.771   3.988  22.337 -0.0750 -0.1952  0.1980
 2493W        W 4693  22.033   4.260  16.429  0.0490 -0.1382  0.1679
 2494W        W 4694  21.225   7.796   5.622  0.0375  0.0855  0.3396
 2495W        W 4695  10.435   5.474   8.931  0.2699 -0.1283 -0.3495
 2496W        W 4696   9.788   2.025  18.670  0.0053 -0.0000 -0.0835
 2497W        W 4697  23.259   6.237  21.950  0.0981  0.1697 -0.0784
 2498W        W 4698  20.395   2.834  19.527 -0.0128  0.0246 -0.0057
 2499W        W 4699  25.371   6.368  23.890 -0.4135 -0.0385  0.0058
 2500W        W 4700  12.811   1.147   3.930 -0.2473  0.2940  0.2778
 2501W        W 4701  23.340   0.809   9.909 -0.0168 -0.0715  0.1106
 2502W        W 4702   8.239   2.307   0.846 -0.0126  0.2196 -0.1839
 2503W        W 4703  16.635   4.344  21.850 -0.2134 -0.2379 -0.0453
 2504W        W 4704  27.107   3.069   1.063 -0.1886 -0.0955  0.0794
 2505W        W 4705  27.586   6.182   4.387 -0.4176 -0.2598  0.1726
 2506W        W 4706  30.771   3.731   4.414 -0.0699  0.0105  0.1241
 2507W        W 4707   8.112   4.274   5.879 -0.1135 -0.1919 -0.1011
 2508W        W 4708  19.106   0.691   3.021  0.3045 -0.0169  0.0959
 2509W        W 4709   5.094   5.105  24.470 -0.2238 -0.0692 -0.3633
 2510W        W 4710  31.184   6.861   4.831  0.1072  0.0224 -0.2349
 2511W        W 4711  16.364   2.237  18.832  0.0599 -0.1328 -0.0074
 2512W        W 4712  20.502   6.409  22.688 -0.0111  0.1755 -0.0157
 2513W        W 4713  29.536   1.111   3.091  0.1737 -0.4027  0.0147
 2514W        W 4714   6.698   7.241   5.559  0.1010 -0.0381 -0.0554
 2515W        W 4715  14.845   1.411  17.686  0.0154 -0.3013 -0.0974
 2516W        W 4716  24.324   2.170   1.077 -0.1254  0.0620 -0.3265
 2517W        W 4717   0.793   1.167  17.229 -0.0834  0.2220  0.2839
 2518W        W 4718  23.555   3.774   2.064  0.0944 -0.0425  0.0194
 2519W        W 4719  28.478   4.844   4.446 -0.0987  0.1400  0.1629
 2520W        W 4720   5.015   6.160   4.509  0.2149 -0.4122  0.0341
 2521W        W 4721   8.983   1.409  22.580 -0.1158 -0.0219 -0.1550
 2522W        W 4722  27.873   6.910   2.363  0.1640 -0.0761 -0.0698
 2523W        W 4723   1.211   1.383   2.476  0.2495  0.0440 -0.1912
 2524W        W 4724  19.582   6.880   0.348 -0.1481 -0.0140  0.1758
 2525W        W 4725  13.492   7.445  21.133 -0.0846 -0.1623  0.1489
 2526W        W 4726  28.031   3.807   1.610  0.2343  0.1341  0.1437
 2527W        W 4727  25.216   6.863  21.387  0.0188 -0.3083  0.0650
 2528W        W 4728  20.573   7.214   2.255  0.1024 -0.2969  0.1387
 2529W        W 4729  25.670   2.089   7.799 -0.2443 -0.1029  0.0290
 2530W        W 4730  25.618   6.263   8.840  0.3633  0.1075  0.0632
 2531W        W 4731   3.428   6.229  21.135  0.0976 -0.0172 -0.1361
 2532W        W 4732  27.321   0.411   4.104  0.0700  0.1112  0.2909
 2533W        W 4733   6.510   4.371   7.341  0.0149  0.3007 -0.1517
 2534W        W 4734   1.220   1.865  19.359 -0.0293 -0.1605  0.2735
 2535W        W 4735  28.967   1.029   5.424 -0.1298  0.1062 -0.2584
 2536W        W 4736  13.650   4.868  18.195 -0.0161 -0.1835  0.0910
 2537W        W 4737  22.030   7.522  17.877 -0.2675 -0.3003 -0.0530
 2538W        W 4738  30.005   2.562  23.667  0.1255 -0.1784 -0.4370
 2539W        W 4739  15.448   5.517  15.932  0.1967  0.0417  0.1237
 2540W        W 4740  15.375   7.305   1.447  0.2187  0.0771 -0.1553
 2541W        W 4741   3.781   5.436   2.905 -0.1140  0.1233 -0.4390
 2542W        W 4742  22.282   7.503  24.691  0.0770 -0.0724 -0.3688
 2543W        W 4743  24.966   0.087  17.758  0.1919 -0.1649 -0.2465
 2544W        W 4744  22.137   6.417  19.135 -0.1430 -0.2430 -0.0199
 2545W        W 4745   9.213   4.140  10.670 -0.3044  0.0686 -0.2528
 2546W        W 4746   2.128   5.751   2.113  0.4075  0.0911 -0.3297
 2547W        W 4747  19.766   6.591   7.525  0.1748 -0.2273 -0.1621
 2548W        W 4748  23.398   2.326   8.888 -0.0360 -0.0423  0.1330
 2549W        W 4749  19.392   3.637   2.283  0.0339 -0.0852  0.0228
 2550W        W 4750  22.652   7.221  25.965 -0.3553 -0.1823  0.2554
 2551W        W 4751   3.042   3.724   6.525 -0.1457  0.0523 -0.2222
 2552W        W 4752  30.205   2.523   8.851 -0.0505 -0.1105  0.0588
 2553W        W 4753  28.772   3.320   6.751  0.1312 -0.5324 -0.0984
 2554W        W 4754  30.473   2.175   7.987  0.1738 -0.1860  0.1657
 2555W        W 4755  29.452   5.804  15.740  0.1141  0.0031 -0.2091
 2556W        W 4756   1.972   7.767  22.581 -0.2128 -0.0876 -0.1932
 2557W        W 4757  14.458   3.571  25.149  0.0212 -0.2192  0.2184
 2558W        W 4758  13.028   7.270   7.152  0.2400 -0.1751  0.0845
 2559W        W 4759  20.794   0.207   5.537 -0.2045  0.2087 -0.3184
 2560W        W 4760  15.338   3.582   5.948 -0.2766 -0.0357  0.0366
 2561W        W 4761  21.228   7.770  20.618  0.0837  0.1115 -0.0850
 2562W        W 4762   5.173   2.764  25.109 -0.1620  0.4706  0.0142
 2563W        W 4763   9.420   3.029  24.242  0.1253 -0.2637 -0.0516
 2564W        W 4764  24.388   0.851  24.415 -0.1464  0.1296 -0.0072
 2565W        W 4765   4.225   6.367   1.124  0.1605 -0.2177 -0.0032
 2566W        W 4766   0.170   6.123   0.727 -0.0654 -0.4668 -0.0847
 2567W        W 4767  19.389   2.303  15.111  0.2111 -0.2092 -0.0507
 2568W        W 4768  25.157   6.716   8.363 -0.0970 -0.0678 -0.0675
 2569W        W 4769   0.522   2.847   8.038 -0.2907  0.1938 -0.2930
 2570W        W 4770  30.018   0.017  23.917 -0.2865 -0.0264  0.2362
 2571W        W 4771  25.361   7.633  11.247 -0.2162  0.1862 -0.0903
 2572W        W 4772   7.306   5.999   6.464  0.2910  0.0156 -0.2523
 2573W        W 4773  24.078   5.336   5.614  0.0676 -0.1836  0.0434
 2574W        W 4774   1.979   2.507  14.659 -0.1072 -0.3696 -0.0367
 2575W        W 4775  21.443   4.479  22.498 -0.1277 -0.2364  0.2048
 2576W        W 4776  12.734   3.141   7.377 -0.0743  0.1786 -0.0085
 2577W        W 4777  16.124   6.351  24.112 -0.1851  0.3143 -0.1914
 2578W        W 4778  26.838   0.756   3.587 -0.0275  0.2498  0.1456
 2579W        W 4779  28.596   6.170   4.324 -0.0733  0.0272  0.3038
 2580W        W 4780  20.458   3.361   0.013 -0.3116 -0.0951 -0.1115
 2581W        W 4781  28.394   6.271   3.344 -0.0370 -0.3770  0.0322
 2582W        W 4782  12.541   0.714   1.703  0.1951 -0.0694 -0.2711
 2583W        W 4783  14.806   0.008  25.602  0.1286 -0.0571 -0.0048
 2584W        W 4784  24.601   3.269   2.823  0.2257 -0.0746  0.0377
 2585W        W 4785  27.498   3.701   1.947 -0.1128 -0.1014  0.0594
 2586W        W 4786  25.182   4.173  20.926  0.0621  0.0965 -0.2118
 2587W        W 4787  26.770   5.323  22.246 -0.1123 -0.1730  0.0880
 2588W        W 4788  24.699   0.005   3.739 -0.2252  0.1085 -0.0440
 2589W        W 4789  16.997   6.304   0.376  0.1815 -0.0367  0.1163
 2590W        W 4790  24.263   0.961  23.213 -0.0397  0.1177 -0.1365
 2591W        W 4791   8.724   7.513   7.622 -0.2250  0.3656 -0.4921
 2592W        W 4792  13.941   0.284  22.869  0.2691 -0.2469 -0.1593
 2593W        W 4793   9.092   2.024   3.008 -0.3109  0.0143 -0.1507
 2594W        W 4794  21.285   6.507   4.172 -0.1315 -0.1480  0.1140
 2595W        W 4795   1.328   1.979  21.451  0.0516 -0.0073 -0.0885
 2596W        W 4796   3.132   1.786   0.397  0.1200 -0.1736  0.0466
 2597W        W 4797  24.662   7.690   1.057 -0.0277  0.0033 -0.2133
 2598W        W 4798   3.677   5.743   4.138  0.0300 -0.2723  0.0957
 2599W        W 4799  15.833   5.256  15.652  0.3460  0.1183 -0.0371
 2600W        W 4800  23.360   5.426   4.299 -0.1222  0.1017 -0.0771
 2601W        W 4801  20.663   5.354   5.874 -0.1958 -0.2919  0.1906
 2602W        W 4802  18.677   4.803  26.034  0.1437  0.3598  0.0513
 2603W        W 4803  20.017   2.993  19.261 -0.1215 -0.1897 -0.2119
 2604W        W 4804   1.066   7.149  24.237  0.0394  0.0931 -0.0691
 2605W        W 4805  29.787   4.580  18.907 -0.2582 -0.0063  0.0909
 2606W        W 4806  21.885   3.274  15.911 -0.1799  0.0679 -0.1374
 2607W        W 4807  27.514   6.559  22.961 -0.1921 -0.1464  0.2218
 2608W        W 4808  10.922   7.150   3.701 -0.0312 -0.1254  0.3022
 2609W        W 4809   6.137   6.317  20.937 -0.0756  0.3347  0.0310
 2610W        W 4810  14.873   2.970  24.101  0.0409 -0.2313  0.0576
 2611W        W 4811  30.434   1.488   4.284  0.0406  0.2997 -0.0589
 2612W        W 4812  20.271   7.231  15.638 -0.2718 -0.2337  0.0695
 2613W        W 4813  19.551   6.190  17.692  0.1004 -0.2131  0.0362
 2614W        W 4814  12.297   2.251   2.656 -0.1540  0.0836  0.1044
 2615W        W 4815  27.644   1.510  23.427  0.3366 -0.1976 -0.3606
 2616W        W 4816  20.669   1.231   9.697 -0.0594  0.2116 -0.0504
 2617W        W 4817   9.688   4.572  23.117  0.2181  0.1530 -0.0798
 2618W        W 4818  14.331   2.760   6.543  0.0828 -0.1026  0.1261
 2619W        W 4819  27.879   6.767  10.647 -0.1221 -0.0653 -0.1922
 2620W        W 4820   0.875   4.395   6.378 -0.0047  0.0136  0.2786
 2621W        W 4821   4.697   3.024  18.658  0.1469 -0.2777 -0.0316
 2622W        W 4822  17.399   7.001   7.682 -0.0185 -0.1205 -0.3036
 2623W        W 4823   5.812   4.716   7.579 -0.0379  0.4445  0.1237
 2624W        W 4824  26.283   2.114   3.300 -0.1802 -0.0735 -0.0331
 2625W        W 4825  17.081   7.727   8.668  0.1658  0.1078  0.0772
 2626W        W 4826  12.106   3.778   7.361  0.0083  0.0506  0.2777
 2627W        W 4827   6.477   5.457   7.484  0.0536  0.1272 -0.2477
 2628W        W 4828  30.970   4.821   1.469 -0.1304 -0.0891  0.1058
 2629W        W 4829  30.952   3.864  15.735 -0.0228 -0.1011 -0.1728
 2630W        W 4830  23.961   6.572   1.187  0.0937 -0.0796 -0.1073
 2631W        W 4831   4.943   2.144   7.742  0.1268 -0.0743  0.0091
 2632W        W 4832   2.180   7.854  22.169 -0.0915  0.3108 -0.1600
 2633W        W 4833  14.664   3.335  23.824  0.0970 -0.3216  0.2281
 2634W        W 4834  20.811   2.338   8.062  0.1233  0.2135  0.0620
 2635W        W 4835  13.076   1.904   2.349  0.1027 -0.2381 -0.5282
 2636W        W 4836  28.791   6.619  25.419 -0.0464 -0.0725  0.0612
 2637W        W 4837  24.325   1.133  15.150 -0.1278 -0.0834 -0.0197
 2638W        W 4838  25.776   6.535   6.967 -0.1594  0.3337 -0.1660
 2639W        W 4839   1.205   6.121   4.132  0.3618 -0.0501  0.1700
 2640W        W 4840  19.725   0.310  23.435 -0.1794  0.1117 -0.1919
 2641W        W 4841   5.177   3.829  23.072  0.1418 -0.0370  0.0738
 2642W        W 4842  21.184   7.225   1.254  0.1429  0.0642 -0.1048
 2643W        W 4843  17.350   2.821   0.058 -0.2532  0.1181 -0.2673
 2644W        W 4844   3.394   0.113   1.721  0.2225 -0.2299 -0.0398
 2645W        W 4845  15.417   1.288  21.665 -0.3731 -0.0849  0.2068
 2646W        W 4846   2.161   1.159   3.794 -0.0048  0.1140 -0.0837
 2647W        W 4847  21.193   1.023  22.158  0.4747 -0.1191  0.1223
 2648W        W 4848   6.137   1.707   3.248 -0.4488 -0.2224 -0.1897
 2649W        W 4849  11.318   1.320   7.621 -0.0393  0.1670 -0.2607
 2650W        W 4850  11.086   2.968   5.628 -0.2596 -0.1058  0.1074
 2651W        W 4851  30.164   4.729   7.770 -0.0298 -0.1853  0.0526
 2652W        W 4852   0.204   0.202   3.869 -0.1659  0.2067 -0.2190
 2653W        W 4853  21.300   1.401  17.860  0.0798  0.1098  0.0794
 2654W        W 4854   2.859   5.451  15.533  0.3096 -0.1769 -0.0518
 2655W        W 4855  22.015   0.801  25.505  0.1186  0.1911  0.0410
 2656W        W 4856   7.517   2.891   3.096  0.0787  0.0188  0.0103
 2657W        W 4857   1.243   4.464   4.094  0.0885  0.1454  0.0411
 2658W        W 4858  18.694   2.289   0.947 -0.2217 -0.1685  0.3430
 2659W        W 4859  29.279   6.235  21.676 -0.4680  0.2842 -0.0276
 2660W        W 4860   8.217   5.175  15.477  0.1684 -0.0064 -0.2112
 2661W        W 4861  20.318   4.978   4.202  0.0072  0.1988 -0.1724
 2662W        W 4862   9.753   1.229  22.800  0.0268 -0.1799  0.0216
 2663W        W 4863  28.373   6.139  16.608  0.2731 -0.0797  0.1816
 2664W        W 4864   4.907   6.280  16.122  0.1583  0.1718 -0.1651
 2665W        W 4865  12.198   2.695  16.921  0.0025  0.0659  0.1545
 2666W        W 4866   7.086   1.373  23.878  0.0150  0.0734 -0.0218
 2667W        W 4867  30.353   1.197  26.012 -0.2441  0.0759 -0.1143
 2668W        W 4868   3.258   6.930  23.446  0.1095  0.0276  0.1604
 2669W        W 4869  15.762   5.165  18.135  0.1234 -0.0457  0.0680
 2670W        W 4870  17.552   3.081   8.213  0.1132  0.0866 -0.0928
 2671W        W 4871  11.208   4.046   5.581  0.1429 -0.0624 -0.0377
 2672W        W 4872  24.661   3.107   4.359  0.1733  0.4078 -0.0411
 2673W        W 4873  10.897   0.323  23.412 -0.1328  0.2292 -0.3471
 2674W        W 4874  20.202   3.411   2.594  0.0316  0.0111 -0.4347
 2675W        W 4875  23.782   7.319   1.024  0.2801  0.1867 -0.0651
 2676W        W 4876  11.818   0.125  23.453  0.0507 -0.1784 -0.0487
 2677W        W 4877  11.211   3.220  21.446 -0.0604  0.1659  0.1149
 2678W        W 4878   9.157   5.739  18.124 -0.1245 -0.0580 -0.4452
 2679W        W 4879  26.636   3.175  18.120 -0.1407 -0.0765  0.1650
 2680W        W 4880   3.941   7.411   3.998  0.2289 -0.1067 -0.0517
 2681W        W 4881  17.284   6.145   3.618 -0.2095 -0.0253  0.0199
 2682W        W 4882  27.107   3.472  16.509 -0.0633 -0.0794 -0.0075
 2683W        W 4883  19.235   7.405  24.535 -0.0234 -0.2328 -0.0195
 2684W        W 4884  27.264   6.297  22.592 -0.0891  0.0844 -0.1854
 2685W        W 4885   3.710   1.285   1.798  0.0395 -0.0248  0.1186
 2686W        W 4886  23.107   5.281  16.114 -0.1553  0.0149 -0.0445
 2687W        W 4887  25.893   4.909  20.595 -0.0533  0.0804  0.1791
 2688W        W 4888   5.001   3.383   0.312 -0.2208 -0.1310  0.1145
 2689W        W 4889   4.929   4.502  19.847  0.1419  0.1240  0.0683
 2690W        W 4890  12.869   4.978   5.946 -0.1499  0.0916 -0.0021
 2691W        W 4891  14.005   3.441  21.041 -0.2236 -0.3400 -0.2147
 2692W        W 4892  12.633   6.672  18.301  0.0738  0.1248 -0.0302
 2693W        W 4893   9.728   5.354  23.173  0.1652 -0.0318 -0.1052
 2694W        W 4894   7.300   7.497   0.615 -0.0858  0.2003  0.0972
 2695W        W 4895  14.936   0.095  16.350 -0.0780  0.1360 -0.0919
 2696W        W 4896   0.722   7.314   6.072 -0.0106  0.1510 -0.1430
 2697W        W 4897   1.261   2.124  24.508  0.0751 -0.0302  0.0427
 2698W        W 4898   1.007   3.415   8.975 -0.3595 -0.1490 -0.1317
 2699W        W 4899  24.213   7.167  16.271  0.0761 -0.0368 -0.0690
 2700W        W 4900  13.043   2.952   4.099  0.3717  0.1230  0.0160
 2701W        W 4901  21.576   3.454   5.084  0.0371 -0.0946 -0.1159
 2702W        W 4902  10.107   4.778  18.228  0.0932  0.1738 -0.0794
 2703W        W 4903  15.049   7.396  16.446 -0.1957 -0.1603 -0.4641
 2704W        W 4904   7.993   7.247   7.734  0.0898 -0.1770  0.2206
 2705W        W 4905  18.596   4.626   7.491  0.3798  0.3279 -0.0700
 2706W        W 4906  25.580   0.661   2.641  0.1340 -0.1429 -0.0075
 2707W        W 4907  17.078   1.648  23.525  0.0897  0.0506 -0.0528
 2708W        W 4908   3.598   1.881  18.363 -0.1550 -0.1557  0.1867
 2709W        W 4909  21.584   7.665  23.475  0.1203 -0.3775 -0.0844
 2710W        W 4910   7.228   6.512  21.840  0.0002 -0.0326  0.1161
 2711W        W 4911  25.816   4.914   5.262 -0.1464 -0.2175  0.0407
 2712W        W 4912  22.947   6.400  24.055  0.2887 -0.0540 -0.1388
 2713W        W 4913  26.258   5.273   2.882 -0.0119  0.2805 -0.0860
 2714W        W 4914  10.267   1.482  25.482  0.0686  0.2331 -0.1013
 2715W        W 4915  30.146   4.653  21.408  0.1866 -0.0141 -0.3998
 2716W        W 4916  18.050   1.901  22.187 -0.1216 -0.0751  0.1224
 2717W        W 4917   8.245   6.521  17.662 -0.0056 -0.1606 -0.1653
 2718W        W 4918  18.581   0.473  15.874 -0.1424 -0.0632 -0.1446
 2719W        W 4919  22.833   7.009   7.578 -0.2264  0.1086 -0.0221
 2720W        W 4920  11.151   0.674  15.941  0.0273 -0.2520  0.3873
 2721W        W 4921   3.687   1.075  21.674  0.2944  0.0187  0.3248
 2722W        W 4922  25.031   1.776  17.480  0.0714  0.1310  0.0486
 2723W        W 4923  31.335   6.771   3.378 -0.2041 -0.0843 -0.0919
 2724W        W 4924  14.713   2.065   6.961 -0.0687 -0.1685  0.3874
 2725W        W 4925   9.644   5.849  10.699  0.0278 -0.2090  0.2584
 2726W        W 4926  17.769   4.604  18.602 -0.2790  0.0544 -0.1817
 2727W        W 4927  25.277   1.888   2.749  0.1086  0.1571 -0.1117
 2728W        W 4928  17.247   6.142   2.786 -0.3288 -0.2518  0.2213
 2729W        W 4929  16.395   5.718   7.431  0.0929  0.0931 -0.2441
 2730W        W 4930  11.446   2.231  25.623 -0.1784 -0.0480 -0.1190
 2731W        W 4931  18.908   4.409   6.626 -0.0629  0.0232  0.1215
 2732W        W 4932  17.619   6.444  24.139  0.0120 -0.0110  0.1042
 2733W        W 4933  13.982   4.424   0.206  0.0763 -0.0307 -0.2993
 2734W        W 4934  22.049   1.494  21.505 -0.3135  0.0232 -0.1144
 2735W        W 4935   7.931   2.418  15.939  0.0718  0.0452  0.0639
 2736W        W 4936   0.307   1.916  15.364  0.1261  0.2804 -0.0962
 2737W        W 4937  22.736   3.332   8.433 -0.2224  0.4137  0.2461
 2738W        W 4938  18.361   4.868  23.847 -0.1862 -0.0086  0.0793
 2739W        W 4939   6.373   6.539  11.295  0.3531 -0.0500 -0.1560
 2740W        W 4940  18.682   3.293   3.591  0.0096 -0.0473  0.0724
 2741W        W 4941   6.004   2.892   1.586 -0.2249 -0.1616 -0.3196
 2742W        W 4942  14.433   0.731  25.428 -0.0711  0.2038 -0.0988
 2743W        W 4943   1.697   4.756  20.493 -0.1346  0.2040  0.1624
 2744W        W 4944   7.452   3.512  24.257  0.1376 -0.2145 -0.2387
 2745W        W 4945  27.107   5.804   1.952 -0.2499  0.4429  0.0061
 2746W        W 4946  11.412   6.841  22.105  0.1116  0.1002 -0.0373
 2747W        W 4947  12.688   3.287   0.343  0.0139 -0.3357  0.3209
 2748W        W 4948  12.604   7.226  23.269  0.0771  0.1369 -0.3461
 2749W        W 4949  26.781   3.546   5.539  0.3975  0.2019 -0.0553
 2750W        W 4950   2.147   1.791  19.785 -0.1342  0.2991  0.0001
 2751W        W 4951   1.716   6.199   6.866  0.1154 -0.1460 -0.1031
 2752W        W 4952  18.587   1.225   6.702 -0.0361  0.1361 -0.1370
 2753W        W 4953  14.346   7.440  22.925 -0.0054 -0.0512  0.0596
 2754W        W 4954  14.638   6.712   5.307 -0.0480  0.2638  0.3672
 2755W        W 4955   3.734   2.890  18.389 -0.0799 -0.0989 -0.3198
 2756W        W 4956   7.700   3.430  20.267  0.1676 -0.0953  0.0249
 2757W        W 4957  29.036   6.089   8.774 -0.1594  0.0879  0.0749
 2758W        W 4958   0.572   4.245  19.364 -0.0867  0.0208 -0.3063
 2759W        W 4959   7.889   1.905   7.833  0.2681 -0.3177 -0.0529
 2760W        W 4960  16.021   2.955   1.038 -0.1088 -0.0430  0.0657
 2761W        W 4961  26.188   7.589  23.598 -0.0983  0.3326  0.1619
 2762W        W 4962  16.206   3.040  22.696  0.2112  0.0215  0.0404
 2763W        W 4963  14.239   0.427   6.904  0.2039 -0.1540 -0.2634
 2764W        W 4964  17.521   0.932   9.680 -0.1807  0.2174 -0.0790
 2765W        W 4965   3.117   3.799   4.328 -0.2355  0.0429  0.0826
 2766W        W 4966   3.470   2.663  14.927 -0.1900  0.1415  0.2807
 2767W        W 4967  14.683   4.645   6.507 -0.1281  0.0716  0.1722
 2768W        W 4968  17.123   2.408  21.036 -0.0185 -0.1957  0.0574
 2769W        W 4969  19.362   0.790   1.773  0.0552 -0.0209 -0.2071
 2770W        W 4970  26.378   3.502  25.352 -0.4439  0.1593  0.1084
 2771W        W 4971  23.252   2.506   5.861  0.2753 -0.0631 -0.2256
 2772W        W 4972  14.370   2.531   2.410  0.1641  0.3902  0.0322
 2773W        W 4973  27.787   0.761  20.307  0.0470 -0.3276 -0.0947
 2774W        W 4974   3.113   6.951  17.658  0.5046 -0.2173  0.1850
 2775W        W 4975  10.421   2.372  20.184  0.2901 -0.0429 -0.0106
 2776W        W 4976   7.146   0.288  17.806 -0.2867  0.0130 -0.1739
 2777W        W 4977   3.409   2.863   6.467 -0.0399  0.0301 -0.2056
 2778W        W 4978   6.883   2.625   9.192  0.0486 -0.2045 -0.1572
 2779W        W 4979  13.984   0.172  24.143  0.2811 -0.0022  0.2851
 2780W        W 4980   6.311   2.860   1.170  0.0144 -0.2088  0.1340
 2781W        W 4981   7.951   1.459  18.866  0.1575  0.0263  0.0790
 2782W        W 4982  27.133   6.104  10.109 -0.1263  0.1794  0.1677
 2783W        W 4983   4.254   3.384   0.692  0.1968  0.3567 -0.1441
 2784W        W 4984   9.516   3.791  14.994 -0.0964 -0.1630  0.2057
 2785W        W 4985  30.846   6.889   8.638  0.0073  0.0357  0.3251
 2786W        W 4986  13.765   1.452  23.464  0.4458 -0.0231  0.1518
 2787W        W 4987  24.343   1.332   8.426 -0.0849 -0.3393 -0.0697
 2788W        W 4988  28.969   4.857  17.981 -0.3386  0.0036  0.1792
 2789W        W 4989  25.454   6.504   0.251  0.0264 -0.0796 -0.2444
 2790W        W 4990  16.395   2.965  18.452  0.3791  0.0140 -0.0646
 2791W        W 4991   2.380   5.824   9.195 -0.1117  0.0833 -0.0102
 2792W        W 4992  30.301   6.718  19.975  0.0613 -0.1249 -0.1453
 2793W        W 4993  18.489   5.497  15.156 -0.2193 -0.1420 -0.0257
 2794W        W 4994  24.092   1.500  17.147 -0.1399 -0.0529  0.2256
 2795W        W 4995  25.431   3.072   8.054  0.0094 -0.0719  0.0844
 2796W        W 4996  11.887   7.299  16.060  0.0823  0.1193  0.1452
 2797W        W 4997   6.406   4.011  20.132  0.1095 -0.1578 -0.0761
 2798W        W 4998   2.882   7.642  14.483  0.1586 -0.0690 -0.2030
 2799W        W 4999  26.132   0.572  19.503  0.3438  0.1472  0.2043
 2800W        W 5000   8.985   6.137  15.184 -0.0664 -0.1259 -0.2496
 2801W        W 5001  21.029   6.065   7.491 -0.0916 -0.1638 -0.1462
 2802W        W 5002  14.188   4.480  21.039 -0.0981 -0.1002 -0.3973
 2803W        W 5003  20.978   7.410   9.173  0.2634  0.2855 -0.0089
 2804W        W 5004  12.300   6.338   8.105 -0.0953 -0.2300  0.1715
 2805W        W 5005   8.050   3.858   6.186 -0.1889  0.3517  0.0993
 2806W        W 5006   1.108   7.348   6.465 -0.2421  0.1753 -0.0322
 2807W        W 5007  23.218   1.520  21.910 -0.1160 -0.2456 -0.0591
 2808W        W 5008  26.446   4.585   0.387 -0.3506 -0.1397 -0.2673
 2809W        W 5009  20.812   3.052  25.155 -0.0661  0.0079  0.0744
 2810W        W 5010  19.183   3.079   6.092 -0.1669  0.2188 -0.5271
 2811W        W 5011  14.877   7.385   9.613 -0.0080  0.0678  0.1772
 2812W        W 5012  18.300   3.924  10.209 -0.0443 -0.1128 -0.0784
 2813W        W 5013   9.794   4.561  10.408  0.2352  0.2068 -0.1084
 2814W        W 5014   6.245   4.314   4.468 -0.0468  0.0968  0.1330
 2815W        W 5015  22.111   3.063  15.069  0.0652 -0.0381  0.2330
 2816W        W 5016  31.111   7.666  23.984 -0.0792 -0.1295  0.1185
 2817W        W 5017  31.422   3.528  17.811  0.0724 -0.0385 -0.0743
 2818W        W 5018  24.474   1.736  15.539 -0.1831  0.1156 -0.0867
 2819W        W 5019   9.640   2.250   0.359  0.1036  0.1475  0.0246
 2820W        W 5020  15.361   1.762   1.934 -0.1674  0.1178 -0.1852
 2821W        W 5021   0.513   7.138  20.974 -0.1571 -0.2185  0.4138
 2822W        W 5022   2.198   1.198  25.804 -0.1226 -0.0478 -0.2574
 2823W        W 5023   0.586   4.753  14.542  0.0572  0.0336 -0.0059
 2824W        W 5024  25.791   5.812  19.798  0.0839  0.3593  0.0368
 2825W        W 5025  23.793   7.016   9.073  0.1473  0.1753  0.2747
 2826W        W 5026   8.007   5.723   2.410 -0.1410  0.2353  0.0138
 2827W        W 5027  20.919   1.733   9.872  0.1152 -0.2218 -0.2789
 2828W        W 5028  30.982   6.636  19.390  0.1028  0.1872  0.0776
 2829W        W 5029  13.917   5.029   3.786 -0.3254  0.0242  0.1219
 2830W        W 5030  19.483   1.142  10.728 -0.2988 -0.0934  0.1760
 2831W        W 5031  28.162   6.516   0.323  0.1941 -0.2464 -0.0892
 2832W        W 5032  26.609   5.947   6.191  0.4467 -0.1708  0.2365
 2833W        W 5033   0.604   1.394   3.359 -0.0740  0.1409 -0.2664
 2834W        W 5034   4.973   3.589   7.422 -0.0880  0.2421  0.1609
 2835W        W 5035  19.566   3.231  15.267  0.0711  0.1268  0.1225
 2836W        W 5036  12.101   3.156  16.406 -0.2230 -0.0863  0.1445
 2837W        W 5037   6.965   6.657  15.620 -0.0109 -0.0829  0.1215
 2838W        W 5038  28.555   5.441  23.879 -0.1449  0.2737  0.4512
 2839W        W 5039  12.152   5.611  15.835  0.0106  0.3284 -0.0678
 2840W        W 5040  31.367   6.885  18.463 -0.1638  0.1196  0.1728
 2841W        W 5041   2.820   2.092  17.748  0.1169  0.0474 -0.0193
 2842W        W 5042   4.782   7.624   7.751 -0.0222  0.1206 -0.2096
 2843W        W 5043   6.498   3.451   8.711 -0.1594  0.0748 -0.1450
 2844W        W 5044   0.393   2.639   5.500 -0.1184 -0.0212  0.2284
 2845W        W 5045   0.125   4.560  20.611  0.3071 -0.3602  0.0337
 2846W        W 5046  26.603   5.036  18.120  0.3486  0.0427  0.1457
 2847W        W 5047  11.761   3.844  24.912  0.3466  0.0160 -0.0251
 2848W        W 5048  21.799   5.756  22.880  0.1197  0.1982 -0.0245
 2849W        W 5049  31.163   6.345  17.478 -0.2363  0.2459  0.3363
 2850W        W 5050  14.054   6.045  23.448 -0.0596  0.2104  0.1500
 2851W        W 5051  29.603   1.319  17.342  0.0077 -0.0786 -0.1531
 2852W        W 5052  16.446   1.356   5.040  0.2613 -0.1537  0.0650
 2853W        W 5053   6.166   5.480  20.573 -0.2838 -0.5009 -0.1531
 2854W        W 5054  19.641   5.449  23.578  0.0480 -0.1458 -0.2076
 2855W        W 5055  20.219   5.681   7.762 -0.3047 -0.1627 -0.0348
 2856W        W 5056  19.000   3.723   9.753 -0.2151  0.1483  0.2516
 2857W        W 5057   8.596   6.834   3.029  0.0647  0.0590  0.0699
 2858W        W 5058  30.296   4.642  22.881  0.0263  0.2153 -0.0725
 2859W        W 5059   7.550   6.853   9.527  0.0259 -0.1305  0.0111
 2860W        W 5060  28.945   2.122  21.099 -0.1596 -0.2840 -0.0862
 2861W        W 5061  18.584   5.145  21.265 -0.1269  0.3591 -0.0601
 2862W        W 5062   9.806   6.010  22.609  0.1784 -0.2021  0.4117
 2863W        W 5063  19.993   1.074  10.606 -0.0726 -0.0853 -0.2810
 2864W        W 5064  25.092   0.706  21.660 -0.0754  0.2929 -0.0569
 2865W        W 5065  15.735   5.903  19.315  0.1333 -0.0407 -0.3907
 2866W        W 5066   0.356   5.851   7.868 -0.1397 -0.5192  0.0296
 2867W        W 5067  17.826   3.761  17.803 -0.1641 -0.2230 -0.0409
 2868W        W 5068  19.859   7.099  25.944 -0.0749 -0.0365  0.0376
 2869W        W 5069  16.449   0.917  17.574 -0.0601  0.1070  0.1830
 2870W        W 5070   0.489   4.106   6.232  0.0114 -0.0595 -0.1365
 2871W        W 5071  18.395   5.256   1.221  0.0935 -0.1318  0.1564
 2872W        W 5072  17.381   7.061  18.221  0.3028 -0.1062 -0.0174
 2873W        W 5073  23.711   7.222   3.519 -0.2031  0.2106  0.2301
 2874W        W 5074  31.441   3.245   2.005 -0.1268 -0.2165  0.0509
 2875W        W 5075   9.737   5.344   2.508 -0.1823 -0.2263  0.1196
 2876W        W 5076  13.022   5.630  16.961  0.0218  0.0140  0.2150
 2877W        W 5077  28.670   4.087   9.374 -0.2158 -0.1759  0.2344
 2878W        W 5078  21.862   4.641  16.007  0.0021 -0.0191  0.2385
 2879W        W 5079   3.483   2.327  17.687 -0.3887  0.1935  0.1261
 2880W        W 5080  23.389   6.335  20.177  0.1077 -0.0397  0.2815
 2881W        W 5081  17.932   0.385  11.500 -0.0979 -0.0099 -0.0033
 2882W        W 5082  10.553   4.589  21.613  0.1760  0.0344 -0.0775
 2883W        W 5083  12.061   2.051  17.624  0.2433  0.3709 -0.1184
 2884W        W 5084  23.863   6.344  21.288  0.1190 -0.0265 -0.1305
 2885W        W 5085  10.651   2.512   3.255 -0.3740  0.0984 -0.0307
 2886W        W 5086   8.266   7.127   1.425  0.1336 -0.1893  0.1553
 2887W        W 5087  18.363   4.994  10.810 -0.0053 -0.0086 -0.3251
 2888W        W 5088  23.381   3.887  17.732 -0.0261 -0.0772 -0.0066
 2889W        W 5089  14.663   0.118  19.079 -0.2388  0.2004  0.1946
 2890W        W 5090   7.291   3.727  20.098  0.1961 -0.3326 -0.2218
 2891W        W 5091  20.811   1.630  18.792  0.0563 -0.1586 -0.1147
 2892W        W 5092  11.198   0.768  25.899  0.0797 -0.2230  0.1125
 2893W        W 5093  11.028   3.952  19.918  0.2660  0.0302 -0.1777
 2894W        W 5094  12.753   4.485   8.793 -0.0688  0.0022  0.0932
 2895W        W 5095  30.467   3.077   9.784  0.0343  0.1534  0.5183
 2896W        W 5096  23.295   5.916  24.228  0.0819  0.0842 -0.1682
 2897W        W 5097   7.005   1.297   8.420 -0.1764 -0.3483 -0.1569
 2898W        W 5098  17.790   3.357   7.740 -0.0005  0.0902 -0.2157
 2899W        W 5099  12.882   4.306  16.975  0.0702 -0.2029  0.2702
 2900W        W 5100  28.056   6.431  20.785 -0.1800  0.0176  0.0236
 2901W        W 5101  23.197   2.190   6.606  0.0572  0.2723  0.0408
 2902W        W 5102   0.444   3.732  16.509  0.1452  0.0743  0.1406
 2903W        W 5103  25.058   7.819  22.172 -0.2607  0.1766 -0.1923
 2904W        W 5104  24.126   5.562   2.326  0.2542 -0.0904  0.0119
 2905W        W 5105   5.717   1.077   6.760  0.2304 -0.3152 -0.0469
 2906W        W 5106  28.173   2.983   4.402 -0.0994 -0.1999  0.0456
 2907W        W 5107   2.493   3.240   3.923 -0.1276 -0.0487  0.0962
 2908W        W 5108  29.389   0.580  25.351  0.1039  0.1858  0.2750
 2909W        W 5109  26.125   7.719  23.033  0.0849 -0.6320 -0.2381
 2910W        W 5110  31.065   6.827  22.925  0.0755  0.1349  0.0839
 2911W        W 5111  10.273   1.713   0.184 -0.1054 -0.1990 -0.1445
 2912W        W 5112  17.268   6.679  19.894 -0.3188  0.0577 -0.0787
 2913W        W 5113  17.567   3.478   2.654  0.0485 -0.2219 -0.0629
 2914W        W 5114  28.468   6.602   2.972  0.1087  0.0300  0.1051
 2915W        W 5115   8.973   2.352   2.490  0.2544  0.1533 -0.0618
 2916W        W 5116  22.750   2.983   4.562 -0.1633 -0.2246  0.0746
 2917W        W 5117   1.195   1.117  20.328  0.0955  0.2833 -0.2776
 2918W        W 5118  22.830   2.844  22.108  0.3233  0.1186 -0.1738
 2919W        W 5119  17.879   2.825   5.333 -0.0056 -0.0147  0.0290
 2920W        W 5120  25.957   3.636  25.131  0.1300  0.3093 -0.1916
 2921W        W 5121   4.810   7.674  16.712  0.2451  0.0656  0.1885
 2922W        W 5122  22.123   6.026   9.415  0.1672  0.0144 -0.0039
 2923W        W 5123  30.501   5.335   4.045  0.0565  0.0525 -0.1253
 2924W        W 5124  27.054   7.185   7.152  0.1640  0.2959 -0.2253
 2925W        W 5125  19.819   4.150  22.162  0.0962  0.0305  0.1891
 2926W        W 5126  14.050   5.440   0.853 -0.2932  0.1070  0.1532
 2927W        W 5127  20.209   3.498  21.271 -0.0580  0.0450 -0.1028
 2928W        W 5128  19.667   0.882  23.655  0.0328  0.1035  0.0158
 2929W        W 5129   5.265   5.901  25.877  0.0886 -0.1620  0.4018
 2930W        W 5130  25.407   1.432  22.182  0.0295  0.1578  0.0289
 2931W        W 5131  30.865   3.555  24.143 -0.1765  0.0271  0.2366
 2932W        W 5132  11.511   6.067   6.270 -0.2112 -0.0150 -0.1124
 2933W        W 5133  30.139   3.791   7.121 -0.3104  0.1724 -0.0467
 2934W        W 5134   2.936   1.158  21.768  0.0430  0.2177  0.0796
 2935W        W 5135  13.912   7.448  17.999  0.2594 -0.2296 -0.0608
 2936W        W 5136   1.612   3.172  24.729  0.1191  0.1350  0.1135
 2937W        W 5137  30.285   2.686  17.371 -0.1624 -0.2610 -0.2047
 2938W        W 5138  22.807   6.199  23.652 -0.0772  0.0864  0.0416
 2939W        W 5139  15.327   7.564   0.102 -0.1865  0.1130 -0.2207
 2940W        W 5140   2.098   4.690   5.963 -0.0671 -0.1104  0.0053
 2941W        W 5141  28.916   1.200  22.600  0.0475 -0.1046 -0.0998
 2942W        W 5142   0.304   1.964  24.191  0.0412  0.2784 -0.2337
 2943W        W 5143  18.273   0.094   7.348 -0.1550 -0.2529  0.0981
 2944W        W 5144  27.630   6.604   0.129  0.1029  0.2737 -0.0416
 2945W        W 5145  20.023   6.918   7.780  0.3085 -0.0161 -0.0004
 2946W        W 5146  14.240   7.274  21.479  0.3230  0.0510  0.1009
 2947W        W 5147   8.771   1.744   0.445 -0.1964  0.1913 -0.0877
 2948W        W 5148  27.789   7.514   3.090  0.0516  0.4957  0.3029
 2949W        W 5149  29.817   6.268   0.737 -0.1437  0.0834  0.2503
 2950W        W 5150  26.035   4.979   4.785  0.1781 -0.1778 -0.1506
 2951W        W 5151  18.493   2.979  15.881 -0.1917 -0.2551 -0.0727
 2952W        W 5152  31.019   4.047   1.894 -0.3439 -0.3908 -0.2782
 2953W        W 5153   8.029   4.761   5.929  0.0391 -0.0618 -0.3221
 2954W        W 5154  23.050   2.985   7.495 -0.0568  0.0642  0.1073
 2955W        W 5155   3.270   1.618  19.613 -0.0383  0.1073 -0.1492
 2956W        W 5156   1.090   3.919   2.518  0.1512  0.0231  0.0170
 2957W        W 5157  27.783   2.527  18.882 -0.1142 -0.1204 -0.0737
 2958W        W 5158  21.586   5.546  18.596 -0.2941 -0.0708  0.1770
 2959W        W 5159   6.490   0.469  20.503  0.0138  0.2468  0.2830
 2960W        W 5160  24.687   6.420  17.204  0.1102  0.0123 -0.1315
 2961W        W 5161  18.236   2.997   8.852 -0.1118 -0.1783  0.4072
 2962W        W 5162  25.285   2.778   7.004  0.2051 -0.1610  0.1459
 2963W        W 5163  22.693   2.321   0.935  0.1760  0.1264 -0.1198
 2964W        W 5164  25.933   6.049   6.850  0.2278 -0.1052  0.1226
 2965W        W 5165   7.902   6.265  17.912 -0.5493  0.3513 -0.0323
 2966W        W 5166  15.682   1.902   3.376  0.1565  0.0639  0.1134
 2967W        W 5167  26.454   4.852  25.410  0.0464  0.0422  0.1910
 2968W        W 5168  17.383   2.934  21.706  0.2050 -0.2468 -0.1095
 2969W        W 5169   0.742   2.333  22.867  0.0336 -0.1044  0.1883
 2970W        W 5170   9.340   2.059  18.869  0.1077  0.0593 -0.1285
 2971W        W 5171   0.564   6.984  25.867 -0.1329 -0.0880  0.0669
 2972W        W 5172   4.414   0.984  15.790 -0.1910  0.0988 -0.0952
 2973W        W 5173  27.144   2.562   4.505  0.2300  0.1941 -0.0280
 2974W        W 5174  12.634   6.385  21.506 -0.0097 -0.0364 -0.0187
 2975W        W 5175  24.816   7.815  24.086 -0.0717  0.1137  0.2375
 2976W        W 5176  28.947   3.425   2.445 -0.0641 -0.0346  0.0019
 2977W        W 5177  26.151   6.525   7.321  0.3543  0.2231  0.2828
 2978W        W 5178  25.464   5.754  25.809  0.0385  0.0726  0.2331
 2979W        W 5179  14.763   4.137   1.470 -0.1996 -0.1496  0.0094
 2980W        W 5180  26.829   1.006  23.307  0.2124  0.0470  0.1212
 2981W        W 5181   4.251   6.050  24.348  0.1333  0.2783 -0.3982
 2982W        W 5182  30.789   3.630  25.763  0.0639  0.0647  0.1310
 2983W        W 5183  24.755   6.285  25.943  0.0740  0.2659  0.3028
 2984W        W 5184  13.496   7.242   5.173 -0.0244 -0.1538  0.1275
 2985W        W 5185  23.592   1.357   2.549 -0.2786  0.2074 -0.0306
 2986W        W 5186  10.727   7.566  26.062  0.1517 -0.2361  0.0447
 2987W        W 5187  17.355   6.014   6.929  0.2342 -0.0551 -0.0386
 2988W        W 5188  25.909   3.335   5.767  0.2009  0.0405 -0.2735
 2989W        W 5189   5.812   6.010  16.669  0.1096  0.0131  0.3433
 2990W        W 5190   8.173   5.629   5.790  0.4604  0.2374 -0.1067
 2991W        W 5191   8.093   3.653  16.859  0.0854  0.0550  0.2105
 2992W        W 5192   2.571   3.848   1.593  0.2767 -0.1927  0.0134
 2993W        W 5193   8.619   1.376   3.420  0.0306  0.2568 -0.0620
 2994W        W 5194   6.404   7.785  21.169  0.3583 -0.2721  0.2809
 2995W        W 5195  22.617   4.729  21.602 -0.1622 -0.1056  0.0469
 2996W        W 5196  28.571   2.400   1.886  0.1835  0.2136 -0.0592
 2997W        W 5197  23.634   5.804   3.773 -0.2320 -0.0505 -0.0478
 2998W        W 5198  27.554   0.391  17.330 -0.4029  0.0149 -0.0643
 2999W        W 5199  21.281   1.857   8.110  0.1861 -0.0361  0.2030
 3000W        W 5200   6.554   7.407   3.072  0.0581  0.4076 -0.0616
 3001W        W 5201  20.940   0.935   6.869 -0.0120  0.0450 -0.1883
 3002W        W 5202   2.893   1.712  20.458  0.0639 -0.3183 -0.2417
 3003W        W 5203  19.331   1.872  21.675 -0.0517 -0.1176 -0.1824
 3004W        W 5204  15.264   0.035   7.743 -0.1903  0.0761 -0.2201
 3005W        W 5205  30.170   2.347  22.338 -0.2303 -0.1396  0.0734
 3006W        W 5206  11.585   2.361  16.508  0.1506 -0.0342  0.1664
 3007W        W 5207   1.249   5.767  10.006  0.1513  0.0860 -0.1816
 3008W        W 5208  20.340   1.802  24.505 -0.2388 -0.1037  0.0008
 3009W        W 5209  17.570   0.920  22.021 -0.1643 -0.2359 -0.2891
 3010W        W 5210  31.157   7.540   8.030  0.1205  0.0558  0.0685
 3011W        W 5211  15.921   3.287  21.498  0.0043 -0.2515  0.1456
 3012W        W 5212  17.768   5.617  15.712  0.2208 -0.3942 -0.1510
 3013W        W 5213   4.281   1.140   9.419 -0.1213  0.1511  0.4172
 3014W        W 5214  21.781   0.971  24.967  0.0579  0.0740  0.0018
 3015W        W 5215  16.855   2.044   7.931  0.3299  0.0608  0.1320
 3016W        W 5216   0.782   3.826   9.154  0.4452 -0.2356  0.0684
 3017W        W 5217   5.735   4.294   7.158  0.1404  0.0928 -0.2493
 3018W        W 5218  25.667   5.793   1.503  0.0432  0.0519  0.2680
 3019W        W 5219  17.100   2.280  10.466  0.1392  0.4474  0.3270
 3020W        W 5220  28.106   7.846  19.974  0.1939  0.4665 -0.0249
 3021W        W 5221   9.564   0.542   1.607  0.0778  0.0173 -0.2816
 3022W        W 5222  17.292   2.721   0.626 -0.3297  0.0524 -0.0975
 3023W        W 5223  23.500   5.389   8.211 -0.2486 -0.3536  0.2385
 3024W        W 5224   4.980   3.533   5.602  0.0361  0.0260  0.1493
 3025W        W 5225   9.468   1.734  14.555  0.0200  0.2135  0.3057
 3026W        W 5226  20.447   5.414  18.218  0.0616  0.1428 -0.0813
 3027W        W 5227   8.218   5.405   0.007 -0.1986  0.0075  0.1123
 3028W        W 5228   7.224   3.781   0.587 -0.0379 -0.2061  0.0540
 3029W        W 5229   6.641   3.869  17.072  0.1164  0.1289  0.2672
 3030W        W 5230  17.308   2.390   1.454 -0.0709  0.1339  0.1417
 3031W        W 5231  12.315   0.056   1.956 -0.0492 -0.2791  0.1269
 3032W        W 5232   7.450   6.003  25.736 -0.1829 -0.3909 -0.0678
 3033W        W 5233  23.280   1.306   8.636 -0.1908 -0.0701 -0.0433
 3034W        W 5234  11.500   5.571  25.284  0.1746  0.1321  0.1454
 3035W        W 5235   2.042   6.036  24.549 -0.0996  0.1082 -0.2367
 3036W        W 5236  15.958   7.726   0.922 -0.1053  0.0237 -0.1290
 3037W        W 5237   8.059   6.970   0.614  0.2221 -0.1114 -0.2631
 3038W        W 5238   9.536   2.195  22.862  0.0957  0.2007  0.2868
 3039W        W 5239   3.958   3.289   9.273 -0.1433 -0.1052 -0.1354
 3040W        W 5240   0.954   5.989   4.558  0.0077 -0.0434  0.0447
 3041W        W 5241  14.618   1.075  20.592 -0.0853 -0.2379 -0.2011
 3042W        W 5242  12.151   0.298  10.106 -0.1295 -0.1845  0.1403
 3043W        W 5243  24.344   5.531   5.213 -0.1793  0.1362 -0.2773
 3044W        W 5244  21.656   1.516  19.998 -0.1130 -0.0676  0.0049
 3045W        W 5245  10.932   5.725  21.599  0.1289 -0.0921  0.0364
 3046W        W 5246   8.637   1.719  19.593 -0.1840  0.0715  0.1463
 3047W        W 5247  27.688   5.488   9.958 -0.0946  0.1843  0.0155
 3048W        W 5248   8.961   4.461  17.867  0.0769 -0.1500 -0.2096
 3049W        W 5249  22.503   4.314   6.551 -0.2672 -0.2096 -0.1379
 3050W        W 5250  27.650   7.404  16.393  0.1119  0.1291 -0.1044
 3051W        W 5251  15.560   5.920  16.258  0.1957  0.0069  0.1044
 3052W        W 5252  18.578   4.692   6.837 -0.0064  0.3179  0.0172
 3053W        W 5253   5.192   4.065   6.125 -0.1088 -0.1524  0.1234
 3054W        W 5254  16.114   6.061   8.240 -0.2302 -0.0522 -0.3267
 3055W        W 5255  10.365   2.599   2.294  0.3355  0.2310 -0.1270
 3056W        W 5256  20.240   3.089   3.972 -0.1499 -0.0878 -0.0687
 3057W        W 5257   6.036   5.796   9.852  0.1907 -0.1802  0.1779
 3058W        W 5258  27.991   0.544   0.178 -0.1883  0.3182 -0.1663
 3059W        W 5259  12.264   7.635   7.865 -0.1623 -0.2481 -0.0234
 3060W        W 5260  30.131   4.715  16.234 -0.3625  0.2233 -0.2887
 3061W        W 5261   5.888   0.569  16.658 -0.0218 -0.0211  0.0914
 3062W        W 5262  17.433   4.560  22.472 -0.0725 -0.0213  0.0376
 3063W        W 5263  11.033   1.371   8.530  0.1169  0.1478  0.0454
 3064W        W 5264  24.276   2.618  25.952  0.1672 -0.0913  0.2390
 3065W        W 5265  13.546   2.197  10.812 -0.2468  0.1705  0.2386
 3066W        W 5266   8.278   1.694  26.062  0.2855  0.2024 -0.0020
 3067W        W 5267  30.211   0.481   8.072 -0.0920 -0.0063 -0.0762
 3068W        W 5268  25.887   6.938  17.376 -0.2950 -0.1581 -0.1655
 3069W        W 5269   9.449   4.055  18.764  0.0619 -0.2891 -0.1644
 3070W        W 5270  13.647   6.275  22.665 -0.0034 -0.2776 -0.5455
 3071W        W 5271  14.953   2.994  22.467 -0.1046 -0.0134 -0.1186
 3072W        W 5272  19.375   3.002  15.647  0.0390  0.0730 -0.2053
 3073W        W 5273  21.889   7.271   2.932  0.0829  0.0958  0.1298
 3074W        W 5274  16.645   1.892  23.329 -0.0158 -0.2366  0.0002
 3075W        W 5275  21.363   3.209  15.796 -0.0551 -0.0636 -0.2682
 3076W        W 5276  12.190   1.773  10.782  0.1137 -0.1206 -0.2044
 3077W        W 5277  16.259   2.517  15.694  0.1715 -0.3288 -0.2257
 3078W        W 5278  29.123   7.450  21.071 -0.0322 -0.2210  0.0192
 3079W        W 5279   3.481   4.587  20.107 -0.0970  0.0408 -0.0831
 3080W        W 5280   8.126   0.221   6.322  0.1800  0.3021  0.2443
 3081W        W 5281  18.223   2.956  22.492  0.3049 -0.0917  0.2868
 3082W        W 5282   8.311   6.397  25.580  0.1140 -0.0204  0.0483
 3083W        W 5283   4.615   4.002  21.573  0.0270 -0.2322 -0.3056
 3084W        W 5284  16.260   0.324   1.686 -0.1986  0.2252  0.1572
 3085W        W 5285   2.300   1.372  18.603  0.1143  0.0055 -0.1735
 3086W        W 5286   0.820   1.249   0.466  0.0174 -0.1142  0.0338
 3087W        W 5287   6.680   6.899  17.939  0.2210 -0.0384  0.1169
 3088W        W 5288   5.492   4.703  21.103 -0.1626  0.0392  0.3256
 3089W        W 5289  12.398   3.080   9.746 -0.1539 -0.4351  0.2122
 3090W        W 5290  16.015   6.843  17.371 -0.1556  0.1314  0.0964
 3091W        W 5291  23.113   1.845  17.720 -0.0066  0.3122 -0.0683
 3092W        W 5292  16.944   4.478  22.603 -0.0424  0.1507 -0.0128
 3093W        W 5293  27.148   1.701   2.871 -0.0034  0.0572  0.0130
 3094W        W 5294  21.028   3.726  20.460  0.0768 -0.1696 -0.1194
 3095W        W 5295   6.080   1.874  24.224 -0.0674 -0.0019 -0.1426
 3096W        W 5296  24.148   1.692   8.723  0.1618 -0.1139  0.0236
 3097W        W 5297  20.607   1.308  24.914  0.1162  0.2880  0.2639
 3098W        W 5298  13.125   4.169   7.661 -0.0014 -0.0292  0.1150
 3099W        W 5299  26.232   6.779   1.920  0.3134 -0.0078 -0.1677
 3100W        W 5300   6.180   5.142   7.922  0.0830  0.0798  0.0433
 3101W        W 5301  20.317   3.796  18.580  0.3201 -0.1256 -0.0107
 3102W        W 5302  20.950   7.009   0.508 -0.1734 -0.0037  0.0840
 3103W        W 5303   1.073   1.927  16.665  0.0828 -0.0138  0.1912
 3104W        W 5304  10.944   7.411  16.122  0.0114  0.1596  0.0509
 3105W        W 5305  11.985   5.608  23.554 -0.0740 -0.0980  0.1200
 3106W        W 5306  13.310   0.995  18.382 -0.0793  0.0405  0.0675
 3107W        W 5307   4.194   6.866  25.221 -0.1588  0.0952 -0.1270
 3108W        W 5308  28.587   1.942   9.428 -0.2036 -0.2591  0.0059
 3109W        W 5309  12.620   6.118   5.882  0.2742 -0.1485 -0.1502
 3110W        W 5310  28.531   3.879   0.887  0.1517 -0.0463  0.0634
 3111W        W 5311   2.150   3.040   6.518  0.0495 -0.0759 -0.1486
 3112W        W 5312   3.120   0.938  18.174  0.0170  0.1195  0.2092
 3113W        W 5313  11.366   0.803   7.770 -0.0588  0.1671  0.1743
 3114W        W 5314  18.315   7.096   4.347 -0.2241 -0.1547 -0.0897
 3115W        W 5315  27.947   6.781   9.665 -0.0959 -0.0912 -0.1246
 3116W        W 5316   4.941   2.919  24.230  0.0060  0.2686  0.1485
 3117W        W 5317  28.213   6.669  21.720 -0.0944 -0.0879 -0.0275
 3118W        W 5318  20.567   0.512  16.261 -0.3293 -0.3253 -0.1210
 3119W        W 5319   7.343   1.456  16.974  0.0337  0.0202 -0.3015
 3120W        W 5320   8.917   6.873  15.539  0.4567  0.3019 -0.0760
 3121W        W 5321  13.742   1.857  18.014  0.0944  0.2058 -0.2359
 3122W        W 5322  31.432   2.327   9.084  0.2931  0.1579 -0.1312
 3123W        W 5323  12.377   1.132   9.811 -0.0843  0.2335 -0.0674
 3124W        W 5324  20.182   2.154   4.079 -0.2088 -0.0799 -0.1000
 3125W        W 5325   4.454   7.467   1.810  0.0972  0.4777 -0.0018
 3126W        W 5326  11.513   3.832  20.211  0.0321 -0.1316  0.2404
 3127W        W 5327   4.464   4.866  19.731  0.0117  0.0473 -0.0690
 3128W        W 5328  17.833   4.974  11.574 -0.2073  0.0279 -0.1015
 3129W        W 5329  12.896   1.586  24.021  0.0476 -0.2591  0.0923
 3130W        W 5330  24.173   4.273   0.043 -0.1546 -0.0490  0.2810
 3131W        W 5331  15.420   4.308   4.397  0.0568 -0.0400 -0.1182
 3132W        W 5332   9.451   2.042  18.318  0.0273 -0.0786 -0.1723
 3133W        W 5333  28.117   2.983  22.896 -0.2014 -0.2149 -0.2950
 3134W        W 5334  30.693   1.637  20.770 -0.1770  0.1289 -0.2505
 3135W        W 5335  25.171   4.843   7.044 -0.1348 -0.0956  0.0422
 3136W        W 5336  16.890   7.477  21.586 -0.1739  0.0520  0.0331
 3137W        W 5337  21.007   5.759  22.269  0.2346 -0.3179  0.3596
 3138W        W 5338  14.636   0.498  23.496 -0.0497 -0.1237 -0.1148
 3139W        W 5339  12.958   0.642  19.744 -0.0462 -0.0820 -0.2820
 3140W        W 5340  13.370   0.694   9.679  0.0124 -0.1345  0.2500
 3141W        W 5341  11.768   2.526   6.482  0.0503  0.3086 -0.1211
 3142W        W 5342  11.140   5.122   5.716  0.1443 -0.0270 -0.0224
 3143W        W 5343  22.863   2.218  23.211 -0.0782  0.3669  0.5596
 3144W        W 5344  27.438   2.762   6.235 -0.2911  0.0602  0.5295
 3145W        W 5345   2.913   7.253  23.303  0.0912  0.0527  0.3306
 3146W        W 5346   7.446   7.757  10.461 -0.1157 -0.0544 -0.0095
 3147W        W 5347  12.336   5.705   8.849 -0.1913  0.0595  0.1393
 3148W        W 5348  16.366   6.773  15.282 -0.0910 -0.0305 -0.0456
 3149W        W 5349  14.768   7.405  17.926 -0.0599  0.3607  0.0652
 3150W        W 5350   1.121   0.802  25.498 -0.0810 -0.3799 -0.0571
 3151W        W 5351  13.158   7.299   3.007 -0.2219  0.2433  0.3056
 3152W        W 5352   5.192   3.876  25.317  0.2045  0.0184  0.2990
 3153W        W 5353   6.086   4.344  24.128  0.3681 -0.1758 -0.0246
 3154W        W 5354   7.866   5.353   5.134  0.0639 -0.1631 -0.0574
 3155W        W 5355   4.206   3.348  22.463 -0.1122 -0.3437  0.1302
 3156W        W 5356  25.695   6.429  19.109  0.0712  0.2738  0.1378
 3157W        W 5357  17.898   4.364   6.244 -0.1704 -0.0769 -0.2918
 3158W        W 5358  26.851   1.719   5.862 -0.0660  0.2782  0.0002
 3159W        W 5359   0.549   0.613   2.181 -0.4647 -0.0618  0.2614
 3160W        W 5360  17.448   4.550  16.334 -0.1704 -0.0784 -0.4990
 3161W        W 5361  30.968   5.457  18.300  0.1690  0.1301  0.2328
 3162W        W 5362  29.014   1.401  14.392  0.1302  0.1670 -0.0188
 3163W        W 5363  13.933   5.167   1.269  0.0932 -0.0620 -0.3415
 3164W        W 5364   5.627   5.081   4.085  0.1110 -0.2775  0.4937
 3165W        W 5365   1.840   5.462  22.982  0.2148 -0.0355 -0.0396
 3166W        W 5366   9.658   1.068  19.035  0.0742 -0.2874 -0.0334
 3167W        W 5367  15.339   5.782  20.147  0.0275  0.1638  0.0081
 3168W        W 5368  10.148   3.419   2.363 -0.0285  0.1274  0.0601
 3169W        W 5369  19.213   3.016  17.842 -0.2721 -0.0220  0.2402
 3170W        W 5370  30.354   1.053   9.532 -0.0986  0.1715  0.1448
 3171W        W 5371  24.126   5.054  17.071  0.0497 -0.2314  0.0743
 3172W        W 5372  22.915   0.684  22.735  0.3075 -0.0746 -0.0596
 3173W        W 5373  28.540   5.413  16.225 -0.0857 -0.3213 -0.2172
 3174W        W 5374  17.249   4.612   4.387  0.2168 -0.0374  0.2043
 3175W        W 5375  17.278   5.697  23.867  0.2272 -0.1640  0.2233
 3176W        W 5376   3.164   7.677   2.840  0.0037  0.0232 -0.0599
 3177W        W 5377  18.060   7.195  18.888  0.0204  0.3508  0.2036
 3178W        W 5378  23.916   5.887  25.793  0.1406  0.0689  0.0754
 3179W        W 5379  12.943   6.671   8.375  0.0512  0.1292 -0.0509
 3180W        W 5380  31.422   6.489  18.149  0.0970  0.2566  0.2803
 3181W        W 5381  22.294   2.646  16.288 -0.2502 -0.0836 -0.1241
 3182W        W 5382   7.116   6.534   4.751 -0.0884 -0.0341  0.0341
 3183W        W 5383  17.262   6.031  26.015 -0.1246  0.0711  0.0781
 3184W        W 5384  10.735   7.301   4.134 -0.1721 -0.0929  0.1607
 3185W        W 5385   3.281   7.141  21.488 -0.0011 -0.1667 -0.0725
 3186W        W 5386   5.686   1.348  17.612 -0.1086  0.0167 -0.2164
 3187W        W 5387   9.587   6.935  20.894 -0.1482  0.1946 -0.0857
 3188W        W 5388  30.822   7.402  16.679  0.3116  0.2018  0.0894
 3189W        W 5389  20.118   5.196  18.555  0.2532 -0.1392  0.1055
 3190W        W 5390  30.387   7.330   6.462 -0.1072  0.1204  0.0759
 3191W        W 5391  22.876   6.506  19.672 -0.2281  0.0411  0.2509
 3192W        W 5392   2.615   4.058  21.129 -0.0115 -0.1542 -0.0780
 3193W        W 5393  22.966   3.902   7.800 -0.0530  0.3159 -0.4266
 3194W        W 5394  20.416   7.700  23.391  0.1298  0.0136  0.0898
 3195W        W 5395  21.950   2.235  25.365 -0.0624 -0.3513  0.2517
 3196W        W 5396  30.822   2.004   8.823 -0.0641  0.5206 -0.1102
 3197W        W 5397  15.563   1.195   4.244 -0.2159 -0.0640 -0.2175
 3198W        W 5398   5.447   2.458   1.260  0.1394  0.1250 -0.3461
 3199W        W 5399  14.388   7.660   6.847  0.0102 -0.1254 -0.0857
 3200W        W 5400  17.825   2.660  17.117  0.1605 -0.2266 -0.2173
 3201W        W 5401  19.191   7.408   5.595 -0.0210 -0.0597  0.0904
 3202W        W 5402   5.617   5.030  15.982 -0.0774  0.1571 -0.1081
 3203W        W 5403  23.562   2.403   4.859  0.0564  0.1043  0.0234
 3204W        W 5404   3.035   4.633  17.751 -0.0647 -0.2777 -0.1084
 3205W        W 5405  31.030   6.069   5.457 -0.0337 -0.3030 -0.0920
 3206W        W 5406  21.141   1.720   5.553 -0.2891  0.2857 -0.1901
 3207W        W 5407   1.699   7.346   1.180 -0.2192  0.1262 -0.2861
 3208W        W 5408   2.247   0.303  24.960 -0.0595  0.0252 -0.1360
 3209W        W 5409  12.848   6.562  25.641  0.0202 -0.2651  0.0969
 3210W        W 5410  19.227   4.251  21.918 -0.1111  0.1593 -0.4880
 3211W        W 5411   8.196   1.652  15.664  0.1631  0.1955  0.0915
 3212W        W 5412   1.514   1.424  19.421 -0.0007  0.1453 -0.0490
 3213W        W 5413   7.593   4.123   0.873  0.2450  0.1887  0.0670
 3214W        W 5414   2.442   2.591   9.744  0.0680  0.0789  0.1558
 3215W        W 5415   0.531   7.043  20.398  0.0258 -0.1081 -0.3322
 3216W        W 5416  20.878   5.648   9.924 -0.2929  0.2583 -0.1931
 3217W        W 5417   8.893   4.890  25.790 -0.0878 -0.0715  0.0784
 3218W        W 5418   0.510   0.836  15.738 -0.3918 -0.1491 -0.0053
 3219W        W 5419  26.315   2.837   2.678 -0.1697 -0.0776 -0.0708
 3220W        W 5420  22.083   1.490  24.829  0.2139 -0.1699 -0.2176
 3221W        W 5421  27.929   5.887   5.918 -0.0621  0.3591 -0.0389
 3222W        W 5422  24.903   2.615  24.454 -0.2329 -0.1291  0.1204
 3223W        W 5423   5.690   6.598   6.495  0.1777  0.0769 -0.0606
 3224W        W 5424  20.993   1.349   0.504 -0.3264 -0.0685  0.1227
 3225W        W 5425   9.274   3.681   8.808 -0.1589 -0.1999 -0.0297
 3226W        W 5426   3.243   1.050  18.633 -0.2910  0.0182  0.0360
 3227W        W 5427   7.901   2.805  22.743 -0.1310  0.1309  0.0538
 3228W        W 5428   3.842   1.880  23.763 -0.0007  0.0347 -0.0184
 3229W        W 5429   8.911   3.013   5.173 -0.1105 -0.4798  0.0615
 3230W        W 5430  18.152   3.591  17.430  0.1445 -0.0114  0.2597
 3231W        W 5431  16.017   7.706   2.633  0.1630 -0.1614 -0.2426
 3232W        W 5432  14.276   6.224   5.359 -0.0530  0.5178  0.1675
 3233W        W 5433  28.215   6.090  17.903 -0.0129 -0.3094 -0.1764
 3234W        W 5434  20.102   3.014  17.070 -0.1013 -0.1459  0.0505
 3235W        W 5435  22.996   7.503   7.453  0.1215  0.1365  0.0238
 3236W        W 5436   7.534   5.646   9.216  0.3644 -0.0072  0.0855
 3237W        W 5437   4.237   2.742   2.092 -0.0900  0.0776  0.3608
 3238W        W 5438   6.486   4.206   3.119 -0.1991  0.0808 -0.1834
 3239W        W 5439  20.970   2.188  24.929  0.0722  0.0126  0.1835
 3240W        W 5440  10.657   6.203   6.780  0.2421  0.0118  0.0318
 3241W        W 5441  21.368   6.765   9.614  0.2424  0.1277  0.2062
 3242W        W 5442   1.783   3.030  22.774  0.1805 -0.2878 -0.0007
 3243W        W 5443   2.182   4.803  22.186 -0.1139 -0.2104 -0.2082
 3244W        W 5444  28.824   4.946   5.727 -0.0851  0.0531 -0.0073
 3245W        W 5445   0.863   3.168   0.961 -0.2624 -0.0319 -0.0615
 3246W        W 5446  18.534   7.480  21.012  0.2242 -0.0665 -0.0260
 3247W        W 5447  13.856   3.597  15.954 -0.0240 -0.1433 -0.1744
 3248W        W 5448  19.022   6.645  23.101 -0.0135  0.1161  0.1543
 3249W        W 5449  24.107   7.616  17.070 -0.0989  0.0342 -0.0187
 3250W        W 5450  13.146   7.234   9.492  0.1390  0.0774 -0.1302
 3251W        W 5451  26.984   2.604  19.923 -0.3306 -0.2379  0.1027
 3252W        W 5452  10.651   4.943   7.875  0.0607  0.0062  0.1311
 3253W        W 5453  11.641   4.127  25.995 -0.3458  0.1605  0.0679
 3254W        W 5454  23.546   4.436   5.822 -0.1803  0.1232  0.1846
 3255W        W 5455  15.118   0.188   1.783  0.0392 -0.0201 -0.1076
 3256W        W 5456  12.450   6.976  21.942 -0.1814  0.0604 -0.0542
 3257W        W 5457   5.450   3.190   3.311  0.3508  0.1599  0.0343
 3258W        W 5458   0.795   3.782  25.562  0.0367 -0.3329  0.0212
 3259W        W 5459  22.738   3.982   5.685  0.3481  0.0331 -0.1316
 3260W        W 5460  19.241   1.459   1.048  0.1537  0.2470 -0.0024
 3261W        W 5461   0.474   3.734  22.918 -0.1823 -0.2491 -0.0344
 3262W        W 5462  22.909   0.112  21.839 -0.0638 -0.1156 -0.1295
 3263W        W 5463  27.714   3.254   2.322 -0.0560 -0.3048 -0.2297
 3264W        W 5464  19.315   7.499  15.469  0.0246 -0.3280  0.0074
 3265W        W 5465  24.217   3.737   4.772  0.2039  0.1553  0.1953
 3266W        W 5466  11.179   3.142   2.725 -0.0628 -0.3069 -0.0041
 3267W        W 5467   8.557   3.443   1.335 -0.2928  0.5412 -0.3103
 3268W        W 5468  12.527   1.349   8.788 -0.0058 -0.0703 -0.0328
 3269W        W 5469  18.254   4.744   1.394  0.1260  0.2992 -0.0902
 3270W        W 5470   3.235   5.520   4.511  0.1332  0.0168 -0.1949
 3271W        W 5471  28.879   7.851  22.667  0.1172  0.0773 -0.2801
 3272W        W 5472  18.038   1.974   7.168  0.2837  0.2002  0.1111
 3273W        W 5473   5.657   1.102   0.518  0.0815 -0.0084  0.1242
 3274W        W 5474  21.833   4.745  20.579  0.1462  0.1086 -0.0902
 3275W        W 5475  15.375   7.365  19.910 -0.0147  0.2067 -0.4164
 3276W        W 5476  12.189   3.504  20.867  0.1842  0.0165  0.1541
 3277W        W 5477  13.603   5.703  19.654 -0.1103  0.0967 -0.2383
 3278W        W 5478   9.270   6.111   7.109 -0.2234 -0.0975  0.1405
 3279W        W 5479  26.901   5.855  25.907  0.0162 -0.0210 -0.1514
 3280W        W 5480   7.924   2.868   3.481 -0.3305 -0.0027 -0.1270
 3281W        W 5481  28.782   5.130  24.352 -0.1262 -0.1227 -0.1400
 3282W        W 5482   2.449   7.304   7.362  0.1564 -0.2073 -0.0157
 3283W        W 5483   7.466   4.410   6.487  0.1582  0.0466 -0.4807
 3284W        W 5484   9.376   4.471  10.219 -0.1745 -0.0311  0.0556
 3285W        W 5485  16.246   1.313  20.904  0.3170 -0.0968 -0.3104
 3286W        W 5486   7.595   4.699  10.346 -0.2703 -0.2102 -0.1108
 3287W        W 5487  25.266   3.302   6.993 -0.0745  0.1706  0.0173
 3288W        W 5488  28.502   1.357  22.361  0.0037 -0.1629 -0.3025
 3289W        W 5489  30.881   3.795  23.631 -0.1501 -0.0546 -0.3171
 3290W        W 5490  11.227   3.544  25.016  0.3351  0.0127  0.1411
 3291W        W 5491   2.926   5.530   1.641 -0.0796  0.0200  0.0291
 3292W        W 5492  29.110   7.584   9.008  0.0841 -0.0939 -0.0193
 3293W        W 5493   2.632   3.449  16.422  0.2380 -0.0177  0.1060
 3294W        W 5494  13.713   0.967   4.702  0.3055 -0.3899  0.0413
 3295W        W 5495  27.932   3.548   9.775  0.1603  0.4987 -0.2097
 3296W        W 5496  16.534   5.379  21.570 -0.3102  0.0153  0.0027
 3297W        W 5497   5.575   7.159   3.046 -0.2139  0.0305 -0.0327
 3298W        W 5498   5.851   5.898   1.121  0.0178  0.1968  0.2394
 3299W        W 5499  15.650   7.089  10.773  0.4713  0.0832  0.2772
 3300W        W 5500  25.480   4.806  25.863 -0.0104 -0.1751  0.1510
 3301W        W 5501  25.433   0.638   6.256 -0.1063  0.2125  0.2204
 3302W        W 5502  12.521   3.774   0.341 -0.1853 -0.0156  0.0796
 3303W        W 5503   1.853   3.310   5.965 -0.1331  0.2307  0.0827
 3304W        W 5504   7.972   5.523   9.813 -0.1541 -0.0856  0.1789
 3305W        W 5505   8.649   1.882   7.351  0.2352  0.0578 -0.1484
 3306W        W 5506  22.518   6.371   6.993  0.1708 -0.1792  0.1310
 3307W        W 5507  13.859   5.329   6.427 -0.4094 -0.0012  0.0226
 3308W        W 5508  17.445   5.408  19.916  0.0417 -0.1310  0.1650
 3309W        W 5509   6.511   4.085  16.612  0.3719 -0.0857  0.1882
 3310W        W 5510  26.002   5.343   1.332 -0.0502 -0.4658  0.0121
 3311W        W 5511  16.116   7.056  16.717 -0.2561 -0.3713  0.0708
 3312W        W 5512   0.641   4.961   6.425  0.0609  0.0880  0.0879
 3313W        W 5513  10.281   6.492   6.401  0.1298 -0.2932  0.1086
 3314W        W 5514   2.377   6.065  25.454  0.0634 -0.2189  0.1504
 3315W        W 5515  26.334   6.998   0.298 -0.0788 -0.0248 -0.1274
 3316W        W 5516  22.395   6.143   5.237  0.1954 -0.1276  0.1287
 3317W        W 5517  22.288   4.645  18.676 -0.1364 -0.0627  0.0591
 3318W        W 5518   8.891   5.042  17.699 -0.0172 -0.2383 -0.1352
 3319W        W 5519   7.937   1.394  18.337 -0.0789  0.2270 -0.1296
 3320W        W 5520  26.062   4.189  19.066  0.3039  0.1546  0.0349
 3321W        W 5521   5.940   7.721   1.431 -0.1430  0.1646  0.1313
 3322W        W 5522  27.765   5.507   9.441 -0.1404 -0.0708  0.1446
 3323W        W 5523  26.750   6.022   9.365  0.2775  0.1007 -0.1161
 3324W        W 5524  27.591   7.162   2.009  0.1114 -0.0388  0.1274
 3325W        W 5525   3.182   7.652  25.126 -0.0013 -0.1759  0.2927
 3326W        W 5526   2.167   3.460  17.145 -0.3771 -0.3046  0.0352
 3327W        W 5527   1.452   3.322   5.589 -0.0795  0.4485  0.1166
 3328W        W 5528  27.858   3.007  25.237  0.3031  0.1602  0.1233
 3329W        W 5529  26.048   2.661  15.651 -0.0143 -0.0771  0.1991
 3330W        W 5530   1.199   5.122  16.919  0.0399 -0.0403  0.1858
 3331W        W 5531  20.619   4.112   6.716  0.0987  0.2781 -0.1776
 3332W        W 5532  21.444   1.231   4.687 -0.0924 -0.0027 -0.0286
 3333W        W 5533  18.685   6.024   8.702  0.0441  0.1684 -0.0872
 3334W        W 5534   3.748   7.661  20.420 -0.0971 -0.0173  0.1500
 3335W        W 5535   8.970   3.241  19.486 -0.0948  0.0435  0.1799
 3336W        W 5536  14.777   4.132   7.614 -0.1711 -0.0438 -0.2109
 3337W        W 5537   8.945   2.389  10.336 -0.2789 -0.2493  0.2335
 3338W        W 5538  18.495   5.169  20.627 -0.0543 -0.0739  0.0966
 3339W        W 5539  29.486   0.588   4.947  0.1343  0.1070  0.0735
 3340W        W 5540  29.146   2.888  23.185 -0.0985 -0.0547 -0.1729
 3341W        W 5541  22.493   6.349   5.958 -0.1527 -0.2078 -0.1599
 3342W        W 5542  16.713   2.043   1.695 -0.1324 -0.3261  0.0413
 3343W        W 5543   4.077   2.354   5.689 -0.0799  0.1172  0.0683
 3344W        W 5544   3.602   3.421   3.472  0.1789 -0.0410  0.2570
 3345W        W 5545  20.576   4.135  20.973 -0.0981 -0.0078 -0.5057
 3346W        W 5546   6.292   5.041   2.223 -0.0621  0.2586 -0.3973
 3347W        W 5547  19.972   4.193   7.852  0.0946 -0.0439 -0.2470
 3348W        W 5548  19.039   7.734  16.695 -0.1182 -0.1173 -0.0338
 3349W        W 5549  26.323   4.439  15.611 -0.3391 -0.2843  0.0404
 3350W        W 5550  13.781   6.880  10.612  0.3229 -0.0199 -0.1330
 3351W        W 5551  27.004   3.564   9.911 -0.0061 -0.1287 -0.0409
 3352W        W 5552  12.502   4.581   8.333 -0.2073  0.0477  0.0956
 3353W        W 5553   7.817   7.151  18.129  0.0579 -0.2495 -0.0490
 3354W        W 5554  15.019   6.673  18.192 -0.2830 -0.0844 -0.0279
 3355W        W 5555  10.399   0.769  14.894 -0.1552  0.1720 -0.0791
 3356W        W 5556  25.488   1.475   0.025 -0.0355 -0.0568  0.2633
 3357W        W 5557   4.301   6.982  10.677 -0.0168  0.2787 -0.1089
 3358W        W 5558   7.527   0.490   5.638  0.0434  0.0253 -0.1018
 3359W        W 5559  22.725   7.557   7.859 -0.1932  0.0495 -0.1893
 3360W        W 5560   8.130   1.541  16.929 -0.2646  0.0336  0.2177
 3361W        W 5561   7.225   4.164  16.224  0.1005  0.0577  0.0845
 3362W        W 5562   3.800   7.652  19.891 -0.1587  0.2408  0.2794
 3363W        W 5563   7.057   4.979  10.496  0.0466  0.0237 -0.2092
 3364W        W 5564   5.661   2.615   6.665  0.2233  0.0849  0.2641
 3365W        W 5565   4.297   3.331  19.866 -0.0929 -0.0933  0.0070
 3366W        W 5566  27.345   5.582   6.637  0.0719  0.2162 -0.0351
 3367W        W 5567  27.301   0.603  20.445  0.2746 -0.1127 -0.2664
 3368W        W 5568  19.350   4.543   2.970  0.0168  0.1476 -0.1742
 3369W        W 5569   8.881   6.935  22.032 -0.0743 -0.2131  0.1930
 3370W        W 5570  25.050   6.749  19.721  0.4825 -0.0169  0.0397
 3371W        W 5571   9.852   1.595  18.456 -0.0256  0.1347 -0.2782
 3372W        W 5572   4.010   0.905   8.505  0.1054 -0.1091 -0.0372
 3373W        W 5573   5.682   3.552   3.036  0.2794  0.3757  0.0843
 3374W        W 5574  25.492   5.669  24.447  0.0388  0.0719  0.3223
 3375W        W 5575   5.457   2.693  22.397 -0.3183  0.1730  0.1118
 3376W        W 5576   2.797   4.474   2.637  0.2848  0.1727 -0.0995
 3377W        W 5577  17.053   1.345  10.812  0.1980  0.1672  0.0771
 3378W        W 5578   6.671   3.225  18.877  0.0292 -0.1088 -0.1640
 3379W        W 5579   3.025   3.795   1.305  0.1886  0.1759 -0.0567
 3380W        W 5580  26.612   5.424   5.943  0.1122  0.0008 -0.1456
 3381W        W 5581  23.341   1.055   5.167  0.1229 -0.4287  0.0217
 3382W        W 5582   2.277   0.033   1.877  0.1203 -0.1959  0.1071
 3383W        W 5583  24.592   4.830  15.823  0.2088  0.2642  0.1549
 3384W        W 5584  14.643   4.748  16.163 -0.0974  0.0724 -0.0553
 3385W        W 5585  11.878   7.137   0.841  0.0568 -0.3736 -0.1566
 3386W        W 5586   1.928   3.459  25.560  0.2349 -0.0862 -0.1066
 3387W        W 5587  16.666   6.551   3.822 -0.1195 -0.2074  0.0894
 3388W        W 5588  10.846   4.214   0.713  0.2076 -0.0448  0.4318
 3389W        W 5589  28.053   3.091  11.083 -0.1705  0.2908 -0.1782
 3390W        W 5590  10.941   4.852   3.271  0.2926 -0.2720 -0.1044
 3391W        W 5591   0.466   6.341   8.105 -0.0237  0.1124  0.0763
 3392W        W 5592  25.356   2.003  16.570 -0.1028 -0.0397 -0.2016
 3393W        W 5593  10.939   6.246  21.000 -0.1483  0.0266 -0.1248
 3394W        W 5594   3.238   1.568  23.825 -0.0461  0.2266 -0.0783
 3395W        W 5595  26.126   2.290  23.816  0.3877 -0.0922 -0.4244
 3396W        W 5596   0.129   7.113  18.873  0.1414  0.0900 -0.1101
 3397W        W 5597  18.727   0.545  19.434 -0.1541  0.3868  0.1194
 3398W        W 5598  20.639   5.817  20.582  0.0430 -0.2853  0.0570
 3399W        W 5599  23.311   3.612  21.944  0.1862 -0.2264  0.0744
 3400W        W 5600   8.326   3.056  24.847 -0.1506  0.0917 -0.2054
 3401W        W 5601  25.721   7.448  22.232 -0.2333  0.1434  0.1126
 3402W        W 5602  17.640   7.096  21.776  0.0670 -0.2743  0.3836
 3403W        W 5603   2.343   6.914   1.885  0.0738  0.2177 -0.0870
 3404W        W 5604  31.247   3.617  18.899 -0.0115 -0.2772 -0.1018
 3405W        W 5605   4.874   3.964  17.372 -0.0365 -0.1066  0.1004
 3406W        W 5606  15.269   1.738  23.494  0.0191  0.2631  0.1223
 3407W        W 5607  12.954   1.407   4.331 -0.3182  0.3150 -0.0192
 3408W        W 5608   7.325   0.443  23.362 -0.2080  0.0685 -0.1259
 3409W        W 5609   4.735   5.240   4.601  0.3956  0.2138 -0.2985
 3410W        W 5610  11.743   4.686  19.989  0.4274  0.2233 -0.2065
 3411W        W 5611   8.737   3.825   7.374  0.2016 -0.1839  0.1134
 3412W        W 5612   1.729   2.371   5.910 -0.1089  0.2130  0.1685
 3413W        W 5613  13.984   2.490  22.692 -0.0371 -0.0968  0.3696
 3414W        W 5614  30.716   5.706   1.119 -0.0074  0.0618 -0.0507
 3415W        W 5615   5.129   4.467  26.007 -0.1996 -0.0121  0.0285
 3416W        W 5616  14.993   1.637   6.962 -0.0371  0.0057  0.0256
 3417W        W 5617  22.202   4.990   8.929 -0.1080  0.1906 -0.0165
 3418W        W 5618  27.319   2.896   9.196  0.2956  0.0555  0.0972
 3419W        W 5619  15.103   6.547   9.416  0.0197  0.1832  0.1709
 3420W        W 5620  13.198   1.601  16.658  0.0759 -0.0287 -0.0846
 3421W        W 5621  12.259   0.522   0.511  0.1488 -0.2271 -0.2664
 3422W        W 5622   6.921   0.017   7.829 -0.4337 -0.0877 -0.3767
 3423W        W 5623  29.537   5.083   3.190 -0.2514  0.0020 -0.3433
 3424W        W 5624  10.289   1.094  22.524  0.0739  0.2886 -0.0573
 3425W        W 5625  12.361   7.463  18.525  0.1432 -0.1176 -0.3643
 3426W        W 5626   3.142   1.920   7.405 -0.4738  0.0324 -0.0872
 3427W        W 5627   1.737   6.146  19.549 -0.2907 -0.0702  0.3205
 3428W        W 5628  24.477   4.691  25.516  0.2899  0.0389 -0.0152
 3429W        W 5629   9.790   1.644   7.306  0.0478 -0.0879  0.0633
 3430W        W 5630  27.623   2.906  21.163  0.0696  0.3127 -0.4035
 3431W        W 5631  21.192   2.347   7.282  0.2517 -0.0620  0.2072
 3432W        W 5632  18.060   7.060   2.397 -0.0871 -0.1227 -0.2950
 3433W        W 5633   1.129   0.362  14.482 -0.1196 -0.1937  0.2291
 3434W        W 5634  13.103   4.520   3.507  0.3258  0.1784  0.2090
 3435W        W 5635  22.024   7.547  23.724 -0.0633 -0.0503 -0.3096
 3436W        W 5636  16.298   5.893   1.704  0.1331 -0.1091  0.1252
 3437W        W 5637  26.696   7.689  20.784  0.0371  0.0738  0.0438
 3438W        W 5638   6.323   6.634   9.568  0.0559  0.3054  0.1461
 3439W        W 5639   3.256   5.109   7.902  0.3452  0.1035 -0.1724
 3440W        W 5640   0.579   2.432  14.482 -0.1060  0.1319 -0.1357
 3441W        W 5641  12.017   5.445   8.228  0.0795  0.1195  0.1154
 3442W        W 5642  13.172   3.826  16.642 -0.0337  0.1730  0.0015
 3443W        W 5643  21.266   1.534  19.491 -0.0993  0.0861 -0.1929
 3444W        W 5644  12.872   6.160  21.852 -0.3243 -0.0544 -0.0728
 3445W        W 5645   0.108   5.204  22.791  0.1839 -0.0189  0.4888
 3446W        W 5646  25.460   6.576  10.159  0.0597 -0.0358 -0.0543
 3447W        W 5647   9.952   3.098   2.978  0.4821 -0.2435  0.1422
 3448W        W 5648  11.287   4.678  16.383  0.1511  0.0842  0.1329
 3449W        W 5649   8.437   5.754  10.140  0.0567  0.1540  0.0528
 3450W        W 5650   2.815   5.901  25.296  0.0899  0.2212  0.0174
 3451W        W 5651   6.163   6.969   6.672  0.0045 -0.1095 -0.1498
 3452W        W 5652  25.875   5.695  17.943  0.0225  0.3431  0.0096
 3453W        W 5653   6.029   4.819  22.787 -0.0002  0.2297 -0.0112
 3454W        W 5654  11.984   4.568  17.837 -0.2224  0.3032  0.1510
 3455W        W 5655  25.818   6.453  22.293  0.1024 -0.0870 -0.0096
 3456W        W 5656  22.185   3.447  23.974  0.4785  0.1700 -0.0903
 3457W        W 5657   5.445   5.574  19.309  0.2946  0.3831  0.1404
 3458W        W 5658  23.939   4.327   5.464  0.0481  0.0804  0.0391
 3459W        W 5659  20.069   3.169   8.200 -0.3485  0.1495  0.1678
 3460W        W 5660  16.805   3.793   7.981  0.2794  0.2084  0.0409
 3461W        W 5661  12.200   2.077   9.526  0.1006 -0.2812 -0.4562
 3462W        W 5662  28.959   0.408  21.760 -0.0357  0.0048 -0.1152
 3463W        W 5663   9.177   6.088  10.581  0.1964 -0.1164  0.1098
 3464W        W 5664  28.832   6.374  19.048 -0.0650  0.1677  0.0165
 3465W        W 5665  27.423   6.372  23.893 -0.3896  0.0474  0.0474
 3466W        W 5666  14.970   7.291  20.329 -0.1803 -0.2125  0.0286
 3467W        W 5667   7.139   7.840  22.850  0.0640 -0.1212 -0.3288
 3468W        W 5668  21.122   4.222   6.127 -0.1277  0.0246  0.0685
 3469W        W 5669  14.026   0.482  18.521 -0.0847 -0.1476 -0.0319
 3470W        W 5670  24.047   3.394   0.538  0.0190  0.1992  0.0487
 3471W        W 5671  26.363   3.276  19.667 -0.2462 -0.1227  0.0698
 3472W        W 5672  11.915   4.957   7.805 -0.0543 -0.2760 -0.0433
 3473W        W 5673  30.529   2.270   9.958  0.3029 -0.2796  0.0654
 3474W        W 5674  12.290   5.340  22.746  0.0914 -0.0559  0.2688
 3475W        W 5675  11.144   1.946  17.848 -0.0786  0.2015 -0.0256
 3476W        W 5676   0.119   4.584   3.377 -0.0799  0.3575 -0.0181
 3477W        W 5677  22.162   6.000   0.994  0.0162 -0.0350 -0.2073
 3478W        W 5678   6.691   2.865  25.445  0.0652 -0.1317  0.1307
 3479W        W 5679   7.715   6.924   1.846 -0.1792  0.1339 -0.1939
 3480W        W 5680  18.471   5.080   8.643  0.0704  0.0769  0.2051
 3481W        W 5681  29.791   5.423  16.819 -0.0397 -0.4863  0.2987
 3482W        W 5682  25.297   1.923   7.547 -0.1779 -0.3298 -0.0227
 3483W        W 5683  15.851   2.678  10.785  0.1443  0.0344  0.0318
 3484W        W 5684  30.465   5.888  25.113 -0.1787  0.2568 -0.0262
 3485W        W 5685   9.157   1.506   7.347 -0.0180 -0.0947  0.2560
 3486W        W 5686  18.164   6.294   8.597 -0.1476 -0.0549  0.1336
 3487W        W 5687  15.814   3.161   1.431 -0.1876 -0.0860 -0.2204
 3488W        W 5688   4.030   2.751   5.269  0.1905  0.2935 -0.0575
 3489W        W 5689  23.122   7.419  25.726 -0.2043  0.2212  0.0426
 3490W        W 5690  12.247   6.736  21.541  0.0347 -0.1729 -0.3088
 3491W        W 5691  22.909   2.006  15.250 -0.1131 -0.1030  0.0567
 3492W        W 5692   7.597   2.312   4.271  0.0756 -0.0258  0.2528
 3493W        W 5693   2.010   0.253   3.298  0.1964  0.4496 -0.0530
 3494W        W 5694  16.288   6.591  16.606 -0.1101  0.4417  0.0142
 3495W        W 5695  12.202   1.156   0.327  0.1253  0.1530  0.0542
 3496W        W 5696  19.574   2.596   0.056 -0.3308  0.2132 -0.3071
 3497W        W 5697  18.725   4.062   6.908 -0.0205 -0.2806  0.1506
 3498W        W 5698   2.591   1.649  25.072  0.3487 -0.2575 -0.0210
 3499W        W 5699  15.244   6.315  22.243  0.0613  0.0366 -0.2322
 3500W        W 5700  17.943   0.118   3.436 -0.0100 -0.0782 -0.0980
 3501W        W 5701   2.530   5.940   8.647 -0.2281  0.0555  0.0709
 3502W        W 5702  13.457   4.954  17.172  0.0127 -0.0872  0.0677
 3503W        W 5703  27.574   0.620   0.559 -0.1726 -0.0295 -0.1589
 3504W        W 5704  25.695   0.612   3.515 -0.0555 -0.1467  0.1075
 3505W        W 5705  26.688   2.094   8.293 -0.1059 -0.2549  0.3304
 3506W        W 5706  27.886   5.397   1.772  0.2906 -0.0238 -0.2652
 3507W        W 5707  12.661   5.286   3.586  0.2983  0.3373  0.0569
 3508W        W 5708  21.283   0.311   8.832 -0.0145 -0.0299  0.0474
 3509W        W 5709  29.005   0.358  15.728 -0.0125 -0.0555 -0.0688
 3510W        W 5710  17.850   2.053  26.062 -0.2486 -0.2876 -0.2808
 3511W        W 5711  24.450   7.128   5.180 -0.0726  0.1919  0.2071
 3512W        W 5712   3.688   2.732  20.401  0.0557 -0.2178 -0.1256
 3513W        W 5713  19.356   0.660  16.356 -0.2550 -0.2327 -0.1514
 3514W        W 5714   4.060   2.190  19.148 -0.0674  0.0968 -0.1966
 3515W        W 5715  21.404   4.895   7.755  0.1080 -0.0641  0.0562
 3516W        W 5716  31.361   3.807  19.817 -0.1458  0.0588  0.2792
 3517W        W 5717  13.243   6.348   7.089  0.0567  0.2007  0.2363
 3518W        W 5718  14.891   7.177  23.967 -0.1585  0.1807 -0.1340
 3519W        W 5719   8.859   6.269  23.368 -0.1655 -0.0269 -0.0447
 3520W        W 5720  19.824   5.529  22.216  0.4788  0.1814 -0.4133
 3521W        W 5721  21.426   6.159  21.582  0.1436  0.1723 -0.2152
 3522W        W 5722  26.668   1.748  20.009 -0.0681 -0.1078 -0.0589
 3523W        W 5723  30.985   2.680  16.937  0.1497  0.0995 -0.0952
 3524W        W 5724   8.690   2.556  21.038  0.3263 -0.0103  0.0275
 3525W        W 5725  17.765   0.656  17.751  0.1546  0.1020  0.1046
 3526W        W 5726   0.213   1.767   7.280 -0.6525  0.0312  0.0730
 3527W        W 5727  12.633   3.904   5.288  0.1220  0.0735 -0.0199
 3528W        W 5728   5.479   6.161  14.727 -0.2468 -0.0710  0.0134
 3529W        W 5729   8.561   3.971  21.454 -0.0396  0.0366 -0.0981
 3530W        W 5730   9.722   5.565  17.906  0.0306 -0.1157 -0.1408
 3531W        W 5731  14.100   2.068  16.189  0.4788 -0.2160 -0.0412
 3532W        W 5732  26.382   3.611   0.744 -0.4447  0.0239  0.0732
 3533W        W 5733  19.536   3.474  17.966  0.1632  0.1009  0.2034
 3534W        W 5734  30.418   1.689   1.538 -0.1709  0.1599  0.0865
 3535W        W 5735   5.915   1.990   3.594  0.0242 -0.0415 -0.2752
 3536W        W 5736  18.246   4.448  25.905 -0.1653 -0.0137  0.0706
 3537W        W 5737   5.484   4.125  25.803  0.2222 -0.0407 -0.2933
 3538W        W 5738   6.137   1.562  17.586 -0.0439  0.1474  0.1251
 3539W        W 5739   4.223   1.544  18.062 -0.0190  0.1681 -0.1724
 3540W        W 5740  12.742   5.829   8.135  0.0049  0.1221  0.1262
 3541W        W 5741   1.078   5.058  19.800  0.0648 -0.1808  0.1067
 3542W        W 5742  24.649   7.676   5.978  0.1212 -0.3921 -0.0833
 3543W        W 5743   6.556   3.863  18.807  0.3041  0.1744  0.0995
 3544W        W 5744   5.810   1.497   6.606 -0.0423 -0.0144 -0.2715
 3545W        W 5745  13.792   4.237  16.943  0.1589  0.1622 -0.1821
 3546W        W 5746  30.418   3.766  10.598  0.0076 -0.0473  0.1277
 3547W        W 5747  26.654   5.726   8.622  0.1562 -0.0403 -0.2524
 3548W        W 5748   2.966   5.940   8.415 -0.0470  0.0738  0.1796
 3549W        W 5749  16.477   7.521  19.665 -0.0291  0.1711  0.0396
 3550W        W 5750  24.644   0.879  22.922 -0.3018  0.2205 -0.0683
 3551W        W 5751   6.272   3.465   6.376  0.0564  0.3374  0.1180
 3552W        W 5752   3.628   0.017   0.727 -0.1210 -0.0278  0.2783
 3553W        W 5753  29.229   6.610  17.801 -0.0840  0.1181  0.2530
 3554W        W 5754  24.353   5.068  11.445  0.0201 -0.1554 -0.3327
 3555W        W 5755  29.792   2.509  17.082 -0.1835 -0.2375  0.0595
 3556W        W 5756  18.856   2.857  17.526  0.1787  0.1198 -0.0154
 3557W        W 5757  25.333   4.645  22.245  0.1481  0.1966  0.1437
 3558W        W 5758   7.073   2.214  25.576  0.1843 -0.0251  0.2082
 3559W        W 5759   8.170   5.901  15.923  0.0971  0.0773  0.2081
 3560W        W 5760  19.973   7.199   4.427 -0.0704 -0.0435 -0.0981
 3561W        W 5761  16.103   3.321   0.445 -0.3002  0.1414  0.0068
 3562W        W 5762   3.688   4.188   6.072 -0.2754  0.0738 -0.4444
 3563W        W 5763  13.118   1.517  22.230  0.1853 -0.2289  0.0553
 3564W        W 5764  20.521   0.196   6.396 -0.1196 -0.2333 -0.1009
 3565W        W 5765  10.517   5.994   2.801  0.0678 -0.1673 -0.1641
 3566W        W 5766   3.250   5.321  22.530 -0.1870  0.0943  0.0378
 3567W        W 5767  21.691   0.621   8.889 -0.2381  0.2880  0.1119
 3568W        W 5768  18.906   5.282   4.456  0.3627  0.0488 -0.2213
 3569W        W 5769  18.606   0.053  19.627  0.0205 -0.1650 -0.2797
 3570W        W 5770  12.328   7.022  20.085  0.3401 -0.0598  0.1013
 3571W        W 5771  26.625   5.300  25.693  0.2189  0.0963  0.2877
 3572W        W 5772  21.545   1.052  25.409  0.0219  0.2029 -0.2524
 3573W        W 5773  10.695   1.867   7.095  0.0823 -0.1323 -0.2957
 3574W        W 5774   3.548   5.620  21.096 -0.0759  0.2814  0.0661
 3575W        W 5775   2.551   4.122  10.100 -0.2322 -0.2831 -0.2848
 3576W        W 5776   3.844   4.315  25.364  0.0865 -0.0961  0.1331
 3577W        W 5777  25.409   7.438  24.090  0.0448 -0.0176 -0.0655
 3578W        W 5778  19.691   3.173  17.546 -0.0995 -0.3747 -0.1675
 3579W        W 5779  24.102   2.435   0.639 -0.2379  0.1900  0.1295
 3580W        W 5780  29.573   4.586   2.782 -0.2101 -0.1531 -0.1304
 3581W        W 5781  28.233   5.977  21.831  0.2164  0.1629  0.1070
 3582W        W 5782  20.327   1.690   3.808 -0.0925  0.0606 -0.1097
 3583W        W 5783  19.042   6.564   9.323 -0.1499  0.1066  0.0306
 3584W        W 5784  15.151   2.360   8.209 -0.0587 -0.0273  0.0406
 3585W        W 5785  28.576   2.018   2.889  0.1528 -0.1773 -0.0160
 3586W        W 5786   0.548   7.198   2.864  0.0325  0.0397 -0.1106
 3587W        W 5787  11.503   1.379   3.126 -0.2260  0.0864 -0.0475
 3588W        W 5788  14.207   5.049  18.524  0.0976  0.0791  0.1508
 3589W        W 5789  29.644   0.629   9.241  0.0234  0.0535 -0.0187
 3590W        W 5790   0.610   1.504   5.098  0.4387 -0.0160  0.0808
 3591W        W 5791   1.357   0.674   9.036 -0.0387 -0.0493 -0.0276
 3592W        W 5792  20.193   3.997  16.851 -0.1352 -0.0588 -0.0377
 3593W        W 5793   9.565   3.363  15.822 -0.1063  0.0272 -0.2750
 3594W        W 5794  17.772   1.026   5.744 -0.0742  0.2832  0.0231
 3595W        W 5795  22.324   5.452  11.221  0.2102 -0.1181  0.0520
 3596W        W 5796   6.205   3.211  16.966  0.0325  0.0674  0.0170
 3597W        W 5797  26.145   3.109  11.248 -0.0235  0.2341  0.1236
 3598W        W 5798  29.752   6.838   2.361  0.0512  0.0101  0.0919
 3599W        W 5799   9.911   1.860  22.958  0.1767 -0.1074 -0.1913
 3600W        W 5800  26.554   0.765  20.699  0.1078  0.3336 -0.0914
 3601W        W 5801  18.496   3.575   2.860  0.1286  0.0550  0.1136
 3602W        W 5802  22.598   2.211  23.990 -0.2543  0.1799 -0.2125
 3603W        W 5803   9.215   3.455  20.854  0.0743 -0.0731  0.2487
 3604W        W 5804  18.046   1.249  18.671  0.0069 -0.0054  0.1007
 3605W        W 5805  24.078   5.870  11.117 -0.1065 -0.1668 -0.2477
 3606W        W 5806  19.667   3.766  20.174 -0.0238 -0.0516  0.1141
 3607W        W 5807   5.890   6.832  17.841  0.0001 -0.1772  0.1852
 3608W        W 5808  19.460   1.341   5.463  0.2705 -0.1692  0.0102
 3609W        W 5809  12.728   6.442   9.853 -0.2946 -0.0200  0.1635
 3610W        W 5810  12.678   2.848   3.804  0.1688  0.0678 -0.0117
 3611W        W 5811   9.571   0.232   3.074 -0.1981  0.0703 -0.1982
 3612W        W 5812   5.977   0.425  14.302 -0.0215 -0.3728 -0.2017
 3613W        W 5813   6.483   5.834  15.272  0.1716  0.1853 -0.2396
 3614W        W 5814   3.131   6.916  25.109  0.1898 -0.2619  0.0441
 3615W        W 5815   2.422   6.498   3.430 -0.5798 -0.2758  0.1237
 3616W        W 5816  20.609   1.002   3.547 -0.2822  0.5317 -0.1149
 3617W        W 5817  27.001   1.996  16.453  0.1119 -0.1349 -0.0346
 3618W        W 5818   1.686   0.891   8.149  0.0346  0.0283 -0.2985
 3619W        W 5819   1.695   0.332  17.884 -0.0580 -0.0645 -0.0525
 3620W        W 5820  15.954   2.398  24.765 -0.3292  0.1096 -0.3466
 3621W        W 5821  15.824   7.229  17.108 -0.1788 -0.1059  0.1099
 3622W        W 5822   2.866   4.200   7.958 -0.0461 -0.1045 -0.1630
 3623W        W 5823  25.799   1.168   7.970  0.1991  0.1861 -0.1530
 3624W        W 5824  11.984   0.491   1.361 -0.0091 -0.0539  0.1732
 3625W        W 5825  30.531   0.514   1.989  0.0933  0.0847 -0.0959
 3626W        W 5826  15.526   5.059  23.781  0.0089 -0.1997 -0.0898
 3627W        W 5827  29.367   3.394  17.320 -0.0927 -0.3789  0.2110
 3628W        W 5828  27.019   1.009  20.635 -0.0894  0.0342 -0.0295
 3629W        W 5829   0.127   2.504   5.006 -0.2978  0.1754  0.1805
 3630W        W 5830   2.511   6.550  25.582  0.0736  0.1144 -0.3125
 3631W        W 5831  26.705   1.861  22.379 -0.0428 -0.1245 -0.2141
 3632W        W 5832   4.989   4.229  15.043  0.0221 -0.0092 -0.1052
 3633W        W 5833  27.806   7.533   9.466  0.4490 -0.2646  0.1020
 3634W        W 5834  12.279   1.674  20.242 -0.0239 -0.0232 -0.2452
 3635W        W 5835  17.331   5.822  18.917  0.0998  0.0540  0.2158
 3636W        W 5836   8.231   3.366  19.977 -0.0659  0.1456  0.0724
 3637W        W 5837   0.617   1.390  22.193  0.1473  0.1162  0.0220
 3638W        W 5838   4.417   3.793  20.099 -0.1704 -0.0036 -0.0131
 3639W        W 5839   1.521   6.099  22.172 -0.0614 -0.1582  0.1196
 3640W        W 5840  13.907   3.078   6.508  0.1380 -0.1034 -0.0110
 3641W        W 5841   9.718   3.346  19.378 -0.1008  0.0656 -0.1009
 3642W        W 5842  15.975   7.069  22.379  0.1476 -0.1317  0.0858
 3643W        W 5843  18.061   4.040   5.864  0.1716  0.2472  0.0962
 3644W        W 5844   9.188   0.901   4.899  0.1473 -0.1139 -0.1059
 3645W        W 5845  11.842   4.766  19.475 -0.1394 -0.0912 -0.1673
 3646W        W 5846  26.180   0.592  25.105  0.3426 -0.0920 -0.5101
 3647W        W 5847   6.574   6.311   7.645 -0.0596  0.0051 -0.0031
 3648W        W 5848  30.417   2.082   0.229  0.0955  0.2226 -0.0009
 3649W        W 5849   1.051   1.275  21.481 -0.0279 -0.0850  0.2694
 3650W        W 5850  28.994   4.525  20.685 -0.1129  0.1138  0.0450
 3651W        W 5851  22.434   0.614  18.626 -0.0712  0.3326  0.2193
 3652W        W 5852  11.741   7.055   5.347 -0.1853 -0.4900  0.0326
 3653W        W 5853  22.635   5.614   4.395 -0.1742 -0.2044 -0.2058
 3654W        W 5854  29.288   6.691  18.384  0.0305 -0.0058  0.0778
 3655W        W 5855   7.877   6.658  15.529 -0.1607 -0.2430  0.0012
 3656W        W 5856  10.528   0.047  25.634  0.0426 -0.2452  0.0655
 3657W        W 5857   7.572   0.469  22.929  0.2344 -0.0234  0.1787
 3658W        W 5858  17.093   5.686   8.914  0.1449 -0.2742  0.1299
 3659W        W 5859  16.974   3.551   4.404  0.0296  0.0389 -0.0789
 3660W        W 5860  23.853   4.870   1.911  0.0453  0.0121  0.1328
 3661W        W 5861   7.347   7.757  24.049 -0.2966  0.0750  0.0180
 3662W        W 5862  27.723   4.063  17.189  0.1012 -0.0631  0.0714
 3663W        W 5863   2.897   3.084  16.714  0.2367  0.0897 -0.1225
 3664W        W 5864  22.462   4.704  16.124 -0.2188  0.1664 -0.0817
 3665W        W 5865  28.245   3.327   8.988  0.1462 -0.1867  0.0550
 3666W        W 5866  25.119   2.268  15.690 -0.3427 -0.0202  0.0263
 3667W        W 5867  21.262   0.381  16.042  0.0370  0.0644  0.2092
 3668W        W 5868  18.466   0.362  21.719  0.0938 -0.1991  0.2510
 3669W        W 5869  29.362   3.022  21.999 -0.3669  0.0063  0.2690
 3670W        W 5870  19.799   3.392   6.356  0.0724 -0.1681  0.0717
 3671W        W 5871   2.911   7.567  25.601 -0.0717 -0.0065  0.1802
 3672W        W 5872   1.588   4.905  19.837  0.0904 -0.0235 -0.0833
 3673W        W 5873  15.142   1.721  19.169  0.1666  0.1811  0.0881
 3674W        W 5874  29.309   3.109   0.268 -0.0520  0.1107 -0.0961
 3675W        W 5875  21.620   6.132  21.068 -0.1276  0.0054 -0.0429
 3676W        W 5876  21.218   3.836   0.363 -0.2624 -0.0083 -0.2419
 3677W        W 5877  18.904   0.873  10.059  0.1218 -0.0516  0.0104
 3678W        W 5878  29.151   4.791  22.490 -0.1693  0.0760 -0.2361
 3679W        W 5879  29.976   7.111  17.781  0.1877 -0.0697 -0.3582
 3680W        W 5880  14.982   0.629   1.507  0.2057  0.1956 -0.1821
 3681W        W 5881  24.921   6.520   7.659  0.1318 -0.0506 -0.0228
 3682W        W 5882  22.077   3.160  19.802 -0.2414  0.0981  0.0964
 3683W        W 5883   7.408   4.766  21.784  0.0763 -0.1594  0.0901
 3684W        W 5884  16.278   7.588   4.987 -0.0512  0.0139 -0.0948
 3685W        W 5885  17.547   0.504  18.172  0.1063  0.0213  0.0307
 3686W        W 5886  22.780   2.418  21.831  0.2889 -0.2325 -0.3338
 3687W        W 5887  28.128   6.490   6.985 -0.3222  0.1273 -0.0727
 3688W        W 5888  17.109   3.763   8.508  0.1160  0.0128 -0.2910
 3689W        W 5889   7.283   0.345  21.486 -0.0758  0.1008  0.1797
 3690W        W 5890  18.119   7.513  10.779 -0.2135 -0.1928  0.2889
 3691W        W 5891  11.637   6.671   0.912  0.2195 -0.0445 -0.0504
 3692W        W 5892  16.751   4.016   9.952 -0.3274  0.1012  0.1266
 3693W        W 5893  20.073   7.400  16.122  0.1653  0.0588 -0.1692
 3694W        W 5894   0.457   3.606   5.756 -0.1495 -0.0797  0.1149
 3695W        W 5895  25.534   1.477  18.200 -0.2010  0.3466 -0.1137
 3696W        W 5896  21.880   5.621   4.699  0.0648  0.2672  0.0686
 3697W        W 5897   3.999   4.701  20.208  0.0099  0.2168  0.0866
 3698W        W 5898  16.766   7.445  23.108  0.2401  0.1551  0.3721
 3699W        W 5899  19.481   5.733   5.250 -0.1513 -0.0003  0.2292
 3700W        W 5900  10.571   5.714  15.108 -0.0804  0.2221 -0.1910
 3701W        W 5901  14.960   3.336  16.083  0.2091  0.0688 -0.0174
 3702W        W 5902  11.969   1.535   3.205  0.0517 -0.2344 -0.0630
 3703W        W 5903  19.473   3.066  21.236  0.0981  0.2105  0.1099
 3704W        W 5904  14.249   6.225  18.080  0.0723 -0.1330  0.2464
 3705W        W 5905   7.550   0.941   0.345 -0.1506 -0.1167 -0.0918
 3706W        W 5906  26.943   0.171   8.382  0.2232  0.1748 -0.2291
 3707W        W 5907   5.863   4.809   0.501  0.1358 -0.2564 -0.0407
 3708W        W 5908  10.864   7.481   1.859 -0.0808  0.1408  0.0280
 3709W        W 5909   4.048   5.862   6.488 -0.4509 -0.1977 -0.1372
 3710W        W 5910   0.493   5.981   9.488 -0.1739 -0.3877  0.0511
 3711W        W 5911   7.192   5.655   8.503 -0.0005 -0.0299  0.1012
 3712W        W 5912  28.657   7.241   4.556 -0.2352 -0.2531  0.1127
 3713W        W 5913   6.623   0.360  24.414  0.0181  0.1618 -0.2262
 3714W        W 5914  25.611   0.851   4.549 -0.1778  0.0928  0.2222
 3715W        W 5915  22.960   6.232  18.744 -0.1862 -0.0818  0.2191
 3716W        W 5916  28.752   0.063   5.922 -0.2255 -0.1790  0.0208
 3717W        W 5917   5.046   4.529   6.298 -0.0989  0.0222 -0.2624
 3718W        W 5918  18.003   2.096   5.743  0.0695 -0.3352  0.1301
 3719W        W 5919   4.286   0.367  22.525 -0.2955 -0.1868  0.0574
 3720W        W 5920  21.311   0.080  16.921 -0.2734 -0.2392  0.3692
 3721W        W 5921  13.174   5.162   8.493  0.3668 -0.0239 -0.0767
 3722W        W 5922  26.041   7.133   6.145  0.2573 -0.1633 -0.0780
 3723W        W 5923   7.859   2.997  15.372 -0.1718 -0.1376  0.1918
 3724W        W 5924  17.842   0.097   9.222  0.2658 -0.1982 -0.3348
 3725W        W 5925   8.342   2.838   7.387 -0.0816 -0.1618 -0.2415
 3726W        W 5926  22.129   3.415   8.104 -0.0352 -0.0626 -0.0579
 3727W        W 5927   3.158   2.216  18.183 -0.0461  0.0610  0.0720
 3728W        W 5928  14.958   5.042  22.992  0.0655  0.1568 -0.1149
 3729W        W 5929   4.587   3.980   7.392  0.0481 -0.0686  0.0045
 3730W        W 5930  22.295   2.481  19.788 -0.0848  0.0982 -0.2776
 3731W        W 5931  13.918   1.592   0.311 -0.2785 -0.0396 -0.1079
 3732W        W 5932  23.166   4.076  25.373 -0.1646  0.1470 -0.1340
 3733W        W 5933  27.658   3.840   3.045  0.0138 -0.1421 -0.0084
 3734W        W 5934   0.175   6.049  18.323  0.2589  0.0466 -0.0868
 3735W        W 5935  12.701   7.085   6.733 -0.2152 -0.0920  0.1710
 3736W        W 5936  20.376   4.343  16.097  0.2093 -0.1642  0.0458
 3737W        W 5937  30.399   3.460  20.911 -0.0747 -0.1968  0.1853
 3738W        W 5938  11.364   5.632  22.522 -0.0640  0.0248 -0.0817
 3739W        W 5939  24.234   0.727  19.363 -0.0783  0.0997  0.0531
 3740W        W 5940  11.150   6.132  21.478  0.0382 -0.2653 -0.0161
 3741W        W 5941  25.847   4.012   9.563 -0.1922 -0.3336  0.1606
 3742W        W 5942  12.714   4.406  25.781  0.2013  0.1468 -0.0729
 3743W        W 5943   5.813   7.553  23.182 -0.0607 -0.3412 -0.1560
 3744W        W 5944  28.677   3.882  18.998  0.1917 -0.0647 -0.3513
 3745W        W 5945  28.218   5.363   0.502  0.0976 -0.1105  0.1189
 3746W        W 5946  21.769   5.292  21.289 -0.1268 -0.2025  0.5214
 3747W        W 5947  20.986   4.531   9.616 -0.4822  0.1084  0.0387
 3748W        W 5948   3.766   0.301  25.477  0.0188  0.6628 -0.1133
 3749W        W 5949  21.203   1.943  16.595  0.2895  0.0890 -0.2874
 3750W        W 5950  12.635   3.664   3.020 -0.1279  0.0131  0.0376
 3751W        W 5951  23.292   5.832   8.493 -0.2430  0.1336 -0.0102
 3752W        W 5952  17.459   0.409  15.451  0.0323  0.3821 -0.0788
 3753W        W 5953   5.827   2.339  22.653  0.1339  0.2014  0.0948
 3754W        W 5954  23.386   3.346   2.831  0.0193  0.0502 -0.2185
 3755W        W 5955  25.053   2.088  24.691  0.1733 -0.0604  0.0792
 3756W        W 5956   0.177   6.727   9.200 -0.1208  0.1663 -0.1426
 3757W        W 5957  14.297   5.573   6.624 -0.0986 -0.1084  0.0055
 3758W        W 5958  25.813   3.424   0.047 -0.0546 -0.0607 -0.1440
 3759W        W 5959  25.032   0.743   1.866 -0.1826 -0.2332  0.1335
 3760W        W 5960  28.551   7.172  20.038  0.0200  0.1444 -0.1426
 3761W        W 5961  17.220   3.025   4.625  0.0309 -0.1141 -0.1864
 3762W        W 5962  26.052   1.921  25.847  0.1071 -0.3667  0.1866
 3763W        W 5963  12.196   7.521  20.144  0.1148 -0.2762 -0.0375
 3764W        W 5964  12.908   0.776  18.792 -0.3182  0.0688 -0.0385
 3765W        W 5965  11.614   6.842  25.971 -0.3388  0.0458  0.1585
 3766W        W 5966   1.836   5.407  19.668  0.0603 -0.2787 -0.0135
 3767W        W 5967  15.151   6.786   3.198  0.0010  0.1984  0.0726
 3768W        W 5968  26.192   4.632  23.320 -0.2531 -0.0442 -0.2521
 3769W        W 5969  29.854   7.844  18.471  0.0520 -0.1526  0.3478
 3770W        W 5970  20.052   0.818  19.817  0.1188  0.0340  0.1904
 3771W        W 5971  22.568   4.255  10.690  0.0645 -0.2467 -0.0304
 3772W        W 5972   6.992   1.249  21.517  0.0837  0.0359 -0.0548
 3773W        W 5973   9.217   7.404  15.498  0.0243 -0.3483 -0.0688
 3774W        W 5974  15.683   0.778  24.185  0.1799 -0.1416  0.2629
 3775W        W 5975  18.198   4.098  20.517  0.5088 -0.0650  0.0923
 3776W        W 5976   7.236   1.250   7.029  0.0164 -0.0158  0.1681
 3777W        W 5977  21.636   3.039  24.577 -0.0659 -0.0229 -0.0485
 3778W        W 5978   4.567   6.616   1.504  0.3695  0.0302  0.0194
 3779W        W 5979  21.224   1.707   6.097 -0.0815 -0.1197 -0.0870
 3780W        W 5980  25.671   6.452  23.438 -0.2395  0.1347  0.2450
 3781W        W 5981   7.603   3.751   1.259 -0.0457  0.0114 -0.0746
 3782W        W 5982  17.704   2.121   6.552  0.1931 -0.0901  0.1133
 3783W        W 5983   6.489   4.401  22.073 -0.1160  0.3210  0.0751
 3784W        W 5984   3.645   0.626  15.459  0.2062 -0.0943  0.0091
 3785W        W 5985  21.459   5.096  15.769  0.1151  0.0517 -0.3579
 3786W        W 5986   7.620   0.483  21.891 -0.2973  0.0287 -0.1065
 3787W        W 5987   3.955   6.168   7.526 -0.0332 -0.0586  0.0656
 3788W        W 5988  20.638   2.908   9.742 -0.0585 -0.1488  0.0296
 3789W        W 5989  29.749   6.255  25.627  0.0080  0.1357 -0.0278
 3790W        W 5990  15.291   6.578   5.840  0.0889 -0.0535 -0.0314
 3791W        W 5991  30.332   7.442  15.863  0.0085 -0.0451 -0.0479
 3792W        W 5992  11.733   0.814   6.735 -0.0620  0.0883  0.1485
 3793W        W 5993  25.003   0.736   8.098  0.0567 -0.0610 -0.1368
 3794W        W 5994  29.480   0.041  25.065  0.0974  0.1060  0.3187
 3795W        W 5995  15.129   4.192  18.631 -0.1810 -0.0947  0.0119
 3796W        W 5996  22.714   6.020  16.832 -0.0346 -0.3712 -0.0296
 3797W        W 5997  11.804   7.186   1.658  0.0962  0.1100 -0.2129
 3798W        W 5998  22.772   2.242   1.441 -0.1313 -0.1461 -0.0654
 3799W        W 5999  30.972   6.232  10.655 -0.2115 -0.0833 -0.2588
 3800W        W 6000  22.410   1.126   0.408  0.2292 -0.1739 -0.3749
 3801W        W 6001  10.208   4.526   2.643  0.3330  0.0337 -0.1500
 3802W        W 6002  17.785   2.194  21.765 -0.1980  0.2713 -0.0626
 3803W        W 6003   9.697   7.679  17.801  0.0936 -0.0243 -0.0550
 3804W        W 6004  24.310   1.834  18.327  0.0956  0.1123 -0.0920
 3805W        W 6005   7.595   7.049   3.217  0.1674 -0.0081  0.0230
 3806W        W 6006   8.764   7.766  23.969  0.0555 -0.3321  0.1387
 3807W        W 6007   5.087   3.656  24.362  0.0404  0.1045 -0.0064
 3808W        W 6008  13.703   2.062  20.556  0.0378  0.1755 -0.1208
 3809W        W 6009  14.803   2.331   9.145 -0.0500  0.3597 -0.3126
 3810W        W 6010   5.338   1.083   9.867  0.0106 -0.1839  0.0960
 3811W        W 6011  31.103   5.210  18.723 -0.0671 -0.1031 -0.0750
 3812W        W 6012  29.870   3.625   5.995  0.0326 -0.2163  0.0114
 3813W        W 6013  19.447   6.727   7.947 -0.0163 -0.0894  0.0326
 3814W        W 6014   0.997   1.381  20.948 -0.0652 -0.0726  0.0547
 3815W        W 6015   6.810   5.885   1.329 -0.1166 -0.1251 -0.0523
 3816W        W 6016  22.800   4.600  18.607 -0.1685  0.0460 -0.1023
 3817W        W 6017  26.286   4.510   4.508 -0.1881 -0.0466 -0.0864
 3818W        W 6018  13.002   5.508  23.622  0.0452 -0.0013 -0.0147
 3819W        W 6019  16.530   5.228   2.285  0.0396  0.3225 -0.0354
 3820W        W 6020  13.283   1.865  24.343  0.2968 -0.0419 -0.1479
 3821W        W 6021   1.105   3.087   9.381 -0.4735  0.2103 -0.0769
 3822W        W 6022  25.575   5.622   2.525  0.0529  0.1286 -0.0362
 3823W        W 6023   4.811   0.989  22.116 -0.2065 -0.1888  0.0725
 3824W        W 6024  28.709   3.024  15.439  0.3313  0.0579 -0.0217
 3825W        W 6025   4.058   1.916  21.833 -0.1403  0.1445 -0.0302
 3826W        W 6026  11.298   7.364  11.085 -0.1201 -0.0521  0.2730
 3827W        W 6027  20.916   6.725  24.955 -0.0602 -0.1121  0.2576
 3828W        W 6028   5.813   2.686  23.163 -0.3080 -0.0043  0.0218
 3829W        W 6029   0.186   0.518  17.492  0.0104  0.1667  0.1543
 3830W        W 6030  24.534   4.494   1.368  0.2346  0.0558  0.0747
 3831W        W 6031  14.175   3.786  17.644 -0.1568  0.0163  0.1159
 3832W        W 6032  11.525   5.532   0.726 -0.2831 -0.0562  0.0272
 3833W        W 6033  19.115   6.237  21.143  0.1626  0.1720 -0.0265
 3834W        W 6034  14.836   4.956   7.668 -0.3816 -0.1115 -0.2420
 3835W        W 6035   7.176   1.871   9.478  0.2479  0.4158 -0.1473
 3836W        W 6036  20.193   2.143  10.997 -0.0860  0.2703 -0.2072
 3837W        W 6037  19.410   0.450   3.280  0.0190  0.0678 -0.1429
 3838W        W 6038  10.013   5.463  25.772  0.0327 -0.0335 -0.2121
 3839W        W 6039   2.549   6.077   7.690 -0.1988 -0.1631 -0.1578
 3840W        W 6040   2.924   3.725  23.783  0.1310  0.0169 -0.0149
 3841W        W 6041   6.098   7.260  24.295  0.0926 -0.0170  0.0975
 3842W        W 6042  29.418   4.169   6.781  0.0869 -0.0373  0.0576
 3843W        W 6043   0.934   5.298  25.230  0.0267  0.0593  0.0729
 3844W        W 6044  19.172   5.878  21.509  0.0114  0.0541 -0.2619
 3845W        W 6045  14.010   0.244  22.353 -0.0421 -0.2457 -0.0366
 3846W        W 6046  29.150   0.944   8.718 -0.1040 -0.0548 -0.0303
 3847W        W 6047   4.112   5.042   6.106 -0.0426  0.0074  0.0457
 3848W        W 6048  12.740   2.009   8.329  0.2649  0.3047  0.2035
 3849W        W 6049  10.196   1.049  17.756  0.1569  0.0530 -0.1328
 3850W        W 6050  20.989   5.028  23.626  0.0521  0.1350  0.2128
 3851W        W 6051   1.569   0.036   0.240  0.0370  0.0674  0.0944
 3852W        W 6052  29.774   1.137   0.834  0.0184 -0.0493 -0.1084
 3853W        W 6053   3.640   1.978  20.972  0.0358  0.1925  0.2687
 3854W        W 6054  10.385   0.474   2.430  0.0915 -0.0255  0.3180
 3855W        W 6055  22.708   7.759  26.000  0.0044  0.2336  0.0250
 3856W        W 6056   1.641   1.583  17.238 -0.0550 -0.3892  0.1308
 3857W        W 6057   6.469   2.628  15.644 -0.4585 -0.3668  0.0858
 3858W        W 6058   1.400   5.216   7.635 -0.3088  0.0071  0.0743
 3859W        W 6059   5.009   2.303  10.694 -0.3330 -0.0337 -0.0484
 3860W        W 6060  22.366   0.080   0.344 -0.1392  0.1399 -0.0872
 3861W        W 6061  21.620   1.676   5.335 -0.2144  0.0150 -0.0616
 3862W        W 6062  19.872   7.649  23.361  0.2896 -0.1572 -0.1687
 3863W        W 6063  22.933   0.254  24.775  0.0030  0.1521 -0.1220
 3864W        W 6064  10.014   2.622  10.285  0.0187  0.1397  0.0552
 3865W        W 6065  18.559   7.558  15.681 -0.2183  0.1265  0.0529
 3866W        W 6066   7.325   6.395   1.261 -0.3224  0.2523  0.0299
 3867W        W 6067  23.226   0.518   2.092  0.0516 -0.0295  0.0025
 3868W        W 6068  21.371   3.890  10.729 -0.0964  0.1865  0.1474
 3869W        W 6069  11.353   3.811   5.974 -0.1700 -0.1381 -0.0097
 3870W        W 6070   7.474   2.455   7.446  0.2707 -0.1470  0.0445
 3871W        W 6071  12.874   2.471  18.935 -0.0915  0.0552  0.0379
 3872W        W 6072  31.220   1.325  19.724  0.0354 -0.0578 -0.0318
 3873W        W 6073  11.082   5.410   0.592 -0.2195 -0.1416  0.1573
 3874W        W 6074  30.594   6.051  14.609 -0.2590  0.0711 -0.0392
 3875W        W 6075  29.727   2.625  25.545 -0.2111 -0.0668 -0.1090
 3876W        W 6076  12.227   7.259   6.180  0.1834  0.0602  0.1613
 3877W        W 6077  21.646   5.402   6.271  0.0095 -0.2806  0.3091
 3878W        W 6078   7.161   5.196  25.397 -0.0260  0.2657 -0.1144
 3879W        W 6079   9.985   3.126   1.022  0.3186 -0.0282  0.1916
 3880W        W 6080  10.003   5.684  22.323  0.0294  0.2031  0.0612
 3881W        W 6081   3.439   4.963   5.716  0.1304 -0.0017  0.2422
 3882W        W 6082  24.510   0.842   5.736  0.0020  0.1186 -0.1157
 3883W        W 6083   8.184   3.495  17.616  0.0234  0.0060 -0.2395
 3884W        W 6084  14.785   5.801  22.097 -0.0984  0.1810  0.3310
 3885W        W 6085  17.812   0.334  19.834 -0.0543  0.1994  0.1165
 3886W        W 6086  24.318   3.504  10.749 -0.0700  0.1880  0.0340
 3887W        W 6087  26.855   2.767   2.637 -0.1104  0.0300  0.0393
 3888W        W 6088  22.090   1.367   4.480 -0.1130  0.0583 -0.1742
 3889W        W 6089  15.342   7.252  11.112 -0.0772 -0.3139  0.0847
 3890W        W 6090  10.008   2.439   2.665 -0.1892  0.0882 -0.2368
 3891W        W 6091  27.205   5.225  10.046 -0.1720 -0.1657  0.0241
 3892W        W 6092   5.789   5.900  20.566 -0.2480 -0.0375 -0.2507
 3893W        W 6093  18.188   1.971   2.578  0.0452  0.0561 -0.0738
 3894W        W 6094  21.180   5.239   2.275  0.4094  0.1344  0.1344
 3895W        W 6095   8.341   4.826   0.676 -0.0702  0.0535 -0.2257
 3896W        W 6096  17.490   3.990   1.632  0.1028  0.0314  0.2780
 3897W        W 6097   1.741   7.300  15.866  0.0546  0.1602  0.0744
 3898W        W 6098   3.356   5.521  20.586 -0.0276 -0.0598 -0.0626
 3899W        W 6099  17.329   7.070  19.546  0.2801  0.0175 -0.0893
 3900W        W 6100  20.425   2.107   2.891  0.1763  0.4021 -0.3133
 3901W        W 6101   7.735   6.855  20.418  0.3271  0.0049  0.2808
 3902W        W 6102   0.586   4.044   8.747  0.1346  0.0484  0.1584
 3903W        W 6103   9.165   7.434  21.947 -0.0626 -0.0444  0.2009
 3904W        W 6104   6.111   7.804   4.616  0.2046  0.0235 -0.0520
 3905W        W 6105  14.151   6.617  24.067 -0.1039 -0.1224  0.1630
 3906W        W 6106   7.153   1.781  22.755  0.2559 -0.1130  0.2703
 3907W        W 6107  28.905   1.040  15.209  0.1110 -0.2526 -0.0038
 3908W        W 6108  28.200   2.041   6.704  0.1015  0.2252  0.1964
 3909W        W 6109  22.910   1.837  22.308 -0.0365 -0.2620 -0.1407
 3910W        W 6110  20.489   1.450  22.339 -0.0476  0.0376  0.0600
 3911W        W 6111  24.901   5.413   8.745  0.0879 -0.4362  0.1382
 3912W        W 6112   4.373   4.800   3.335 -0.1324 -0.1971  0.0524
 3913W        W 6113  13.802   1.714  19.338 -0.1517  0.1719 -0.0394
 3914W        W 6114  22.794   0.543   8.015 -0.4636 -0.1502  0.0960
 3915W        W 6115  30.113   0.241  19.294  0.0183  0.0911 -0.0860
 3916W        W 6116  16.026   6.411  23.608 -0.2111 -0.0480  0.0811
 3917W        W 6117  19.987   2.418   2.547 -0.1888  0.0606  0.1027
 3918W        W 6118   7.301   0.016  16.945  0.1322  0.0351  0.0839
 3919W        W 6119   8.097   0.332  20.098  0.0028 -0.0714  0.0709
 3920W        W 6120  17.997   6.102   2.231  0.1665  0.1886  0.0618
 3921W        W 6121   9.016   4.793  19.138 -0.0223  0.2588 -0.4349
 3922W        W 6122   0.784   4.144   7.335  0.2360  0.0864  0.3963
 3923W        W 6123   5.431   1.999  21.603  0.0416  0.1057 -0.0762
 3924W        W 6124  22.078   3.016   6.947  0.2509 -0.0184  0.1251
 3925W        W 6125   6.424   6.369   7.121  0.0097 -0.0552 -0.0045
 3926W        W 6126  18.555   0.020  25.179  0.2527  0.1614 -0.2010
 3927W        W 6127  28.526   7.073  18.408  0.0484 -0.0320 -0.3269
 3928W        W 6128  13.640   2.069  18.662  0.1330 -0.0094 -0.0347
 3929W        W 6129  30.963   1.459   9.071 -0.2195  0.2062  0.3003
 3930W        W 6130   9.135   1.812   8.593  0.1796  0.4322 -0.0458
 3931W        W 6131  28.860   7.656   3.571 -0.2086  0.0561  0.1093
 3932W        W 6132   5.260   3.289  25.956  0.2335 -0.1148  0.0109
 3933W        W 6133   3.004   1.869   9.454 -0.3087 -0.2012  0.1971
 3934W        W 6134  13.794   2.134   0.345 -0.0966  0.0929  0.0222
 3935W        W 6135  12.049   4.201  17.460 -0.0356 -0.0277  0.0075
 3936W        W 6136   7.849   4.311  26.078  0.3237  0.0150 -0.0452
 3937W        W 6137   9.005   7.326  18.495  0.0910  0.4565  0.2501
 3938W        W 6138   6.411   4.368  15.970  0.2984 -0.1361 -0.2472
 3939W        W 6139  19.140   7.122   9.251  0.3076  0.1082  0.1346
 3940W        W 6140  12.553   2.707  23.041  0.0096  0.1597  0.3052
 3941W        W 6141  28.915   4.596  16.969  0.1844 -0.2922  0.1717
 3942W        W 6142  23.359   1.091  23.502  0.0945  0.1723  0.0457
 3943W        W 6143  28.400   3.110  24.590  0.0417  0.1272  0.0896
 3944W        W 6144   6.026   6.024  22.040 -0.3195 -0.0810  0.0790
 3945W        W 6145   5.174   1.834   4.904 -0.2555  0.3741  0.0389
 3946W        W 6146   6.130   2.776   5.578  0.3684 -0.0745  0.1186
 3947W        W 6147  24.889   6.598   9.559  0.0954 -0.1187 -0.1094
 3948W        W 6148   7.847   7.086  16.824 -0.2881  0.3762  0.3996
 3949W        W 6149  29.238   2.404  20.244  0.2645  0.1132  0.2206
 3950W        W 6150   6.876   0.205  23.356  0.2593  0.2053 -0.2679
 3951W        W 6151  24.007   6.751  25.680  0.3652  0.2383 -0.0520
 3952W        W 6152   0.075   1.535   8.185  0.1681  0.0712 -0.0429
 3953W        W 6153   2.260   0.617  15.178  0.2597 -0.0663  0.0865
 3954W        W 6154   8.780   7.838  23.413  0.0322  0.0539  0.3140
 3955W        W 6155  30.326   2.536  25.019  0.2185 -0.1104 -0.0533
 3956W        W 6156   6.816   6.153   4.838  0.0521 -0.4698  0.0052
 3957W        W 6157  15.775   0.257  16.503  0.0495  0.4236  0.3206
 3958W        W 6158   3.461   4.558  19.620 -0.3302 -0.1101 -0.0502
 3959W        W 6159   2.345   2.960   3.047  0.1864  0.1141  0.1088
 3960W        W 6160  14.397   1.669   5.610  0.5176 -0.2060 -0.2243
 3961W        W 6161   0.988   1.461   8.940 -0.0706 -0.0473  0.3071
 3962W        W 6162  11.648   5.867  23.356  0.0203  0.2671  0.1001
 3963W        W 6163  24.089   4.127  18.896  0.1004  0.0734 -0.1052
 3964W        W 6164  18.655   3.407   0.574 -0.1348 -0.0597  0.3520
 3965W        W 6165   2.077   0.623   9.319 -0.0612  0.1284  0.0226
 3966W        W 6166  12.928   5.299   5.547  0.1115  0.1155  0.1405
 3967W        W 6167  21.002   6.611  24.079 -0.1005  0.0410 -0.0555
 3968W        W 6168  12.620   6.535   9.266  0.2060  0.0854  0.0708
 3969W        W 6169  31.132   5.630  23.306  0.3664 -0.0413  0.0396
 3970W        W 6170  31.019   0.372   7.009 -0.0454 -0.4797  0.1335
 3971W        W 6171  11.003   3.546   0.528  0.0660  0.1515  0.2099
 3972W        W 6172   1.433   2.886   9.701 -0.2253  0.0056 -0.0759
 3973W        W 6173   7.139   3.730  15.667 -0.2478  0.3378 -0.0073
 3974W        W 6174  19.217   4.476  10.427  0.2420 -0.2418 -0.3272
 3975W        W 6175  14.198   2.399  17.470  0.0654  0.0776 -0.0642
 3976W        W 6176  28.843   0.519   6.135  0.0510 -0.0616 -0.0131
 3977W        W 6177  22.658   5.603  16.534 -0.1673  0.2038  0.2701
 3978W        W 6178  18.187   5.931  17.206 -0.1658  0.0628  0.0460
 3979W        W 6179  10.934   0.691   3.305 -0.1173  0.0044  0.1549
 3980W        W 6180  14.389   1.958   9.238  0.1370  0.0948 -0.0652
 3981W        W 6181  30.164   7.124   5.985  0.2357 -0.3023  0.2092
 3982W        W 6182  13.391   2.703   7.262 -0.0211  0.0228  0.1250
 3983W        W 6183  24.927   0.100   1.344 -0.5124  0.0247  0.1565
 3984W        W 6184  27.274   7.539   3.123 -0.2580 -0.3817 -0.1770
 3985W        W 6185  26.943   0.028  15.500 -0.2043 -0.0279  0.2522
 3986W        W 6186  20.107   5.231   7.890  0.1224 -0.1919  0.0372
 3987W        W 6187  22.458   0.215   4.791 -0.3681  0.0874 -0.1950
 3988W        W 6188   7.338   0.905   5.847  0.1634  0.0550 -0.0040
 3989W        W 6189   1.535   3.511  19.140  0.0116  0.0485 -0.0106
 3990W        W 6190   7.137   3.909   8.297 -0.2473 -0.0560 -0.0944
 3991W        W 6191  17.972   3.611   2.391 -0.1162 -0.2129  0.0690
 3992W        W 6192   4.166   6.918   5.234 -0.1479 -0.0369 -0.2499
 3993W        W 6193  22.498   1.436  16.880  0.2051 -0.1235 -0.1461
 3994W        W 6194  16.332   2.148  21.603  0.0278 -0.0383  0.2794
 3995W        W 6195  30.556   4.083  15.521 -0.2980  0.1559  0.1913
 3996W        W 6196  24.488   4.731  24.156 -0.1725  0.1366 -0.0024
 3997W        W 6197  23.344   1.520   7.628 -0.1499  0.0104  0.0407
 3998W        W 6198  17.301   4.417  17.691 -0.1950 -0.1091 -0.0723
 3999W        W 6199  29.627   2.580   6.087 -0.2368 -0.1672 -0.1137
 4000W        W 6200  18.438   2.166   5.465 -0.0490  0.3653  0.0128
 4001W        W 6201  23.096   7.278  20.041 -0.2465  0.4033  0.2924
 4002W        W 6202  18.814   3.878  21.155 -0.1037 -0.1282 -0.2577
 4003W        W 6203  30.810   3.967   9.584  0.2276  0.0678  0.5142
 4004W        W 6204   0.074   0.176   6.924  0.2359 -0.0098 -0.0760
 4005W        W 6205   3.103   0.874  23.213 -0.2490 -0.1641 -0.1632
 4006W        W 6206   6.440   5.607   3.884  0.0064 -0.0306 -0.2943
 4007W        W 6207  16.215   2.165   1.862  0.2510 -0.2493  0.1699
 4008W        W 6208   4.950   5.239   9.787  0.1053  0.1423  0.3851
 4009W        W 6209   1.823   6.271   5.318 -0.1464  0.0983  0.1620
 4010W        W 6210  22.136   1.216  21.095 -0.3118  0.4555  0.3806
 4011W        W 6211  22.444   0.513  22.073  0.0754 -0.1202  0.0218
 4012W        W 6212   7.178   3.474  17.780  0.2023  0.2195  0.0786
 4013W        W 6213   5.057   7.762  21.669  0.2045 -0.1968  0.0015
 4014W        W 6214  30.542   7.151   4.077  0.2416  0.2398  0.1346
 4015W        W 6215  16.953   2.578  19.469 -0.1881  0.0429 -0.0887
 4016W        W 6216  25.677   2.263   2.597  0.2084 -0.0239 -0.0135
 4017W        W 6217  20.786   1.607  17.299 -0.0100 -0.1502  0.0553
 4018W        W 6218  13.927   3.356   9.978  0.2277 -0.1650 -0.0885
 4019W        W 6219  16.616   3.142   6.469  0.3373  0.1453 -0.1513
 4020W        W 6220  21.892   4.682   2.005  0.1757  0.3293  0.3341
 4021W        W 6221  24.322   6.788   5.566  0.2337  0.0267  0.0560
 4022W        W 6222  24.880   3.890  24.427  0.0629 -0.0358  0.4931
 4023W        W 6223   6.734   1.137  10.418 -0.0575 -0.0678  0.1376
 4024W        W 6224  16.840   5.880   5.602  0.0267 -0.0685 -0.1472
 4025W        W 6225  26.439   6.894   8.529  0.0138  0.2223 -0.0808
 4026W        W 6226   7.944   4.055   4.381 -0.1158 -0.1627  0.0129
 4027W        W 6227  14.569   3.763  17.929  0.0220  0.0025 -0.0206
 4028W        W 6228   1.656   5.247   6.865  0.0040  0.0015 -0.1597
 4029W        W 6229  26.508   1.724   1.170  0.0443 -0.1128  0.1988
 4030W        W 6230  19.405   5.466   0.798 -0.1633 -0.0392 -0.0160
 4031W        W 6231  31.146   3.951  16.197 -0.3528  0.0716 -0.1296
 4032W        W 6232  14.964   2.191  10.844 -0.4022 -0.0976 -0.1062
 4033W        W 6233  18.574   2.157  22.603  0.2868  0.1519 -0.1334
 4034W        W 6234  25.908   1.036  17.569  0.1847  0.0498 -0.3196
 4035W        W 6235  17.506   0.203  14.967 -0.0366 -0.3090 -0.0554
 4036W        W 6236   7.753   7.240   8.660  0.0195  0.1396 -0.3008
 4037W        W 6237  11.797   2.011  10.537 -0.1470 -0.0031 -0.1002
 4038W        W 6238  12.063   5.102  15.719 -0.1713 -0.3522 -0.1725
 4039W        W 6239   2.724   2.501  23.770 -0.1674 -0.2573 -0.0372
 4040W        W 6240   7.165   6.417  10.598 -0.2045 -0.1683 -0.0085
 4041W        W 6241   3.780   3.087   3.168  0.1219 -0.1437  0.0075
 4042W        W 6242   2.859   0.702  22.277 -0.2627 -0.1002 -0.2792
 4043W        W 6243  14.436   1.910  21.012  0.1793  0.0070  0.0506
 4044W        W 6244  24.899   6.943   5.430 -0.2658  0.0600 -0.1976
 4045W        W 6245  31.341   6.505  14.247 -0.0964 -0.1750 -0.1619
 4046W        W 6246  25.412   7.070  17.473  0.0035 -0.1143  0.2546
 4047W        W 6247   2.139   1.918  21.813 -0.3114 -0.0438 -0.0756
 4048W        W 6248  10.342   1.825   6.052  0.0605 -0.0978  0.0293
 4049W        W 6249  28.768   0.669  20.573  0.0606  0.1307  0.1002
 4050W        W 6250  24.402   5.786  20.637  0.0886  0.2670  0.0730
 4051W        W 6251   3.529   6.845   8.250 -0.1019 -0.1643  0.1346
 4052W        W 6252   9.184   0.682  23.502 -0.0107 -0.1206 -0.1029
 4053W        W 6253  12.509   7.616  23.578 -0.0948  0.1421 -0.2468
 4054W        W 6254  10.216   3.662  21.989  0.0681 -0.4033  0.0259
 4055W        W 6255  18.792   3.846  25.862  0.1883  0.5204  0.1097
 4056W        W 6256  25.331   6.537  23.079 -0.2571  0.1186  0.0912
 4057W        W 6257  31.231   6.716  18.964  0.0395 -0.2907  0.1874
 4058W        W 6258  27.135   7.571   0.751  0.1336 -0.2128  0.0263
 4059W        W 6259  17.273   5.903   6.355 -0.1315 -0.3991  0.1798
 4060W        W 6260   3.831   3.642   1.910 -0.0171 -0.1499  0.2224
 4061W        W 6261   8.515   5.490   2.478 -0.2215  0.0326  0.4886
 4062W        W 6262  12.551   1.808  23.343  0.2876  0.1422 -0.5346
 4063W        W 6263  30.751   3.535  22.740 -0.2700 -0.2575  0.1238
 4064W        W 6264  27.452   6.473  10.291 -0.2490  0.4176  0.0878
 4065W        W 6265  29.022   7.214  18.095 -0.1993  0.0293  0.1484
 4066W        W 6266  28.949   5.089  23.683  0.0391  0.0357 -0.3525
 4067W        W 6267  14.348   5.052  20.240  0.1560 -0.0701 -0.1073
 4068W        W 6268   8.070   6.392  15.901 -0.2045 -0.1964 -0.1145
 4069W        W 6269  18.975   2.524  20.561 -0.1477  0.1039  0.2578
 4070W        W 6270   7.166   6.034  20.998  0.0941 -0.1861 -0.0293
 4071W        W 6271   4.901   0.488   8.866 -0.1579  0.0526  0.2490
 4072W        W 6272  24.588   1.219  18.589  0.1397  0.0620 -0.1500
 4073W        W 6273  26.334   2.975   1.438  0.0061 -0.0057 -0.0276
 4074W        W 6274  21.955   1.633   2.598  0.3543  0.0289  0.1161
 4075W        W 6275   2.535   0.401  16.262  0.1508  0.0687 -0.0344
 4076W        W 6276  30.455   6.343  17.641 -0.0691 -0.1049 -0.2190
 4077W        W 6277   9.841   1.819  18.010 -0.0591  0.1499  0.0816
 4078W        W 6278  26.508   2.249   7.442 -0.0077 -0.0350  0.0031
 4079W        W 6279  10.822   3.440   3.080 -0.2443  0.2003  0.0030
 4080W        W 6280   3.366   0.383   5.008  0.1257  0.0087  0.0023
 4081W        W 6281  15.325   3.981  16.657 -0.2456  0.2427 -0.1490
 4082W        W 6282   0.118   5.068  22.286 -0.0457  0.1079  0.1217
 4083W        W 6283  29.002   3.448  23.336  0.1678 -0.2493  0.1195
 4084W        W 6284   0.783   7.447  19.348 -0.2345  0.1522  0.2115
 4085W        W 6285   7.217   3.071   4.915  0.1052 -0.1014  0.4493
 4086W        W 6286  13.834   4.934   5.092  0.0828 -0.1769  0.1205
 4087W        W 6287  19.414   4.324   1.616  0.3132  0.0679 -0.3681
 4088W        W 6288   6.352   4.506  17.877 -0.0318 -0.0290 -0.1720
 4089W        W 6289  20.050   6.985   9.196 -0.1891 -0.2317  0.0742
 4090W        W 6290  31.169   6.831   9.423  0.0052 -0.0092 -0.0042
 4091W        W 6291  17.515   5.588  23.456 -0.0720  0.0154  0.1829
 4092W        W 6292   4.051   1.023  17.921  0.1982  0.1294  0.0890
 4093W        W 6293  16.807   5.100  21.218  0.4857  0.0331 -0.0986
 4094W        W 6294  10.974   4.504  17.706 -0.2727  0.1899  0.0571
 4095W        W 6295   0.850   4.317   2.120  0.1037 -0.0986 -0.3671
 4096W        W 6296  10.349   2.483   4.286 -0.2672  0.2303 -0.0669
 4097W        W 6297   5.614   0.132  25.446 -0.1439  0.0261  0.0241
 4098W        W 6298   8.034   7.287   0.179  0.1296  0.1002 -0.1494
 4099W        W 6299  13.660   4.858  16.632  0.1791 -0.3446 -0.0019
 4100W        W 6300  24.369   6.647   4.497  0.0436  0.0343 -0.0973
 4101W        W 6301   7.697   7.050  23.173  0.1993  0.2315 -0.4404
 4102W        W 6302   3.690   6.370  24.797  0.0759  0.0138  0.1146
 4103W        W 6303   2.347   5.806  23.213 -0.0163  0.1530  0.0444
 4104W        W 6304   5.340   5.836   6.487 -0.1418 -0.1862 -0.4400
 4105W        W 6305   1.734   6.064   7.349  0.1283  0.0811 -0.1823
 4106W        W 6306  29.441   3.300   7.435 -0.1640  0.1279  0.2097
 4107W        W 6307  21.806   2.698   8.820 -0.0713  0.1046  0.2328
 4108W        W 6308   1.210   2.891  15.905 -0.2307 -0.1175 -0.2392
 4109W        W 6309  20.377   5.015   0.815 -0.2516  0.3445  0.0143
 4110W        W 6310  27.374   0.230  15.660  0.2789  0.0403  0.3098
 4111W        W 6311  27.800   4.212  25.979 -0.0028 -0.0278  0.1843
 4112W        W 6312   5.667   1.454   5.191 -0.2007  0.2522  0.0804
 4113W        W 6313   1.689   4.818   4.159  0.1059  0.2959 -0.0111
 4114W        W 6314  10.486   4.627   3.063  0.2788  0.1069 -0.2267
 4115W        W 6315  19.875   6.705   1.312  0.2351  0.1913  0.2135
 4116W        W 6316   1.949   1.657  18.335 -0.1794  0.2851  0.5181
 4117W        W 6317   4.661   7.542  25.476  0.2058 -0.1616 -0.0739
 4118W        W 6318  25.947   0.950  25.401 -0.0684 -0.2430 -0.0706
 4119W        W 6319  10.816   2.276   0.681 -0.0502 -0.1064  0.0275
 4120W        W 6320   4.173   1.629   9.350 -0.4195  0.1773  0.0584
 4121W        W 6321  23.501   2.113   6.216  0.0338 -0.1939 -0.2624
 4122W        W 6322  11.689   6.370   5.485 -0.0807 -0.0068 -0.1536
 4123W        W 6323  16.971   7.518   9.973 -0.0870  0.0858 -0.0476
 4124W        W 6324  23.537   1.084   9.035 -0.4233  0.0038 -0.1180
 4125W        W 6325  21.128   4.364  16.771  0.1076  0.0138 -0.1684
 4126W        W 6326   4.738   0.031  18.847 -0.0948 -0.2285 -0.2016
 4127W        W 6327   1.492   6.875  18.188  0.0494  0.0727 -0.2043
 4128W        W 6328  23.961   4.713  24.152 -0.3371 -0.0161  0.0556
 4129W        W 6329   2.223   6.683   0.133 -0.2628 -0.0178  0.2190
 4130W        W 6330   3.599   2.584  25.668 -0.3353 -0.0287  0.1484
 4131W        W 6331   5.393   1.014   5.210  0.0517 -0.1469 -0.1030
 4132W        W 6332  24.493   4.725   3.020 -0.0693 -0.1249  0.1868
 4133W        W 6333   7.018   1.867   0.768  0.0070 -0.0654 -0.2600
 4134W        W 6334  14.570   4.226  23.156  0.1683 -0.0258 -0.1619
 4135W        W 6335  11.639   3.274  21.961 -0.1899  0.2374 -0.0890
 4136W        W 6336   5.832   3.574  22.110 -0.2579  0.0540  0.1603
 4137W        W 6337  31.103   2.503  24.304 -0.0858 -0.0458  0.0268
 4138W        W 6338   6.063   2.979  21.363 -0.0855  0.0570  0.1178
 4139W        W 6339  16.060   5.078   0.559 -0.1397 -0.0910  0.1930
 4140W        W 6340  10.278   6.580  19.349 -0.2071 -0.1186  0.1196
 4141W        W 6341  27.298   3.431   9.511  0.2612  0.0896 -0.2453
 4142W        W 6342   6.489   2.642  23.996 -0.0716  0.0924 -0.2414
 4143W        W 6343  20.127   5.406  19.478 -0.4094  0.1425 -0.2500
 4144W        W 6344   1.254   6.093   0.193  0.0999 -0.1002  0.0582
 4145W        W 6345  13.460   7.638   8.084 -0.1063 -0.0751 -0.1416
 4146W        W 6346  10.948   5.775  25.500 -0.5252  0.0390  0.0243
 4147W        W 6347   4.806   2.048   4.671  0.2076 -0.0116  0.0781
 4148W        W 6348  12.432   7.855  25.821  0.1829 -0.0271 -0.2273
 4149W        W 6349  10.876   6.982  18.613  0.2218  0.0969  0.0991
 4150W        W 6350  27.367   2.398  24.984  0.1003 -0.1811  0.1192
 4151W        W 6351  29.756   5.410  23.386 -0.3337 -0.1831  0.6716
 4152W        W 6352  25.825   4.244  18.120 -0.1602  0.0502 -0.5453
 4153W        W 6353  24.428   0.588  16.944  0.0535  0.0850 -0.1177
 4154W        W 6354  13.158   6.270   2.706 -0.0539 -0.2091 -0.3611
 4155W        W 6355  16.637   6.353  25.417  0.0824 -0.0562 -0.0033
 4156W        W 6356  17.440   4.719  20.599 -0.2714  0.3815 -0.1420
 4157W        W 6357   3.193   2.346   8.412 -0.1448  0.0215 -0.1792
 4158W        W 6358  12.069   1.262  20.528  0.3424 -0.2067 -0.2328
 4159W        W 6359   5.106   5.618  24.699  0.0197 -0.3527  0.1762
 4160W        W 6360  28.228   6.306   8.027  0.0026  0.2037 -0.1075
 4161W        W 6361  28.504   1.797   9.969 -0.0392  0.0809  0.4221
 4162W        W 6362  16.980   7.672  10.420 -0.4416  0.1766 -0.1527
 4163W        W 6363  31.254   2.685  20.579 -0.0279  0.2397  0.1448
 4164W        W 6364  25.723   3.297   2.102 -0.1974  0.1030  0.0161
 4165W        W 6365  15.446   7.285  15.767 -0.1726  0.3504 -0.1859
 4166W        W 6366  29.858   2.204   0.842 -0.1993  0.0961  0.2168
 4167W        W 6367  26.442   0.156   8.450  0.1859 -0.1471 -0.0939
 4168W        W 6368  11.824   4.733   3.646  0.0352 -0.2318 -0.0133
 4169W        W 6369   7.618   3.258  16.220 -0.2824 -0.0424  0.0255
 4170W        W 6370  17.631   0.800  17.254  0.0098  0.1889 -0.1745
 4171W        W 6371   0.401   0.773  18.989 -0.0176 -0.2695  0.4035
 4172W        W 6372   0.671   1.525  25.526  0.3561  0.1307 -0.1736
 4173W        W 6373  25.783   7.281  20.462 -0.1717  0.0337  0.3349
 4174W        W 6374  26.145   3.781   0.160 -0.0162 -0.1301  0.1647
 4175W        W 6375  23.419   1.704   0.549  0.1710  0.0906 -0.0667
 4176W        W 6376  12.283   0.336   5.579 -0.2303  0.0042 -0.5263
 4177W        W 6377  31.301   0.203  25.123  0.0897  0.0100  0.0517
 4178W        W 6378  16.557   7.435   0.340  0.1247  0.0756  0.2186
 4179W        W 6379  11.292   6.986  24.117 -0.1393 -0.0673 -0.0414
 4180W        W 6380  23.502   3.652   1.598  0.0622  0.0633  0.1466
 4181W        W 6381   1.912   0.235   5.456  0.0670  0.2412  0.0115
 4182W        W 6382  27.214   4.091   6.160  0.3249  0.1964 -0.0114
 4183W        W 6383  25.148   0.590  23.390 -0.2536 -0.3855 -0.3231
 4184W        W 6384   9.004   2.051  16.423  0.1192 -0.0038 -0.2649
 4185W        W 6385  22.273   5.956   6.498 -0.2448  0.2036  0.2333
 4186W        W 6386  15.761   1.266  17.242 -0.2444  0.2909 -0.1933
 4187W        W 6387  23.790   6.754   6.326 -0.0259 -0.0246  0.1205
 4188W        W 6388   2.280   5.445  20.003 -0.0206  0.1118  0.0397
 4189W        W 6389  26.503   6.838  18.975 -0.1652  0.2351  0.1227
 4190W        W 6390   6.653   2.518   6.179 -0.0379 -0.2669 -0.0854
 4191W        W 6391  27.003   5.531  17.323  0.2317 -0.0109 -0.1130
 4192W        W 6392  26.242   0.449   7.506 -0.0617 -0.0363 -0.0644
 4193W        W 6393  28.743   0.913   3.311  0.2753  0.1143 -0.1052
 4194W        W 6394  27.000   2.407   8.592  0.1255 -0.1904  0.1631
 4195W        W 6395  27.175   5.528  19.122  0.1569 -0.0112 -0.3017
 4196W        W 6396   9.905   0.195  18.140  0.1231 -0.0239 -0.3989
 4197W        W 6397  26.765   7.163   9.613 -0.0503  0.1310 -0.3864
 4198W        W 6398   5.191   4.743  16.025 -0.1667 -0.2503  0.1920
 4199W        W 6399  12.998   0.372  10.471  0.2869  0.3859  0.0525
 4200W        W 6400   9.202   5.074  17.221 -0.0638  0.0031 -0.1991
 4201W        W 6401  16.867   4.941  20.665  0.0410 -0.0026 -0.2098
 4202W        W 6402   4.800   6.781   5.150 -0.1718 -0.1695 -0.1868
 4203W        W 6403  26.249   4.345  21.636  0.0952 -0.0661  0.1289
 4204W        W 6404   3.835   1.594  15.969 -0.2318 -0.5056  0.1855
 4205W        W 6405  18.292   3.840  22.853 -0.2497  0.0863  0.0920
 4206W        W 6406  12.973   2.450   1.539 -0.3111  0.1205 -0.2424
 4207W        W 6407  14.959   2.393   8.711  0.0946 -0.3471  0.1125
 4208W        W 6408  15.192   5.567   4.224  0.0465 -0.0262 -0.0422
 4209W        W 6409  20.251   3.897  19.357  0.2621 -0.1124 -0.3084
 4210W        W 6410  22.961   4.753  17.999  0.2125  0.1561  0.0670
 4211W        W 6411   9.477   3.831  24.525  0.2150 -0.1926  0.2405
 4212W        W 6412  29.987   6.311   3.544  0.1035  0.0887  0.2066
 4213W        W 6413  29.281   5.368   1.528  0.0518 -0.1352  0.0933
 4214W        W 6414  30.540   3.921  20.557 -0.0690  0.1245 -0.0641
 4215W        W 6415  30.092   0.253  22.972  0.2317 -0.2254 -0.0219
 4216W        W 6416  19.586   5.077  26.029 -0.0310 -0.0148 -0.1097
 4217W        W 6417  28.978   1.220  16.489 -0.0869  0.1508 -0.2351
 4218W        W 6418  24.641   0.766  16.072 -0.2581  0.0004  0.0647
 4219W        W 6419   2.667   4.976  14.720  0.0657 -0.1315 -0.1654
 4220W        W 6420   3.133   2.673   1.188 -0.1840  0.1612 -0.0732
 4221W        W 6421  24.723   6.295   4.280 -0.1573  0.3031  0.0558
 4222W        W 6422  10.861   4.418  16.122 -0.0874  0.1297  0.0842
 4223W        W 6423  13.917   6.567   8.447 -0.1371  0.0722  0.0701
 4224W        W 6424  11.309   4.100  25.054 -0.0226 -0.1450  0.2661
 4225W        W 6425  29.515   3.627   9.133  0.2467 -0.2204 -0.1279
 4226W        W 6426  13.700   2.522  24.170 -0.0737  0.1702 -0.1140
 4227W        W 6427  16.645   0.110   0.396 -0.0527  0.1371  0.2429
 4228W        W 6428  27.583   0.871   4.028  0.2385 -0.1025 -0.0056
 4229W        W 6429   8.426   1.627  23.288 -0.0357  0.1420  0.3365
 4230W        W 6430   5.855   1.422  24.317  0.3230  0.1032 -0.1209
 4231W        W 6431  30.476   1.443   2.888 -0.5358 -0.0457  0.0055
 4232W        W 6432  23.347   4.071   9.975  0.0615  0.0064  0.2265
 4233W        W 6433  11.754   5.030  20.987  0.2165 -0.1241 -0.0240
 4234W        W 6434   3.300   0.323   7.352 -0.1726 -0.0679 -0.0267
 4235W        W 6435  27.722   4.433  22.875  0.1417 -0.1488  0.0733
 4236W        W 6436  15.586   3.785   7.508 -0.2220  0.1691 -0.2132
 4237W        W 6437  23.794   6.641  17.759 -0.1247  0.0201  0.1418
 4238W        W 6438   4.066   3.851  24.519 -0.0065  0.1560 -0.2213
 4239W        W 6439  17.498   6.306  25.681  0.0266  0.3842  0.0503
 4240W        W 6440   6.682   6.449  24.738 -0.1498 -0.2364  0.1565
 4241W        W 6441  14.239   1.872  25.184  0.1081 -0.3261 -0.0575
 4242W        W 6442   5.498   1.090   3.404 -0.0510  0.1153  0.0087
 4243W        W 6443   2.652   7.215  19.280  0.1807 -0.0021 -0.2988
 4244W        W 6444  23.654   7.174   2.386 -0.1087 -0.0842 -0.0519
 4245W        W 6445   2.013   5.888  25.686  0.0307  0.0375 -0.1616
 4246W        W 6446   7.124   2.885  20.507 -0.0369 -0.0934 -0.2584
 4247W        W 6447  13.818   4.414   7.690  0.2900 -0.3159 -0.0451
 4248W        W 6448  22.766   2.716  25.749  0.0361  0.0285  0.3251
 4249W        W 6449  27.434   1.121  20.286 -0.2592 -0.0637 -0.2110
 4250W        W 6450  12.078   0.416  20.988 -0.0302 -0.1459  0.0579
 4251W        W 6451   6.907   5.481  16.042  0.3279  0.1768 -0.1750
 4252W        W 6452   6.728   0.869   5.503 -0.1594  0.2742  0.2046
 4253W        W 6453  13.868   4.951   7.536 -0.0007 -0.2822  0.0642
 4254W        W 6454   8.000   4.284  20.656  0.2085 -0.0527 -0.1514
 4255W        W 6455  23.247   1.223   3.730  0.0401  0.1499  0.1364
 4256W        W 6456  21.804   4.383  19.607 -0.0813  0.2555  0.0932
 4257W        W 6457   4.199   3.855  23.336 -0.1369 -0.0855  0.0713
 4258W        W 6458   5.384   0.388  16.835  0.3077 -0.1381  0.3944
 4259W        W 6459   7.543   2.617  25.257  0.0172  0.0246  0.1543
 4260W        W 6460   8.670   1.397   7.391 -0.0212  0.1978 -0.4119
 4261W        W 6461  13.784   1.157  19.974  0.1111 -0.0263 -0.2083
 4262W        W 6462  21.495   6.101  18.601  0.1401  0.0278 -0.2308
 4263W        W 6463   3.992   7.444  25.894 -0.1128 -0.0564 -0.1291
 4264W        W 6464  28.385   3.224   3.359 -0.3916 -0.1145  0.2886
 4265W        W 6465   3.554   5.135  20.882 -0.1294 -0.0672 -0.2457
 4266W        W 6466  13.174   6.781  25.227 -0.2574  0.1373 -0.2514
 4267W        W 6467   1.376   0.320  16.567  0.1293  0.0028 -0.0905
 4268W        W 6468  19.432   5.210  16.916  0.2537 -0.0280  0.0700
 4269W        W 6469  14.195   1.657  19.705 -0.0135 -0.3469 -0.0769
 4270W        W 6470  11.659   7.096  10.248  0.0437  0.0348  0.0154
 4271W        W 6471   1.822   5.002  25.774 -0.1496 -0.2450 -0.0352
 4272W        W 6472  22.906   5.409   6.853 -0.1139  0.0717 -0.0170
 4273W        W 6473  20.238   2.490   0.874  0.0655  0.0274  0.0296
 4274W        W 6474  14.174   4.160   2.344 -0.3891  0.0133  0.0849
 4275W        W 6475  12.994   0.870  21.924 -0.2285  0.1177 -0.4226
 4276W        W 6476   7.232   2.583  23.367  0.2937  0.0230  0.2933
 4277W        W 6477  28.280   6.687  18.047 -0.2420  0.0914  0.1350
 4278W        W 6478   7.477   6.300  23.826 -0.0686 -0.1436  0.1361
 4279W        W 6479  11.506   3.033   8.145 -0.3352  0.2466  0.1787
 4280W        W 6480  13.875   3.769   7.909  0.2693  0.3366 -0.4639
 4281W        W 6481   2.703   4.048   8.477 -0.1449 -0.1185  0.0550
 4282W        W 6482   0.367   0.788   8.833 -0.2280 -0.1413 -0.2975
 4283W        W 6483   8.687   1.576  18.817  0.2193 -0.0000  0.0921
 4284W        W 6484  30.887   4.020   7.904 -0.3156 -0.1690  0.1589
 4285W        W 6485  13.615   3.077  18.838  0.0778 -0.1101 -0.1645
 4286W        W 6486  13.638   6.895  19.167  0.2432  0.3311 -0.0856
 4287W        W 6487  21.964   7.426  23.207  0.0335 -0.0110  0.1006
 4288W        W 6488  19.258   7.843  23.723 -0.0301  0.0674  0.1220
 4289W        W 6489  19.174   1.466  25.292 -0.3701 -0.0122  0.5611
 4290W        W 6490  24.100   0.965  22.740 -0.1651  0.3338  0.0330
 4291W        W 6491  19.492   7.241  17.432 -0.0336 -0.1035 -0.1176
 4292W        W 6492  25.526   2.674  23.912  0.2359 -0.2627  0.1045
 4293W        W 6493   1.015   2.212   1.477 -0.3077  0.0042 -0.0934
 4294W        W 6494   5.897   6.922  16.954  0.0307 -0.2315 -0.1572
 4295W        W 6495   1.663   6.478  23.139  0.1308 -0.2394  0.1304
 4296W        W 6496   3.090   0.198  14.733 -0.1129 -0.0219 -0.0192
 4297W        W 6497  18.808   1.426   2.384  0.2494  0.4260  0.1936
 4298W        W 6498  25.237   6.197  25.921 -0.3496  0.0769 -0.1124
 4299W        W 6499  23.496   6.777  21.394  0.0107 -0.2189 -0.2253
 4300W        W 6500  16.276   2.529   5.203  0.2587 -0.3233  0.0244
 4301W        W 6501  24.077   7.156  17.191 -0.0729  0.1935  0.0224
 4302W        W 6502   5.859   5.327  19.386  0.1885 -0.0985 -0.1363
 4303W        W 6503  11.173   2.807  24.054 -0.0253 -0.3166 -0.2260
 4304W        W 6504  24.584   4.558  22.762  0.0841  0.0275 -0.0275
 4305W        W 6505  26.220   7.401   3.415 -0.1643 -0.0699 -0.0702
 4306W        W 6506  20.754   0.980   2.313 -0.0039 -0.3473  0.1586
 4307W        W 6507   2.307   0.986   4.246 -0.2782  0.0517  0.1723
 4308W        W 6508  11.928   7.049  23.450 -0.0264 -0.1508  0.0183
 4309W        W 6509  16.179   2.543  19.218  0.0919  0.0983  0.2440
 4310W        W 6510  23.154   6.398   3.233 -0.2130  0.0902  0.3255
 4311W        W 6511  12.466   6.117   9.510  0.0019 -0.0543  0.2290
 4312W        W 6512  13.816   5.900  10.648 -0.1573 -0.3878  0.0254
 4313W        W 6513   7.909   6.601  24.488 -0.0110  0.1068  0.1642
 4314W        W 6514  28.147   5.049   7.055 -0.1499  0.0524  0.2689
 4315W        W 6515   8.689   5.328   5.471  0.1812 -0.1493  0.4210
 4316W        W 6516   4.859   3.342  24.000 -0.0176  0.0990  0.1029
 4317W        W 6517   6.789   3.123  20.186  0.2332 -0.0885  0.0296
 4318W        W 6518   7.302   5.178  11.462 -0.1735 -0.0033 -0.3679
 4319W        W 6519  11.268   2.076   6.103  0.4998 -0.3081  0.2016
 4320W        W 6520  12.945   7.106  17.811  0.0445 -0.1325 -0.0659
 4321W        W 6521   8.309   4.180   2.866 -0.0214  0.0981  0.2396
 4322W        W 6522   1.806   3.068   1.363 -0.3558 -0.1553 -0.0469
 4323W        W 6523  26.584   4.532  17.842 -0.2589 -0.1414  0.4809
 4324W        W 6524   2.343   2.775   3.889  0.0686  0.1723 -0.2920
 4325W        W 6525   4.424   3.070   5.341  0.0891 -0.3872  0.1080
 4326W        W 6526  18.725   2.407   7.715  0.6542 -0.1257  0.0089
 4327W        W 6527  22.054   6.410   7.274  0.2089  0.5161  0.1152
 4328W        W 6528  14.112   7.512  19.745  0.0496  0.1041  0.0899
 4329W        W 6529  13.695   5.835  16.177  0.1310 -0.0505  0.2178
 4330W        W 6530   4.155   2.563  16.524  0.0280 -0.1106  0.1371
 4331W        W 6531  16.927   2.111  23.676 -0.0148  0.4194  0.0429
 4332W        W 6532  28.093   6.143   4.717 -0.1893  0.0775  0.0351
 4333W        W 6533  16.884   0.441  25.333  0.2101  0.0848  0.1623
 4334W        W 6534  30.617   4.082   8.468 -0.0825  0.0991  0.0119
 4335W        W 6535  19.678   0.436  16.748  0.0401  0.0565 -0.0364
 4336W        W 6536   9.686   2.216   1.825  0.2885  0.0864 -0.0813
 4337W        W 6537   0.395   6.773  25.460  0.2875  0.1966  0.3082
 4338W        W 6538  29.760   5.453  15.516 -0.1243 -0.0886  0.1157
 4339W        W 6539  23.970   6.090  18.606 -0.1495 -0.2901  0.1563
 4340W        W 6540  14.275   3.069   6.108  0.0222  0.2052  0.1695
 4341W        W 6541  17.000   5.875   2.362 -0.3117 -0.3288 -0.0638
 4342W        W 6542   1.176   6.856   9.898 -0.2742 -0.1514  0.1504
 4343W        W 6543  26.510   7.419  16.330  0.1209 -0.1537 -0.0823
 4344W        W 6544   4.253   1.244  24.466  0.2948 -0.2159  0.1263
 4345W        W 6545  20.759   2.567  10.679  0.2144 -0.0171 -0.1121
 4346W        W 6546  29.255   3.980   7.301 -0.0696  0.0881  0.2424
 4347W        W 6547  28.080   5.289   5.178  0.0651 -0.1254  0.0746
 4348W        W 6548  21.599   3.759  19.748  0.1741 -0.1196 -0.1640
 4349W        W 6549  14.495   4.482  16.548 -0.0326  0.4150 -0.1039
 4350W        W 6550  29.814   1.951  22.525  0.1366  0.3382 -0.0564
 4351W        W 6551  29.575   2.800  20.200  0.0566 -0.1730 -0.2013
 4352W        W 6552   9.204   4.461   8.435  0.0888 -0.2863 -0.1632
 4353W        W 6553  12.082   1.821  23.338 -0.0295 -0.1447 -0.2332
 4354W        W 6554  30.553   4.990  23.674 -0.0872  0.0047  0.1657
 4355W        W 6555  11.915   1.831  24.487  0.0795 -0.1357 -0.0643
 4356W        W 6556   2.004   5.051   5.690 -0.0291 -0.0528 -0.1090
 4357W        W 6557  26.423   1.764   5.683  0.2501  0.0450  0.1308
 4358W        W 6558  28.296   5.097   2.521 -0.0318 -0.0762 -0.0768
 4359W        W 6559  30.856   7.693   2.883 -0.1056 -0.0363  0.1688
 4360W        W 6560   4.718   2.148  24.544  0.0434  0.0155 -0.3075
 4361W        W 6561  21.684   4.655  19.203  0.3409  0.0423  0.2544
 4362W        W 6562  20.055   5.145  10.144  0.0716  0.1127  0.1395
 4363W        W 6563   1.338   7.402   7.387 -0.2244  0.0016 -0.1618
 4364W        W 6564   4.281   5.891  23.095 -0.2214 -0.0413 -0.0019
 4365W        W 6565  15.790   4.737   7.249 -0.0131  0.0214  0.0209
 4366W        W 6566  24.584   3.773  14.973 -0.2207 -0.0099  0.0476
 4367W        W 6567  22.586   4.673   6.219 -0.1711 -0.0756 -0.3664
 4368W        W 6568  15.051   3.117  10.879 -0.0219  0.1415 -0.0890
 4369W        W 6569  30.885   6.835   3.728 -0.0298  0.3866 -0.2388
 4370W        W 6570  23.591   6.010  22.911  0.0520  0.1089 -0.2173
 4371W        W 6571  26.992   2.470  21.896 -0.2216 -0.0456 -0.0843
 4372W        W 6572  13.306   2.936  11.379  0.0004  0.0314 -0.2779
 4373W        W 6573  15.944   6.223   6.228  0.2359 -0.2242 -0.0267
 4374W        W 6574  10.700   3.834  24.230  0.3963  0.0811  0.0089
 4375W        W 6575  17.864   6.834   2.863 -0.0560 -0.0826 -0.0075
 4376W        W 6576  15.203   0.059   4.988 -0.2472 -0.0923  0.0991
 4377W        W 6577  10.816   3.766   8.499  0.0919  0.1979  0.0020
 4378W        W 6578   6.969   6.482  21.197  0.1584  0.3011 -0.0556
 4379W        W 6579  10.898   6.197   1.410 -0.1368 -0.1276  0.0383
 4380W        W 6580  12.371   4.417   1.168 -0.1721 -0.0415  0.2126
 4381W        W 6581  22.004   2.086   0.376 -0.0235 -0.0334 -0.0922
 4382W        W 6582  16.961   0.020   2.552  0.2768  0.4156 -0.4665
 4383W        W 6583  18.117   3.934   0.350  0.0497  0.2149 -0.0172
 4384W        W 6584  17.629   0.627  23.602 -0.3349 -0.1582  0.2839
 4385W        W 6585  30.462   4.494   1.287 -0.2002  0.0232 -0.0058
 4386W        W 6586   2.053   4.299   4.507  0.3304 -0.0603  0.0515
 4387W        W 6587   2.325   0.390   5.146 -0.0975 -0.0678 -0.2518
 4388W        W 6588   2.997   6.096  23.891 -0.3131 -0.2163  0.2047
 4389W        W 6589  30.638   6.661  18.319 -0.2175  0.0108 -0.0820
 4390W        W 6590  14.228   6.682   3.323  0.0265  0.2068 -0.3084
 4391W        W 6591   2.505   0.549  19.097  0.0297 -0.0265  0.1877
 4392W        W 6592  22.256   1.484   6.605 -0.2369 -0.1624 -0.2443
 4393W        W 6593   8.173   0.534  18.690  0.2769  0.2848  0.0254
 4394W        W 6594  20.101   6.938   3.338 -0.3952 -0.0365 -0.2236
 4395W        W 6595  20.645   0.056  25.592 -0.0197 -0.0040  0.0195
 4396W        W 6596   5.658   2.896  16.258 -0.2900 -0.2758  0.0316
 4397W        W 6597   9.733   0.396   7.107  0.0291  0.1925  0.1730
 4398W        W 6598   2.574   6.202   6.390 -0.2428  0.0948  0.0934
 4399W        W 6599  28.498   1.094   5.618 -0.0710  0.0090 -0.1119
 4400W        W 6600  23.415   5.610  19.662 -0.0791  0.2152 -0.1149
 4401W        W 6601   7.614   1.009  16.024  0.1791 -0.1138 -0.0297
 4402W        W 6602  14.882   7.077   9.210 -0.2925 -0.1526 -0.1895
 4403W        W 6603   7.850   5.650  15.459 -0.3122 -0.1434 -0.3350
 4404W        W 6604   8.252   4.822  19.469  0.0710 -0.0354 -0.1675
 4405W        W 6605  23.628   3.985  20.781 -0.0496  0.1396 -0.0371
 4406W        W 6606  27.602   0.154   6.461  0.0553  0.2961  0.2027
 4407W        W 6607  26.723   2.995   5.492 -0.1644  0.3311 -0.1414
 4408W        W 6608  24.793   0.423  24.900 -0.2340 -0.3185  0.1993
 4409W        W 6609  10.572   0.622   1.985 -0.2493  0.0204  0.2841
 4410W        W 6610  17.072   7.281  15.669  0.0013 -0.3047  0.3705
 4411W        W 6611  16.462   5.426   0.518 -0.2572  0.0592  0.2210
 4412W        W 6612   2.350   2.876   1.938  0.0369  0.1058  0.0089
 4413W        W 6613   0.324   1.610   5.717  0.2038  0.0792  0.0234
 4414W        W 6614   7.311   6.654  20.874 -0.2160 -0.0523 -0.0150
 4415W        W 6615   5.450   6.558   7.214  0.0560 -0.0067  0.1626
 4416W        W 6616  20.255   2.475  16.953  0.3553 -0.0191  0.1055
 4417W        W 6617  26.563   1.601  20.470  0.0387  0.1458 -0.1409
 4418W        W 6618   4.794   3.636  18.848 -0.1618 -0.0656 -0.0726
 4419W        W 6619  11.929   5.673   6.567 -0.0242 -0.3687 -0.1349
 4420W        W 6620  30.919   5.572   5.592 -0.1069  0.0001 -0.1338
 4421W        W 6621   6.201   5.699  18.657  0.1426  0.1117 -0.2058
 4422W        W 6622  29.124   2.594  15.550  0.1301 -0.0208 -0.1047
 4423W        W 6623  25.284   3.304  18.328  0.1065 -0.0617  0.0862
 4424W        W 6624  15.000   3.153  25.842 -0.1639  0.0965 -0.0929
 4425W        W 6625   2.829   4.344  17.278 -0.1067 -0.0540 -0.0076
 4426W        W 6626  10.893   0.187   5.967  0.1830 -0.1939  0.2192
 4427W        W 6627   4.340   1.606   1.316  0.1169  0.0271 -0.0915
 4428W        W 6628  18.081   3.947   7.317  0.2621  0.1576 -0.3531
 4429W        W 6629  21.289   1.900  24.634  0.0267  0.0040  0.0314
 4430W        W 6630  20.724   6.947   2.685  0.0584  0.4391  0.0558
 4431W        W 6631  12.814   4.528   2.509 -0.1463 -0.0652  0.0089
 4432W        W 6632  29.009   3.639  25.688 -0.0366  0.0234  0.0807
 4433W        W 6633  23.172   4.002  15.862  0.1768 -0.1485 -0.0214
 4434W        W 6634   0.057   3.004   6.700 -0.0790 -0.0768  0.1527
 4435W        W 6635  20.506   5.720   4.743  0.1231 -0.0427  0.4569
 4436W        W 6636   4.733   0.237  23.754  0.1828 -0.1072  0.3917
 4437W        W 6637  20.419   3.136  15.894  0.0955  0.0661  0.1535
 4438W        W 6638  17.732   4.393   1.531  0.1874 -0.1229 -0.0068
 4439W        W 6639  12.655   3.409  23.090 -0.2536 -0.1120 -0.1234
 4440W        W 6640   9.281   0.052   8.183  0.2569  0.0783  0.1366
 4441W        W 6641  23.047   6.658   1.695 -0.0108 -0.2013  0.1200
 4442W        W 6642  28.635   3.870   8.910  0.1400  0.1140  0.2156
 4443W        W 6643   7.856   6.730   0.259 -0.0513 -0.2061  0.0465
 4444W        W 6644   4.588   1.131   6.874 -0.3139  0.4007 -0.1060
 4445W        W 6645   3.118   6.247  15.927 -0.2079  0.2378  0.2019
 4446W        W 6646   9.403   7.424   9.204 -0.0969  0.0226 -0.0833
 4447W        W 6647  21.796   0.814  23.226  0.0465  0.0539  0.0668
 4448W        W 6648   9.586   5.758   6.895  0.2424  0.2255 -0.1247
 4449W        W 6649  30.449   1.995  21.456 -0.1510  0.1065  0.0408
 4450W        W 6650  24.936   1.613   7.794 -0.1608 -0.3222 -0.0127
 4451W        W 6651  11.516   5.251   7.923 -0.0145  0.0355 -0.2454
 4452W        W 6652   2.713   2.752   0.625 -0.0428 -0.2470  0.0300
 4453W        W 6653  16.468   0.078  24.686 -0.1851 -0.0452 -0.0984
 4454W        W 6654  25.656   6.465   5.379  0.0178 -0.0948 -0.1134
 4455W        W 6655  15.201   5.931   8.242 -0.2592  0.1316  0.1599
 4456W        W 6656  29.284   4.520   4.824 -0.2138 -0.0335 -0.1403
 4457W        W 6657  15.053   6.111   1.543 -0.1068  0.0461 -0.0570
 4458W        W 6658  15.217   0.211  25.258  0.1046  0.0290  0.2674
 4459W        W 6659  19.552   6.644  21.143  0.0396  0.1324 -0.0739
 4460W        W 6660  21.517   0.018   7.613 -0.1824 -0.0779  0.1943
 4461W        W 6661   0.116   3.480  19.382 -0.2655  0.3352 -0.1378
 4462W        W 6662  14.635   1.346  23.001  0.0593  0.0496 -0.2527
 4463W        W 6663   2.554   4.318  20.581 -0.1976 -0.0245  0.0583
 4464W        W 6664   6.617   5.462  16.973  0.3281  0.1027 -0.2215
 4465W        W 6665  26.117   4.664  18.202  0.1016 -0.0392  0.2464
 4466W        W 6666  25.097   2.369  18.199 -0.1173  0.0566 -0.1216
 4467W        W 6667   8.672   6.379   1.159 -0.2565  0.0060  0.4259
 4468W        W 6668   2.236   7.009  25.758 -0.0651 -0.2364  0.3695
 4469W        W 6669   5.660   0.314  17.580 -0.0464 -0.1473 -0.1199
 4470W        W 6670   4.031   4.367   0.069 -0.0079  0.2652 -0.0008
 4471W        W 6671  21.984   5.800  25.219  0.0973 -0.0591 -0.4582
 4472W        W 6672  26.413   5.407  16.858  0.1833 -0.0263  0.0105
 4473W        W 6673  26.482   0.952   6.995  0.0854  0.0497  0.0398
 4474W        W 6674   6.378   0.937  25.798  0.0406 -0.1425 -0.0403
 4475W        W 6675   3.522   7.139   3.850 -0.4132 -0.2137 -0.0901
 4476W        W 6676  20.864   7.247   0.062 -0.2728 -0.2442  0.0232
 4477W        W 6677  19.343   5.536   5.689 -0.4214  0.3926  0.1806
 4478W        W 6678   9.422   7.198   2.854  0.2500  0.2357  0.0179
 4479W        W 6679  23.178   4.930  23.126 -0.0747  0.0840 -0.1110
 4480W        W 6680   8.202   3.436  23.418  0.2177 -0.1897 -0.1641
 4481W        W 6681  13.172   0.762   3.872  0.1035  0.3254 -0.2164
 4482W        W 6682  17.368   5.947  23.112  0.0156 -0.1078 -0.2877
 4483W        W 6683  27.972   4.638  22.377  0.2390  0.0552  0.0107
 4484W        W 6684   0.903   1.732   7.189  0.2028 -0.0026  0.1797
 4485W        W 6685  10.450   0.830  21.040 -0.2202  0.2019  0.0488
 4486W        W 6686  27.384   6.804  10.598  0.0887  0.0086  0.2409
 4487W        W 6687  27.064   1.709  22.723  0.4714  0.1847  0.2301
 4488W        W 6688  10.791   6.619  11.799  0.2753 -0.2018  0.1458
 4489W        W 6689  26.065   6.928  24.982 -0.1858  0.1930  0.1657
 4490W        W 6690  25.354   2.236   0.675  0.0890 -0.2843 -0.0970
 4491W        W 6691  27.292   1.648  15.007 -0.1611 -0.1144 -0.0464
 4492W        W 6692  19.683   5.993  16.913 -0.0237  0.3142  0.0671
 4493W        W 6693  25.199   2.977   5.872 -0.0476 -0.0300 -0.0328
 4494W        W 6694  29.839   4.069  23.850 -0.3369  0.0041 -0.0199
 4495W        W 6695   4.242   7.085  10.159 -0.2266 -0.0320  0.1761
 4496W        W 6696   1.186   6.659  23.397  0.0147  0.2149  0.0084
 4497W        W 6697  25.965   7.802   1.038 -0.0756  0.0424 -0.0872
 4498W        W 6698  13.502   2.208   9.529 -0.0299 -0.0412  0.0842
 4499W        W 6699  24.709   0.533   1.426 -0.1351  0.1819 -0.1362
 4500W        W 6700  18.821   4.244  17.610 -0.1688  0.1828  0.2042
 4501W        W 6701   5.620   6.868   5.968 -0.3649 -0.1523  0.0040
 4502W        W 6702   8.051   0.513   9.108  0.2200 -0.2995 -0.0216
 4503W        W 6703  13.957   4.718  21.487  0.0118 -0.0085 -0.0702
 4504W        W 6704  14.500   4.590   2.221 -0.1501  0.0883 -0.0219
 4505W        W 6705  18.640   6.994  25.190 -0.0331 -0.2970  0.1526
 4506W        W 6706  12.374   7.812   9.293  0.4689 -0.1026 -0.1729
 4507W        W 6707   6.832   0.092  15.219 -0.2654 -0.0823 -0.2128
 4508W        W 6708   2.792   7.114   1.614 -0.3231 -0.0513  0.2005
 4509W        W 6709  27.304   6.204   5.664  0.0828 -0.2923  0.1431
 4510W        W 6710  23.868   1.259   5.505 -0.1624 -0.2746  0.2104
 4511W        W 6711  24.110   5.987   8.500 -0.2306  0.0300 -0.1040
 4512W        W 6712  11.264   7.585  19.884 -0.1044  0.0248  0.4295
 4513W        W 6713  26.097   0.105   4.828  0.1883  0.0428  0.3186
 4514W        W 6714  16.599   6.175   4.149  0.0642 -0.1831  0.0781
 4515W        W 6715   1.435   5.459  20.589  0.0357  0.0842 -0.0343
 4516W        W 6716   8.673   6.015   8.860  0.3596 -0.3108  0.0120
 4517W        W 6717  30.228   2.031  24.981 -0.1418 -0.1274  0.0044
 4518W        W 6718  18.296   3.140  21.760  0.1276  0.1909  0.3485
 4519W        W 6719   4.866   0.285   3.742  0.0517 -0.1609 -0.0928
 4520W        W 6720  20.456   7.859   0.717 -0.0157  0.1035 -0.1122
 4521W        W 6721  27.282   3.811  17.570  0.0649 -0.1150  0.0372
 4522W        W 6722   1.243   7.371   2.884 -0.1835  0.0853  0.2283
 4523W        W 6723  14.839   7.715   0.194 -0.3805 -0.1137  0.0564
 4524W        W 6724  14.048   6.030   8.682 -0.0212 -0.0606  0.1739
 4525W        W 6725  15.464   3.979  20.658 -0.0924 -0.1538  0.4507
 4526W        W 6726  24.065   7.418   2.390 -0.0762 -0.2559  0.0117
 4527W        W 6727   3.858   5.495  16.457  0.2206 -0.0534 -0.0602
 4528W        W 6728  22.022   2.085  22.920  0.2416 -0.0023  0.0566
 4529W        W 6729  16.498   3.895   7.266  0.0509 -0.0418  0.1165
 4530W        W 6730   6.571   7.454  24.096  0.1531  0.0318  0.1079
 4531W        W 6731   9.611   1.664   4.334  0.3313  0.1328  0.0479
 4532W        W 6732  28.166   4.009  18.760 -0.0382 -0.5428  0.0353
 4533W        W 6733   8.384   1.712  24.722 -0.1069  0.1676  0.0506
 4534W        W 6734  19.708   4.570   0.700 -0.0509  0.2024 -0.0872
 4535W        W 6735  27.975   5.114  23.797  0.0259  0.0321  0.1510
 4536W        W 6736  24.709   1.896  19.125 -0.0775 -0.2824 -0.0851
 4537W        W 6737  16.152   3.534  17.078 -0.0839 -0.1816  0.3066
 4538W        W 6738   3.443   3.712  17.413 -0.0873 -0.0491 -0.2058
 4539W        W 6739  27.193   7.061   1.693  0.1343 -0.2683  0.1958
 4540W        W 6740  14.754   4.498   3.262  0.2567 -0.0808 -0.1118
 4541W        W 6741  19.997   3.990   8.529 -0.1783 -0.0894  0.3361
 4542W        W 6742  30.657   4.797  24.143  0.3421 -0.1973 -0.1583
 4543W        W 6743  24.590   6.526   3.502 -0.1323  0.2062  0.0571
 4544W        W 6744  26.527   7.145  22.389  0.2129 -0.0230  0.1681
 4545W        W 6745   7.056   2.652  21.966 -0.2644 -0.1775  0.0388
 4546W        W 6746  29.026   7.485  22.331 -0.0699  0.0261 -0.0733
 4547W        W 6747   7.900   0.301   6.839  0.1526 -0.0946  0.3356
 4548W        W 6748   6.209   5.616  10.242  0.0858 -0.2992  0.1350
 4549W        W 6749  19.309   1.400   7.990  0.1022 -0.2658 -0.2902
 4550W        W 6750  24.958   4.916   4.734 -0.0662  0.1600  0.0377
 4551W        W 6751  12.199   0.090  23.808  0.0840 -0.2046  0.0610
 4552W        W 6752  27.633   6.736   7.845  0.0436  0.0949  0.1577
 4553W        W 6753  18.747   6.243   5.149 -0.0098 -0.1141  0.0002
 4554W        W 6754  25.942   0.626  18.938  0.0083 -0.1206  0.2126
 4555W        W 6755  30.902   6.139  20.189 -0.1786  0.0526  0.0850
 4556W        W 6756  21.112   0.768   7.302  0.2107  0.3653 -0.2445
 4557W        W 6757  10.145   3.593   6.242 -0.1594 -0.0998 -0.1000
 4558W        W 6758  15.186   3.210  16.936 -0.2855 -0.1631 -0.0089
 4559W        W 6759   6.670   2.490  18.399  0.0724  0.0165  0.0913
 4560W        W 6760   0.903   7.028  16.343 -0.0843  0.0235  0.1080
 4561W        W 6761   6.533   1.065  21.674  0.4705 -0.2042  0.0011
 4562W        W 6762  12.667   4.686  17.957  0.1869  0.0381  0.0185
 4563W        W 6763  25.527   1.107   3.337  0.2458 -0.1162 -0.0360
 4564W        W 6764   6.320   6.073   1.078  0.0976 -0.1019 -0.0041
 4565W        W 6765  23.713   0.920   3.732 -0.5245 -0.0401  0.0645
 4566W        W 6766  20.093   4.430  10.535  0.1733  0.3059  0.2772
 4567W        W 6767   5.392   7.081  16.094  0.0159 -0.2211 -0.2228
 4568W        W 6768  13.572   5.180  15.748  0.0891  0.0487  0.1836
 4569W        W 6769   9.753   2.654   8.572 -0.1273 -0.0301 -0.1661
 4570W        W 6770  12.311   7.758   6.176 -0.1697 -0.0115  0.1391
 4571W        W 6771   4.347   5.322  20.539 -0.1468  0.0293  0.2833
 4572W        W 6772   6.038   2.176  25.615  0.1815 -0.1540 -0.0942
 4573W        W 6773   4.004   6.791   3.533  0.1707 -0.1709  0.0289
 4574W        W 6774   9.867   0.050   5.365 -0.0221  0.2524  0.2816
 4575W        W 6775  13.709   2.924   3.514  0.0235 -0.0091 -0.3069
 4576W        W 6776   4.056   4.811  21.619 -0.2677 -0.1582 -0.1470
 4577W        W 6777  25.989   6.229  15.330  0.0274 -0.2484  0.1173
 4578W        W 6778   5.607   4.789  17.548  0.0891 -0.1737  0.1083
 4579W        W 6779  13.509   6.027   4.562 -0.1551 -0.1916 -0.0437
 4580W        W 6780  14.366   4.802  22.421 -0.0442 -0.0196 -0.1290
 4581W        W 6781   2.835   6.659   8.965 -0.0407 -0.0485 -0.1291
 4582W        W 6782  11.370   6.828  18.792 -0.0374  0.0246 -0.1016
 4583W        W 6783   6.811   6.355  18.666 -0.3065  0.1311 -0.1881
 4584W        W 6784   4.381   3.474  17.466  0.0361  0.1051  0.2446
 4585W        W 6785  26.031   6.052   3.856  0.1516 -0.2199  0.2254
 4586W        W 6786  25.843   6.526   1.963  0.0971  0.2829 -0.0587
 4587W        W 6787  25.271   0.295   1.678  0.0751 -0.0153  0.0015
 4588W        W 6788  18.831   2.435  22.115 -0.0375  0.0653 -0.2073
 4589W        W 6789  23.493   4.880   7.983  0.0901  0.1366  0.1825
 4590W        W 6790  28.938   2.514  20.716  0.0508 -0.0317  0.0643
 4591W        W 6791  23.173   5.994   6.596  0.2660  0.1547  0.1667
 4592W        W 6792  21.976   2.378  15.288 -0.3468 -0.0553 -0.3064
 4593W        W 6793  23.266   3.775  21.052  0.0139 -0.0974  0.0110
 4594W        W 6794   8.908   4.079  16.534 -0.0596 -0.0437 -0.2467
 4595W        W 6795   0.959   6.714  16.012 -0.2592  0.1046  0.1679
 4596W        W 6796   4.602   1.995  21.202  0.3432  0.0847  0.2927
 4597W        W 6797   3.714   5.319  18.201 -0.1183  0.1802 -0.0465
 4598W        W 6798  14.228   1.058   5.446 -0.0082 -0.1623 -0.2570
 4599W        W 6799  18.535   0.165  14.918 -0.1113 -0.0626  0.1886
 4600W        W 6800  13.385   6.847  18.013 -0.3070 -0.3213 -0.0284
 4601W        W 6801  13.082   1.975   0.853 -0.2773  0.3595  0.1875
 4602W        W 6802  10.810   0.174   5.464 -0.1049  0.3820  0.0751
 4603W        W 6803  30.058   7.092  17.113  0.0315  0.0943  0.1627
 4604W        W 6804  18.436   4.717  22.995  0.0264 -0.1916  0.0552
 4605W        W 6805  13.604   1.465   1.878  0.1475  0.1985  0.1733
 4606W        W 6806  26.322   6.371  25.210  0.1458 -0.1897 -0.1874
 4607W        W 6807   1.863   3.979  10.681  0.4802  0.0075 -0.2706
 4608W        W 6808  24.497   7.255   5.656  0.1525 -0.1868 -0.1084
 4609W        W 6809  23.351   7.810   9.210 -0.0858  0.1702  0.0425
 4610W        W 6810   6.863   4.866  19.003  0.1075  0.1493 -0.0015
 4611W        W 6811   5.700   6.048  17.884  0.1293  0.0139 -0.0908
 4612W        W 6812  14.525   5.416   5.339  0.3856  0.2551 -0.1509
 4613W        W 6813   7.960   3.783   9.149  0.2991  0.1989 -0.1952
 4614W        W 6814  25.490   1.598  19.880 -0.1669  0.0008  0.1662
 4615W        W 6815   5.881   0.342   9.900  0.0347  0.2089 -0.3069
 4616W        W 6816  31.238   0.464  14.987  0.0543 -0.3443 -0.0083
 4617W        W 6817  26.721   7.030   1.917 -0.1433 -0.3428  0.0317
 4618W        W 6818   5.424   1.195  19.992 -0.2024 -0.0491 -0.0892
 4619W        W 6819  21.311   7.628   6.776 -0.0478  0.0352  0.0147
 4620W        W 6820   9.744   1.323  19.461 -0.2142 -0.0069  0.2021
 4621W        W 6821  21.252   3.653   6.770  0.2876 -0.3075  0.0358
 4622W        W 6822  25.619   2.028   0.286  0.1831  0.3075  0.2629
 4623W        W 6823  11.988   4.417  24.360 -0.1136  0.2538 -0.0011
 4624W        W 6824  21.553   0.792   3.456  0.1007 -0.2496  0.1958
 4625W        W 6825   8.054   6.879  16.048  0.0254  0.2268 -0.3252
 4626W        W 6826  26.518   1.960   9.324  0.1595  0.2007 -0.0779
 4627W        W 6827  28.607   4.895  21.028 -0.3969 -0.0895  0.0000
 4628W        W 6828  17.237   2.298   6.301 -0.2171 -0.0855  0.2172
 4629W        W 6829   1.599   2.477  17.948 -0.2539 -0.1230 -0.0498
 4630W        W 6830   3.508   0.183  17.174 -0.0252  0.1907 -0.1847
 4631W        W 6831  17.132   7.001   3.213  0.0314  0.2460 -0.0460
 4632W        W 6832  20.617   7.710  22.147  0.2775 -0.2802 -0.1941
 4633W        W 6833   5.838   5.981  10.346  0.2256  0.0743  0.3201
 4634W        W 6834  22.502   4.278  20.421  0.2301  0.1995 -0.3891
 4635W        W 6835  25.948   2.032  17.419 -0.3216  0.2183 -0.1704
 4636W        W 6836   0.245   7.701   8.071 -0.1003 -0.2267 -0.0434
 4637W        W 6837  21.485   1.662  22.263 -0.2323 -0.1604 -0.0379
 4638W        W 6838   2.264   3.302   8.513 -0.1846 -0.2200  0.2111
 4639W        W 6839   0.555   3.007  15.573  0.0876 -0.1416 -0.1729
 4640W        W 6840  10.220   0.670   6.745 -0.0404  0.0365  0.0364
 4641W        W 6841  27.760   1.534   0.464  0.1074  0.1765  0.0507
 4642W        W 6842  11.048   3.031   1.222 -0.1849  0.2113 -0.2021
 4643W        W 6843  30.594   3.197   6.063 -0.0140  0.0691 -0.0627
 4644W        W 6844   8.438   6.885  19.049 -0.2175 -0.0201 -0.1566
 4645W        W 6845  24.734   0.093   5.148  0.1317  0.1621 -0.0762
 4646W        W 6846  11.081   1.806   0.704  0.1201 -0.1248  0.0973
 4647W        W 6847   8.672   1.459  16.045  0.0582 -0.1544  0.0906
 4648W        W 6848  26.784   5.207  24.885  0.1306  0.2483  0.0656
 4649W        W 6849  16.912   0.370   8.930  0.0553  0.0259 -0.2711
 4650W        W 6850  15.933   5.314  18.970  0.1560  0.3615 -0.0318
 4651W        W 6851  31.036   1.855  24.482  0.2078 -0.0200 -0.0251
 4652W        W 6852  19.708   0.114  11.194  0.2365 -0.1854  0.1113
 4653W        W 6853  14.046   1.624   7.455 -0.2276 -0.1667  0.2199
 4654W        W 6854  18.845   5.892  22.355 -0.0225  0.1266  0.1034
 4655W        W 6855   0.253   5.510   2.819 -0.0351 -0.0147  0.1514
 4656W        W 6856   8.687   7.222   1.773 -0.4313  0.3184  0.0353
 4657W        W 6857  22.282   2.099   9.639  0.0190 -0.3697  0.2339
 4658W        W 6858   8.864   0.868  15.459 -0.0296 -0.2782 -0.2937
 4659W        W 6859  11.693   0.348  18.360  0.1968  0.0971 -0.1723
 4660W        W 6860  26.705   5.846  17.784 -0.0980  0.1748 -0.0761
 4661W        W 6861  18.632   1.396   7.788  0.2526 -0.1477 -0.2705
 4662W        W 6862  19.182   3.227  25.751 -0.1770  0.3195 -0.2288
 4663W        W 6863  21.031   7.463   4.758  0.2416 -0.3260  0.1239
 4664W        W 6864  27.592   5.731  14.992 -0.1408 -0.5180 -0.0800
 4665W        W 6865   9.013   2.368   4.324 -0.0907  0.1049 -0.4563
 4666W        W 6866  29.796   7.296  15.323  0.2390  0.0583 -0.1124
 4667W        W 6867  11.742   7.426  17.413  0.2898 -0.1626  0.0182
 4668W        W 6868  19.921   3.785   9.022 -0.0119  0.0076  0.0417
 4669W        W 6869   9.511   1.913   9.285 -0.2231 -0.2097 -0.3800
 4670W        W 6870   4.151   0.720  19.759  0.1256  0.2501 -0.0417
 4671W        W 6871  23.107   2.813  20.140 -0.0364  0.2517 -0.1133
 4672W        W 6872   0.081   0.378  22.500  0.2204 -0.2927  0.4493
 4673W        W 6873  26.616   2.643   5.863  0.0302  0.2623  0.1219
 4674W        W 6874  23.232   0.372  10.773 -0.2127  0.0211 -0.2625
 4675W        W 6875  16.477   2.884   2.654 -0.0830  0.1802  0.0561
 4676W        W 6876  12.238   2.509   0.503  0.3477 -0.2165  0.3564
 4677W        W 6877  21.834   6.197  22.596  0.1198  0.0369  0.0273
 4678W        W 6878  13.571   2.309   7.578 -0.0441 -0.1176 -0.2010
 4679W        W 6879  26.439   0.022  15.703  0.0951  0.0786 -0.1321
 4680W        W 6880  30.333   3.227  20.048 -0.2705  0.0625 -0.0640
 4681W        W 6881  17.320   6.745  22.457  0.0416  0.0387 -0.0871
 4682W        W 6882   4.231   4.222  10.697  0.4792  0.1800 -0.0202
 4683W        W 6883  27.516   7.018  21.241 -0.4388 -0.1244 -0.3189
 4684W        W 6884  31.368   4.694   9.424 -0.2432 -0.0015 -0.0329
 4685W        W 6885  27.834   0.051  15.578 -0.3380  0.0572  0.1219
 4686W        W 6886  11.897   1.275  25.597  0.2298  0.0993  0.0965
 4687W        W 6887  18.668   1.323   4.038 -0.0974 -0.0868 -0.1647
 4688W        W 6888  16.843   3.835  23.836 -0.1176  0.3437 -0.2364
 4689W        W 6889   6.206   7.133   7.141 -0.2053  0.3997  0.0256
 4690W        W 6890   6.809   5.932   4.005  0.0318 -0.0014 -0.0726
 4691W        W 6891  21.234   1.823  21.263 -0.0530  0.1865 -0.0063
 4692W        W 6892   3.377   2.672   6.015  0.0927  0.4849  0.3016
 4693W        W 6893   3.955   0.716   1.307 -0.0750 -0.1719  0.1556
 4694W        W 6894  16.390   3.415   7.253 -0.1292  0.1181  0.0826
 4695W        W 6895   9.711   0.317  16.387 -0.4956 -0.0470 -0.0654
 4696W        W 6896  25.726   3.664   4.717  0.1254  0.0279 -0.0657
 4697W        W 6897  26.717   4.213   6.783  0.0958 -0.0547  0.0662
 4698W        W 6898  30.630   6.454   5.314 -0.2056 -0.1632  0.0647
 4699W        W 6899   8.341   2.860   3.132 -0.0734  0.0818  0.1053
 4700W        W 6900  23.759   1.497   6.939 -0.1753  0.1975 -0.0778
 4701W        W 6901  20.409   3.901   8.865  0.0083  0.1975 -0.2944
 4702W        W 6902  11.249   5.640  19.765 -0.0400  0.3359  0.0195
 4703W        W 6903  27.572   2.297  19.393  0.1292 -0.3606  0.0139
 4704W        W 6904   5.567   5.159  21.223 -0.0665  0.3427 -0.1082
 4705W        W 6905  19.513   0.271  24.265  0.0894  0.1461 -0.0510
 4706W        W 6906   9.082   0.368   2.005 -0.1774  0.1078  0.0361
 4707W        W 6907  24.995   2.782   8.936  0.1919  0.1362 -0.1597
 4708W        W 6908  26.487   3.306  22.935 -0.0158 -0.0849 -0.0259
 4709W        W 6909  12.110   1.586  22.663  0.2062 -0.3267  0.1403
 4710W        W 6910  14.829   0.619  20.584  0.0650  0.2184 -0.1076
 4711W        W 6911  10.736   3.055  10.523 -0.0048 -0.0407 -0.1492
 4712W        W 6912  20.848   5.695  16.242 -0.2697  0.0524  0.1707
 4713W        W 6913   4.519   6.030   4.418 -0.0580  0.2940  0.0051
 4714W        W 6914  17.798   5.580   1.835  0.0376 -0.2228 -0.2859
 4715W        W 6915  17.797   6.583   6.317 -0.2069 -0.1714 -0.1813
 4716W        W 6916   1.484   1.244   6.136 -0.0112 -0.0402 -0.1176
 4717W        W 6917  16.617   3.603  17.778  0.2027 -0.0666 -0.0865
 4718W        W 6918  15.457   1.952   0.655  0.1716 -0.2005  0.2126
 4719W        W 6919  13.295   1.382  20.079  0.2010 -0.0951 -0.2767
 4720W        W 6920  15.522   2.707   6.620 -0.2158  0.0369 -0.0488
 4721W        W 6921   4.141   0.978  23.298  0.1691 -0.0102 -0.2182
 4722W        W 6922  21.788   5.787   8.019  0.1107  0.0053 -0.0346
 4723W        W 6923  29.132   4.913   3.509 -0.2215  0.3905  0.3502
 4724W        W 6924  14.085   5.783   6.170  0.0210  0.0398 -0.1452
 4725W        W 6925  18.439   0.295   3.402 -0.0273 -0.0408  0.0577
 4726W        W 6926  22.393   7.530   9.042 -0.1688  0.1936  0.0040
 4727W        W 6927   4.945   1.671   2.687 -0.2360 -0.2260 -0.0371
 4728W        W 6928   6.277   2.386   5.254  0.2298  0.1604  0.0045
 4729W        W 6929  24.335   6.262  10.862 -0.0062  0.2285  0.0344
 4730W        W 6930  25.682   6.125  20.775  0.0856  0.2075 -0.2681
 4731W        W 6931  19.789   3.914  21.255 -0.0537  0.1756 -0.2487
 4732W        W 6932  14.265   2.073  20.164  0.0235  0.1867 -0.1385
 4733W        W 6933   3.907   7.256  16.928  0.0682 -0.0245 -0.3230
 4734W        W 6934  25.618   7.497   4.137 -0.3289  0.0536  0.0827
 4735W        W 6935   0.822   5.511   4.470 -0.2998  0.1320 -0.3525
 4736W        W 6936   6.111   1.720   2.742  0.0162  0.0065  0.3810
 4737W        W 6937  23.213   3.505  25.360  0.3511  0.1452  0.0542
 4738W        W 6938  17.566   5.806  22.112  0.0116  0.1085 -0.1937
 4739W        W 6939  13.228   0.949  17.128 -0.1052  0.0119  0.0927
 4740W        W 6940  27.008   3.054  21.807 -0.0249  0.4377  0.2765
 4741W        W 6941  23.068   1.997  18.230 -0.3257 -0.0025 -0.0428
 4742W        W 6942  24.583   3.486  23.376 -0.2689  0.1527  0.0387
 4743W        W 6943   7.389   0.917  25.434 -0.0293 -0.1216  0.0235
 4744W        W 6944  20.028   2.836   9.812 -0.0490 -0.1861  0.1780
 4745W        W 6945  11.322   1.228  21.586  0.2068 -0.1077  0.1335
 4746W        W 6946  22.424   5.482  22.831  0.1607  0.1299  0.3497
 4747W        W 6947   2.821   2.693  25.077 -0.2922 -0.0497 -0.1480
 4748W        W 6948  31.237   2.168   0.421  0.2138 -0.0325 -0.0156
 4749W        W 6949  15.745   4.008  19.240 -0.1595  0.0835  0.1890
 4750W        W 6950  24.640   0.137  10.521  0.1759  0.1911 -0.1081
 4751W        W 6951   7.928   6.616  18.824 -0.0686 -0.0296  0.1917
 4752W        W 6952  10.433   3.368   7.692  0.2464  0.2666  0.0223
 4753W        W 6953   0.969   6.934   2.783  0.2764  0.1495  0.0235
 4754W        W 6954  15.940   3.313  16.164 -0.0647  0.1019  0.1233
 4755W        W 6955  28.822   3.968   0.450 -0.1692  0.3607  0.2445
 4756W        W 6956   9.128   1.936  17.924  0.0029  0.1579  0.0626
 4757W        W 6957  16.365   6.755   2.510  0.0432 -0.1586 -0.0322
 4758W        W 6958  30.884   3.249   7.543 -0.0138  0.6044 -0.1899
 4759W        W 6959  10.727   2.168  24.828  0.1790  0.2211 -0.2192
 4760W        W 6960   7.395   1.453   0.428  0.3409 -0.2983  0.0235
 4761W        W 6961  11.295   3.754   8.848  0.0406  0.1807 -0.2783
 4762W        W 6962   8.783   7.487   0.755 -0.0685 -0.0017  0.1402
 4763W        W 6963  28.879   7.758  19.099  0.0497 -0.1909  0.0321
 4764W        W 6964  11.202   0.056   8.518 -0.0343  0.0268  0.2817
 4765W        W 6965  18.473   6.778   2.190  0.2383  0.0778 -0.1256
 4766W        W 6966  21.824   2.571  10.808 -0.2428 -0.0680  0.2338
 4767W        W 6967  22.756   5.749  10.127 -0.3786 -0.0079 -0.1534
 4768W        W 6968  22.699   0.278  20.589 -0.0881 -0.2147 -0.2950
 4769W        W 6969  14.001   1.502   9.253  0.0805  0.0877 -0.0681
 4770W        W 6970  28.845   3.863   4.171 -0.1073  0.0698  0.0012
 4771W        W 6971  24.923   5.252   3.433 -0.1466  0.1882 -0.0626
 4772W        W 6972   7.009   5.638  17.462  0.1354 -0.0553  0.1273
 4773W        W 6973   4.501   0.858  25.933  0.0442 -0.2810 -0.1039
 4774W        W 6974  12.666   6.687   0.440  0.0857 -0.0702 -0.1813
 4775W        W 6975  11.121   0.984  18.772  0.0413 -0.0913 -0.0724
 4776W        W 6976   8.883   6.234  25.420 -0.0169 -0.1475  0.1833
 4777W        W 6977   0.711   1.221   2.182 -0.4324  0.0624 -0.0881
 4778W        W 6978   5.365   1.609  22.385  0.1224  0.1374  0.0456
 4779W        W 6979   2.856   3.139   2.904  0.0379 -0.1906 -0.1419
 4780W        W 6980   9.695   3.505  21.124 -0.0970 -0.1092  0.0722
 4781W        W 6981  22.629   6.111  17.911  0.0215  0.2517 -0.1206
 4782W        W 6982   6.331   1.987  22.419 -0.1216 -0.0077 -0.0748
 4783W        W 6983  22.646   3.736  16.866 -0.1630 -0.0653 -0.0316
 4784W        W 6984  10.688   1.244   2.779  0.0769  0.0398  0.1426
 4785W        W 6985  15.822   2.208  17.446  0.0838  0.0252 -0.1574
 4786W        W 6986   9.510   1.802  21.152 -0.0686 -0.0929  0.0504
 4787W        W 6987  31.334   7.409  22.130  0.2384 -0.0707  0.0862
 4788W        W 6988   7.329   2.864   1.158  0.3853 -0.0502 -0.3300
 4789W        W 6989  12.485   0.249   1.519 -0.1309 -0.1342 -0.0593
 4790W        W 6990  18.705   3.151  24.744  0.1675 -0.1468 -0.2024
 4791W        W 6991   7.241   2.379   6.978 -0.2352  0.1089 -0.0284
 4792W        W 6992  18.401   4.651   3.156  0.2041 -0.1236 -0.0728
 4793W        W 6993   2.947   4.570   1.107 -0.3038  0.0853 -0.1088
 4794W        W 6994   3.216   0.561   2.306  0.1569 -0.0254  0.0283
 4795W        W 6995  15.510   4.978   8.724 -0.0539 -0.0466  0.0854
 4796W        W 6996   2.616   4.714  24.426 -0.3763  0.5484  0.0677
 4797W        W 6997  16.105   5.625   8.557  0.1398 -0.0726 -0.0087
 4798W        W 6998  19.596   3.030  16.998 -0.0765 -0.0840 -0.2960
 4799W        W 6999   8.867   5.778  15.625  0.1445 -0.1013 -0.3623
 4800W        W 7000  15.898   3.285  21.036  0.1072  0.1376  0.0646
 4801W        W 7001  12.354   6.909   3.907  0.1041 -0.3799  0.3548
 4802W        W 7002   2.758   7.232  22.765  0.5029  0.0543  0.3800
 4803W        W 7003   8.730   7.689  24.491 -0.0370  0.3703 -0.0802
 4804W        W 7004  27.428   2.633   3.788  0.1272 -0.0183  0.1903
 4805W        W 7005  31.345   4.288   8.256  0.2984  0.2027  0.2530
 4806W        W 7006  21.415   3.914  20.246  0.0010 -0.1103  0.1774
 4807W        W 7007   2.098   1.966   9.062  0.2187  0.2549  0.0144
 4808W        W 7008  26.865   4.118  24.905  0.3271  0.2134  0.1545
 4809W        W 7009   0.930   7.715  15.137 -0.1431  0.1033 -0.0044
 4810W        W 7010  11.848   0.534  25.300 -0.3126 -0.2658  0.0701
 4811W        W 7011  11.298   6.748  25.561  0.2262  0.0414 -0.3023
 4812W        W 7012   1.287   7.018  16.695 -0.1300 -0.0323 -0.1222
 4813W        W 7013   2.611   2.453  20.144 -0.0194  0.0291  0.0788
 4814W        W 7014  16.732   3.974  17.282 -0.1136  0.2949  0.1794
 4815W        W 7015  13.095   5.795  18.076 -0.0710  0.1443  0.2968
 4816W        W 7016  30.552   1.289  17.987 -0.1919  0.1042  0.0265
 4817W        W 7017   7.999   6.774  19.299  0.1674  0.0966 -0.0675
 4818W        W 7018   3.416   0.910   5.379  0.0955  0.1161 -0.0482
 4819W        W 7019  28.897   5.330   9.437  0.0530  0.1273  0.1361
 4820W        W 7020  29.136   4.846   1.806  0.4409  0.2379  0.2387
 4821W        W 7021  20.882   6.906  17.856 -0.1005  0.0139  0.3276
 4822W        W 7022  15.784   2.660  16.627  0.1727 -0.0616  0.1799
 4823W        W 7023   0.553   4.889   6.906  0.0441  0.0702  0.2106
 4824W        W 7024   2.414   6.944  17.554 -0.1402  0.0169 -0.1196
 4825W        W 7025  11.859   1.957   8.538 -0.2274  0.3749 -0.0402
 4826W        W 7026  24.681   1.694   8.240  0.0174  0.3429 -0.1095
 4827W        W 7027  19.715   7.133  24.610  0.1494  0.2277  0.0474
 4828W        W 7028  27.899   4.048   2.043 -0.2055 -0.0432 -0.1160
 4829W        W 7029   8.503   0.407   9.428 -0.0316 -0.2123 -0.1739
 4830W        W 7030   1.871   4.260   6.735  0.0488  0.1175 -0.0880
 4831W        W 7031  17.401   6.661   2.882 -0.0830  0.0258  0.1111
 4832W        W 7032   4.286   6.071   5.292  0.0530  0.1987 -0.2606
 4833W        W 7033  13.023   1.535   6.673 -0.2744  0.0782 -0.4882
 4834W        W 7034   6.527   7.728  19.677  0.0764 -0.0799  0.2211
 4835W        W 7035  12.610   0.212   9.680  0.3813  0.0785  0.1302
 4836W        W 7036  10.013   6.245  17.129 -0.2775  0.3012  0.3124
 4837W        W 7037  29.626   3.261  21.147 -0.0170 -0.3551 -0.2525
 4838W        W 7038  15.317   5.026   4.002  0.1907  0.0088  0.2644
 4839W        W 7039  14.843   5.235   0.995  0.2010 -0.0295 -0.0684
 4840W        W 7040  11.505   0.833  17.740 -0.0950 -0.0252  0.1763
 4841W        W 7041  11.177   0.110   1.091  0.0546 -0.3121 -0.1578
 4842W        W 7042  27.978   4.157   4.692 -0.0201  0.1566 -0.0472
 4843W        W 7043  18.418   6.963  23.336 -0.0970  0.1938  0.0842
 4844W        W 7044  27.843   3.026  16.909  0.0616 -0.0704 -0.0257
 4845W        W 7045   8.011   3.933  15.101  0.0387  0.0110  0.2718
 4846W        W 7046  13.970   2.289   1.836 -0.2171 -0.0563  0.1471
 4847W        W 7047  14.323   1.163  21.346 -0.0605  0.0058 -0.2864
 4848W        W 7048  19.088   0.617   6.854  0.1657 -0.0791 -0.0029
 4849W        W 7049  14.496   2.087   8.727  0.0793 -0.0062  0.0787
 4850W        W 7050  17.579   3.660  22.397  0.3128 -0.1049 -0.0339
 4851W        W 7051  25.066   1.348   0.326  0.2078 -0.1000 -0.0564
 4852W        W 7052  25.264   6.780  10.951  0.2052 -0.1738 -0.1202
 4853W        W 7053   9.470   1.487   7.773  0.0699  0.3081 -0.3279
 4854W        W 7054  14.704   3.986  18.458 -0.0219 -0.1132  0.1682
 4855W        W 7055  30.023   1.698  10.046  0.0887 -0.0024 -0.0120
 4856W        W 7056  10.464   6.244  10.982  0.0735 -0.0467  0.0846
 4857W        W 7057  20.865   1.059  10.129 -0.1552  0.3272  0.0412
 4858W        W 7058  25.060   3.585  10.030 -0.2265  0.3320 -0.0559
 4859W        W 7059  10.207   0.351  16.505 -0.5482 -0.1096 -0.0358
 4860W        W 7060   9.368   6.907  15.604 -0.1200 -0.0660  0.1167
 4861W        W 7061   5.324   6.143   5.504 -0.0111 -0.0837 -0.2247
 4862W        W 7062  29.529   0.413  16.502 -0.0678  0.2207 -0.0051
 4863W        W 7063  21.698   1.537   3.717  0.2177 -0.0635 -0.0248
 4864W        W 7064   2.076   5.175  16.826 -0.4181  0.2109  0.1890
 4865W        W 7065  15.562   1.524   3.739 -0.1130 -0.2548  0.3392
 4866W        W 7066  23.023   1.622  25.053 -0.0252 -0.2926  0.1745
 4867W        W 7067  29.040   4.655  25.784 -0.0837 -0.3336  0.1819
 4868W        W 7068   8.622   0.240   4.184 -0.0073 -0.0256 -0.1318
 4869W        W 7069  10.543   4.691  25.428 -0.0337 -0.1609 -0.0225
 4870W        W 7070  28.470   4.789  22.699 -0.0847  0.2489 -0.0448
 4871W        W 7071  24.919   3.863  23.287 -0.0014 -0.0803 -0.1002
 4872W        W 7072  21.234   3.444  10.415  0.0064  0.0733  0.1508
 4873W        W 7073   4.899   5.507   2.438  0.1052  0.2502  0.2011
 4874W        W 7074  31.166   5.853  15.210 -0.1234  0.2006  0.4299
 4875W        W 7075  10.580   4.751   1.857 -0.3288  0.0825 -0.1391
 4876W        W 7076   9.250   5.564  10.768  0.0463 -0.1581  0.3886
 4877W        W 7077  26.082   1.888   7.161 -0.0531  0.0317  0.2930
 4878W        W 7078  15.879   0.931   8.893  0.2533  0.0235  0.1099
 4879W        W 7079   2.088   5.786   8.784  0.1248  0.4179  0.4169
 4880W        W 7080  24.678   2.217  15.487 -0.1508 -0.0200  0.1529
 4881W        W 7081   2.894   3.312   7.745  0.2630  0.1447 -0.1171
 4882W        W 7082  17.771   7.702  23.771  0.1973 -0.1061 -0.5950
 4883W        W 7083  10.029   0.703  19.051 -0.1414 -0.3468  0.3763
 4884W        W 7084  29.287   2.555   9.896 -0.2523  0.0675  0.0804
 4885W        W 7085  15.453   2.319  10.761 -0.0053 -0.1685  0.0592
 4886W        W 7086  17.081   5.915   3.218  0.1696  0.1122 -0.0644
 4887W        W 7087   8.307   0.448   4.960  0.0251 -0.0154 -0.0325
 4888W        W 7088  18.931   0.579  17.238 -0.1044  0.0084  0.0414
 4889W        W 7089  26.979   3.883  22.019 -0.0165  0.3744  0.2259
 4890W        W 7090  25.334   4.584   6.461 -0.1793  0.0912 -0.0234
 4891W        W 7091  14.943   4.976   7.168  0.1168  0.0815 -0.2367
 4892W        W 7092  13.692   7.399  18.922 -0.0509 -0.1886  0.2925
 4893W        W 7093  16.788   2.913   1.620 -0.0806 -0.0718 -0.0895
 4894W        W 7094  10.934   2.079   3.405 -0.1010 -0.0777  0.0588
 4895W        W 7095  31.293   7.490  25.576  0.2934 -0.3215  0.2563
 4896W        W 7096  27.523   7.338  24.162 -0.1398  0.1724 -0.2685
 4897W        W 7097  26.992   5.853  10.663  0.3480 -0.3175 -0.1885
 4898W        W 7098  24.483   5.628  11.309  0.0160  0.1883  0.0931
 4899W        W 7099  19.984   2.572  17.346  0.0998  0.0908 -0.2697
 4900W        W 7100  10.990   4.445   6.662 -0.3144 -0.2574  0.2066
 4901W        W 7101  29.154   5.876  10.685  0.0047 -0.0386 -0.2142
 4902W        W 7102  28.547   0.929  17.556 -0.1285 -0.1542  0.2099
 4903W        W 7103   1.975   4.290  25.567  0.3684 -0.0780  0.0533
 4904W        W 7104  10.365   4.602  19.230  0.2817  0.0444  0.1971
 4905W        W 7105  25.694   2.714  22.132 -0.0325  0.0964  0.1165
 4906W        W 7106   0.365   7.668  15.913 -0.0283  0.0090 -0.1036
 4907W        W 7107   6.448   0.886  20.833  0.3271  0.2071  0.0068
 4908W        W 7108  25.749   0.605  20.554  0.0247  0.0415  0.0433
 4909W        W 7109   6.536   7.354  18.057 -0.0772  0.1083 -0.1802
 4910W        W 7110  31.111   5.912   0.867  0.1405 -0.0690 -0.0266
 4911W        W 7111  13.062   3.005   7.037 -0.1692 -0.0659 -0.0555
 4912W        W 7112  16.708   0.374  16.783 -0.0104  0.2814 -0.1140
 4913W        W 7113  14.734   3.594   9.920  0.0096 -0.3448  0.0502
 4914W        W 7114  29.970   4.346   4.478 -0.0601  0.1940  0.0631
 4915W        W 7115  23.143   0.142  20.459  0.0059 -0.1832  0.0573
 4916W        W 7116  25.951   3.258  18.162  0.1610 -0.2413  0.0085
 4917W        W 7117  27.173   7.204  10.867 -0.1648 -0.3789  0.0424
 4918W        W 7118   4.307   2.838  19.723 -0.1525  0.1165 -0.1654
 4919W        W 7119  31.404   0.018  23.255 -0.0505  0.1012 -0.0062
 4920W        W 7120  25.841   3.152   1.390 -0.0895 -0.1313  0.2907
 4921W        W 7121  23.845   5.396  18.174  0.0662  0.0803 -0.0670
 4922W        W 7122  18.338   1.617   2.258 -0.1150 -0.0472  0.2826
 4923W        W 7123  14.245   1.597   2.316 -0.1165  0.2069  0.2758
 4924W        W 7124  22.191   4.568  10.599  0.3074 -0.1297 -0.0086
 4925W        W 7125   6.349   3.667  20.494 -0.1119  0.0685  0.1409
 4926W        W 7126  27.189   3.458  18.833  0.2762 -0.1465  0.0329
 4927W        W 7127  15.146   3.384   8.879  0.0318 -0.0525 -0.0698
 4928W        W 7128  26.931   6.285  21.610  0.0469 -0.0710  0.0768
 4929W        W 7129  15.042   1.377  15.480  0.1422  0.1343 -0.4101
 4930W        W 7130   4.689   7.477  20.074 -0.1210 -0.1696  0.0699
 4931W        W 7131  14.297   4.460  15.473  0.1336  0.1757 -0.1925
 4932W        W 7132  10.723   1.992  16.549  0.0052  0.1410  0.1032
 4933W        W 7133   3.208   3.193  15.694  0.2713 -0.2226 -0.0216
 4934W        W 7134  12.193   5.443   3.891 -0.1793 -0.0494 -0.0762
 4935W        W 7135   4.083   7.066   2.558 -0.0160  0.0462  0.0321
 4936W        W 7136  16.444   4.562  22.794  0.1082  0.1402 -0.0032
 4937W        W 7137  17.028   0.420  22.430  0.0262  0.1481 -0.0586
 4938W        W 7138  16.554   3.973   8.904 -0.0568  0.1024 -0.1595
 4939W        W 7139   3.282   0.329  25.839 -0.2661  0.1358  0.0421
 4940W        W 7140  15.903   7.586  15.826  0.0102  0.0138 -0.1415
 4941W        W 7141  25.483   5.273  22.335  0.0352 -0.0504  0.1610
 4942W        W 7142  22.578   7.193  23.813 -0.0731 -0.1455  0.0244
 4943W        W 7143  19.104   0.512  18.523 -0.1369 -0.0683  0.0699
 4944W        W 7144   3.151   6.614  18.085 -0.2091 -0.2265 -0.0144
 4945W        W 7145  20.333   3.266  18.579 -0.1145 -0.3022 -0.0676
 4946W        W 7146   1.445   4.760  23.130 -0.0936  0.0530  0.1039
 4947W        W 7147  25.925   7.334  17.832  0.3788 -0.1438  0.0316
 4948W        W 7148  29.181   7.466  22.834 -0.1282 -0.1854 -0.2780
 4949W        W 7149  27.824   4.815   5.908 -0.0043  0.0626  0.0223
 4950W        W 7150  19.441   2.743  25.306 -0.2955 -0.2150 -0.1271
 4951W        W 7151  21.777   3.172  15.455 -0.0601 -0.0667  0.0887
 4952W        W 7152  30.182   0.972  25.517 -0.1008 -0.0652 -0.2566
 4953W        W 7153   7.735   4.721  16.751 -0.2499 -0.0963  0.0380
 4954W        W 7154  19.562   4.867  15.754  0.3342 -0.0185 -0.1673
 4955W        W 7155  12.892   3.404   5.855 -0.0330  0.1787  0.2964
 4956W        W 7156  24.199   4.916   3.647 -0.1195 -0.0183 -0.2401
 4957W        W 7157  10.714   3.181  19.817 -0.0669 -0.1112  0.0127
 4958W        W 7158  24.957   3.697   9.185 -0.1063 -0.1395  0.0314
 4959W        W 7159  16.321   5.439  23.236  0.3496  0.0737 -0.2051
 4960W        W 7160   1.804   2.293  18.912  0.0295 -0.1003 -0.2619
 4961W        W 7161  21.716   6.570   2.600 -0.1577 -0.0428 -0.3070
 4962W        W 7162  27.695   7.603   1.719 -0.2218 -0.0741 -0.0089
 4963W        W 7163  26.166   2.139  18.016 -0.1249 -0.0173 -0.3954
 4964W        W 7164   0.694   4.264  25.789 -0.0273 -0.2379 -0.1130
 4965W        W 7165   8.284   7.626  19.333 -0.0378 -0.1373  0.1396
 4966W        W 7166  15.830   3.398   7.254  0.2763 -0.0087  0.3387
 4967W        W 7167  12.140   5.124  21.272 -0.1290 -0.0384  0.0577
 4968W        W 7168  19.126   5.580  17.734 -0.0178  0.0256  0.0364
 4969W        W 7169  11.789   1.078   7.491  0.0696 -0.0313 -0.2837
 4970W        W 7170  28.861   6.189   9.856  0.1232  0.0435  0.0008
 4971W        W 7171  30.085   4.293  14.955  0.0105  0.0897 -0.0917
 4972W        W 7172  25.022   3.233  18.795 -0.1373  0.0416  0.0614
 4973W        W 7173  19.753   0.023  20.938  0.2671 -0.1092 -0.1142
 4974W        W 7174  20.902   2.040  22.212 -0.1104 -0.1873 -0.0039
 4975W        W 7175  20.312   4.205   9.310 -0.0986  0.2240  0.0378
 4976W        W 7176  16.392   4.112   0.287 -0.1024 -0.2128  0.2100
 4977W        W 7177   0.875   0.954  10.150  0.1023 -0.0989 -0.0305
 4978W        W 7178  20.496   4.558   4.431 -0.1692  0.0911 -0.3268
 4979W        W 7179  16.417   7.342   7.887  0.3191 -0.0443 -0.0181
 4980W        W 7180  31.401   3.397  10.037 -0.1408  0.1765  0.0582
 4981W        W 7181   8.205   4.612  16.643  0.0034  0.0751  0.0863
 4982W        W 7182  22.415   6.756  23.023  0.1424  0.2019  0.0776
 4983W        W 7183  25.946   1.620  23.182  0.1353  0.1133  0.0169
 4984W        W 7184   8.622   3.862  22.341  0.2826 -0.1534 -0.0144
 4985W        W 7185  17.083   7.801  17.244 -0.1722  0.1757 -0.2339
 4986W        W 7186  29.818   0.805   2.290 -0.1600 -0.1228 -0.0010
 4987W        W 7187   0.250   1.469   2.449 -0.1791 -0.2564 -0.1730
 4988W        W 7188  27.061   7.115  25.619  0.1009 -0.0410  0.1593
 4989W        W 7189   7.814   1.817  19.330  0.0218 -0.3041  0.3079
 4990W        W 7190  16.543   6.195  21.022 -0.1517 -0.1398 -0.4607
 4991W        W 7191   8.173   4.520  16.054  0.1946  0.0496  0.1571
 4992W        W 7192   5.443   4.793   7.898 -0.0965  0.1253 -0.0103
 4993W        W 7193  25.511   3.330  16.515 -0.2342  0.1505 -0.0134
 4994W        W 7194  24.745   3.785   2.447 -0.0911  0.1425 -0.1206
 4995W        W 7195   3.389   0.596   0.312 -0.6291  0.2347  0.0269
 4996W        W 7196   0.299   1.708   1.411  0.0655  0.1730  0.1052
 4997W        W 7197  18.361   0.758   2.022  0.1345 -0.2205 -0.0181
 4998W        W 7198  30.793   0.293  25.896  0.3527  0.0255 -0.3592
 4999W        W 7199   1.635   1.413  15.667 -0.1491  0.0175 -0.0786
 5000W        W 7200  10.121   5.605  20.572 -0.4820 -0.0620 -0.2347
 5001W        W 7201   8.458   5.829   9.302 -0.4484  0.1812 -0.0556
 5002W        W 7202   7.138   4.102   2.443  0.0300 -0.0801  0.0754
 5003W        W 7203   0.793   2.173  24.346 -0.2807  0.1551  0.0710
 5004W        W 7204  26.584   5.481  10.782 -0.1619  0.2224  0.0117
 5005W        W 7205  14.333   0.222   8.014  0.2559 -0.3494  0.2141
 5006W        W 7206   5.611   0.242   0.759  0.2217 -0.2581  0.0413
 5007W        W 7207   0.955   4.137  16.920 -0.0432 -0.1840  0.0162
 5008W        W 7208  14.438   5.134  17.492  0.0262 -0.0856  0.0595
 5009W        W 7209  20.385   1.671   7.252 -0.0159  0.0683  0.3722
 5010W        W 7210  25.298   6.810  25.689 -0.0565 -0.0645  0.1254
 5011W        W 7211  17.477   1.726  17.402  0.1397 -0.0247  0.1085
 5012W        W 7212  15.485   3.132  10.706 -0.0208  0.0054 -0.1618
 5013W        W 7213  20.291   4.937   9.107  0.2416  0.2227  0.1775
 5014W        W 7214  22.283   3.062   7.761  0.2313  0.0067 -0.1899
 5015W        W 7215   3.392   3.154   1.292  0.0728 -0.0858 -0.2387
 5016W        W 7216  18.915   5.763  19.595 -0.0004  0.0694  0.0719
 5017W        W 7217   6.541   0.578  24.905 -0.0031 -0.1402 -0.0553
 5018W        W 7218   7.499   5.126  10.715 -0.0388  0.2330 -0.0723
 5019W        W 7219  19.448   7.743   9.872 -0.0859  0.1593  0.1825
 5020W        W 7220  18.624   1.995  18.370 -0.0628 -0.1645  0.1469
 5021W        W 7221  28.141   0.470   9.415 -0.2148  0.0739  0.3512
 5022W        W 7222   5.606   3.910  18.002  0.1286  0.0092  0.2756
 5023W        W 7223  15.508   7.022   4.448  0.0482  0.2628  0.0420
 5024W        W 7224  17.616   6.189   4.086  0.1027  0.0314  0.1069
 5025W        W 7225  12.684   4.084   2.197 -0.2430 -0.1713 -0.0074
 5026W        W 7226  24.528   6.040  17.993 -0.2335 -0.0308 -0.1423
 5027W        W 7227   7.361   3.731   5.531  0.0038 -0.1345 -0.0400
 5028W        W 7228  22.346   4.211  19.518  0.0080  0.1919 -0.2161
 5029W        W 7229  20.185   2.021   8.358  0.1527  0.3205 -0.3495
 5030W        W 7230   4.944   3.844  22.583 -0.3637 -0.0916  0.0272
 5031W        W 7231   2.202   2.556   6.446  0.2886  0.0297  0.2290
 5032W        W 7232  23.987   1.852  21.250  0.2583 -0.1662  0.2407
 5033W        W 7233  23.480   6.110  17.871  0.3284  0.2862 -0.4004
 5034W        W 7234  21.990   2.514  18.709 -0.1218  0.2258 -0.0033
 5035W        W 7235   1.622   6.231  24.386  0.1338 -0.1975 -0.0289
 5036W        W 7236  16.232   7.773  15.522  0.0269  0.0822 -0.0972
 5037W        W 7237  28.541   0.681   2.500 -0.2070 -0.1110  0.1338
 5038W        W 7238  15.616   2.949  25.603 -0.2173  0.0943  0.1070
 5039W        W 7239  28.411   5.261   1.489  0.1793 -0.0800  0.1073
 5040W        W 7240  27.054   2.475   2.178 -0.0180  0.2973  0.0167
 5041W        W 7241  19.699   3.032  20.747 -0.2548  0.2435  0.2258
 5042W        W 7242  12.961   0.063   4.635 -0.1383 -0.2435 -0.2014
 5043W        W 7243   2.568   4.029  19.689  0.2460  0.4074  0.0440
 5044W        W 7244  14.276   0.134  14.736  0.1272  0.2206 -0.1562
 5045W        W 7245   4.214   1.526  15.075 -0.2493 -0.2116 -0.2691
 5046W        W 7246   8.655   6.394   7.873  0.1992  0.4743  0.0018
 5047W        W 7247   3.129   3.562   3.269  0.1044  0.2325 -0.1469
 5048W        W 7248  16.996   3.042  20.304 -0.1787 -0.2030  0.0336
 5049W        W 7249  19.704   5.787  23.963  0.1288  0.1099 -0.0378
 5050W        W 7250   8.693   6.365   0.230 -0.2244 -0.2179  0.0095
 5051W        W 7251  15.063   4.435   9.966 -0.0720  0.0651  0.1353
 5052W        W 7252  26.343   0.159  19.635 -0.4451  0.0995 -0.4313
 5053W        W 7253  23.771   2.001  15.432  0.0273  0.0058  0.1324
 5054W        W 7254  12.388   0.201   7.002  0.1010 -0.0614 -0.1257
 5055W        W 7255   3.173   2.654   0.436 -0.1361  0.0376 -0.0938
 5056W        W 7256  18.931   3.359   3.154  0.2219  0.0769  0.0101
 5057W        W 7257   9.360   4.265  24.758 -0.2842  0.1316  0.4059
 5058W        W 7258  22.043   0.771  17.015 -0.1186 -0.1983 -0.1289
 5059W        W 7259   7.822   1.580   4.274 -0.0270  0.2500  0.3424
 5060W        W 7260  18.700   7.613   8.407 -0.1956  0.1191 -0.0495
 5061W        W 7261   2.907   6.317   4.997  0.2530  0.0584 -0.0719
 5062W        W 7262  19.134   3.926   5.315 -0.2708  0.4173  0.1117
 5063W        W 7263  26.935   0.528  23.448  0.0066  0.1149 -0.2672
 5064W        W 7264  31.112   5.472  20.683 -0.0725 -0.1578 -0.0144
 5065W        W 7265  16.841   6.511   7.483 -0.2295  0.1465  0.3339
 5066W        W 7266   0.088   4.588  21.507 -0.1234 -0.0421  0.1234
 5067W        W 7267  25.166   6.119   8.761  0.1872 -0.0374  0.0565
 5068W        W 7268  29.148   0.262  22.340 -0.0166  0.2753 -0.1613
 5069W        W 7269  14.893   0.587   5.634 -0.1272 -0.2305  0.0573
 5070W        W 7270   7.823   4.792  22.369 -0.4033  0.2473  0.0006
 5071W        W 7271   8.184   0.497  20.642  0.3128  0.1407 -0.1733
 5072W        W 7272   0.545   3.443   7.833  0.1872 -0.0994 -0.0008
 5073W        W 7273  28.492   5.853   8.027 -0.1919 -0.1794  0.2151
 5074W        W 7274  10.091   3.495  23.834 -0.2239  0.2272 -0.2816
 5075W        W 7275  18.638   6.813   7.506  0.0459 -0.0626 -0.1163
 5076W        W 7276  22.050   2.400   6.975 -0.0399 -0.0504 -0.1668
 5077W        W 7277  29.925   4.506  24.609 -0.0428  0.0714  0.0011
 5078W        W 7278  12.917   3.890  17.216  0.0894 -0.0317 -0.4460
 5079W        W 7279  18.565   2.062   2.204  0.2935  0.0102  0.2542
 5080W        W 7280   3.882   2.741   9.905  0.1119 -0.0595 -0.2753
 5081W        W 7281  13.258   7.745  22.098 -0.0091 -0.1109 -0.4541
 5082W        W 7282  20.349   7.613   4.489  0.1725 -0.0733 -0.1377
 5083W        W 7283  25.076   4.562   1.478 -0.1354 -0.0322  0.1187
 5084W        W 7284  26.645   7.609  23.831  0.1045  0.1111  0.0710
 5085W        W 7285  13.655   4.381  25.557 -0.1748  0.0309  0.2326
 5086W        W 7286   0.333   1.065  20.303 -0.3042 -0.2565  0.0173
 5087W        W 7287  16.197   6.608   4.983  0.3553 -0.0380 -0.0130
 5088W        W 7288  12.618   5.133  20.028  0.1688 -0.2210  0.0240
 5089W        W 7289  10.528   5.117   3.187  0.1918 -0.0401 -0.1223
 5090W        W 7290  22.201   3.999  23.760  0.1064  0.0553 -0.0458
 5091W        W 7291  24.324   1.137   6.621 -0.0203  0.0695 -0.0086
 5092W        W 7292  16.956   7.359   1.333 -0.0070  0.1474  0.4517
 5093W        W 7293  28.030   1.400  21.010 -0.0048 -0.1468 -0.0968
 5094W        W 7294   8.679   1.369  22.171  0.1867  0.0169  0.1250
 5095W        W 7295  21.276   1.764   0.463  0.2772  0.4428  0.1444
 5096W        W 7296   4.308   5.759  20.269 -0.0624  0.0196  0.1038
 5097W        W 7297  24.302   2.639   1.014  0.0604  0.0543  0.0135
 5098W        W 7298  11.902   6.016  16.596  0.3167  0.2282  0.0364
 5099W        W 7299   4.639   1.232  25.628 -0.3586 -0.1686 -0.0428
 5100W        W 7300  16.707   3.348  18.240 -0.2538  0.2123 -0.2030
 5101W        W 7301  12.472   2.787   2.372  0.3880  0.1051 -0.0957
 5102W        W 7302  20.201   0.269  23.318 -0.1727  0.1890 -0.2327
 5103W        W 7303  19.894   5.639   9.198  0.0340  0.1046 -0.0498
 5104W        W 7304  22.544   0.987  16.302 -0.0096  0.1519  0.3655
 5105W        W 7305  16.212   4.680   4.258  0.2368 -0.0134  0.3058
 5106W        W 7306  28.747   1.924   4.056  0.2384 -0.0649 -0.0652
 5107W        W 7307   7.164   1.244  18.919  0.0068 -0.1164  0.0935
 5108W        W 7308  12.211   3.570  23.334  0.0364 -0.0357  0.1100
 5109W        W 7309   8.554   1.581  21.330 -0.2001 -0.2507 -0.1654
 5110W        W 7310  26.941   5.124   9.286  0.0314 -0.0251 -0.0117
 5111W        W 7311  15.227   1.681  16.321 -0.1096 -0.1025 -0.0109
 5112W        W 7312   5.865   3.088  24.360  0.0470 -0.1920  0.1380
 5113W        W 7313  23.847   6.428  23.138 -0.2716 -0.1174 -0.0784
 5114W        W 7314  12.536   0.594   7.308 -0.1477  0.0242 -0.1282
 5115W        W 7315   4.299   5.496  24.976  0.2212 -0.1399  0.0549
 5116W        W 7316  29.047   0.884  20.150  0.1964 -0.0171 -0.0818
 5117W        W 7317   7.005   4.624  16.087 -0.3190  0.2432  0.2368
 5118W        W 7318  10.934   6.153  16.369  0.0188  0.0791 -0.0342
 5119W        W 7319   5.991   2.249  22.156  0.0684 -0.0411  0.1089
 5120W        W 7320  29.211   4.434   8.191  0.0846  0.0341  0.0119
 5121W        W 7321  19.848   7.170   2.620 -0.1140 -0.1788 -0.0527
 5122W        W 7322  14.605   4.127   2.894  0.0785  0.2015  0.1073
 5123W        W 7323   3.653   2.368  18.186  0.3199  0.0137 -0.3259
 5124W        W 7324  15.740   0.691  11.215 -0.0505 -0.0192 -0.1230
 5125W        W 7325  13.717   5.708  23.658 -0.0407  0.3729  0.0171
 5126W        W 7326  15.514   0.584  23.552 -0.0620 -0.0052 -0.2408
 5127W        W 7327  15.473   3.985  20.170 -0.0313  0.1728  0.0752
 5128W        W 7328  26.729   1.300   1.289 -0.0785  0.1782 -0.1117
 5129W        W 7329  25.040   7.458   1.268  0.2213 -0.0818  0.0538
 5130W        W 7330   5.757   3.227  15.858 -0.1467 -0.2409  0.0869
 5131W        W 7331  16.868   0.463   0.687 -0.0082 -0.1221  0.1008
 5132W        W 7332   1.046   1.575  20.293 -0.4090 -0.1463  0.2713
 5133W        W 7333  20.148   7.673  22.896  0.0774 -0.1120  0.3979
 5134W        W 7334   6.096   4.829  21.885 -0.1091 -0.1801 -0.0018
 5135W        W 7335  20.282   5.225   2.110  0.1992  0.0611 -0.3817
 5136W        W 7336  11.631   5.507  15.870 -0.0737  0.1542 -0.0473
 5137W        W 7337  12.764   3.736   1.109  0.2717 -0.0102  0.0468
 5138W        W 7338   0.006   0.660  15.488  0.1017 -0.0055 -0.0623
 5139W        W 7339   6.700   4.874   4.921  0.1057  0.2965  0.0804
 5140W        W 7340  19.623   2.942  25.779  0.4452 -0.2082 -0.1324
 5141W        W 7341   0.310   5.592  19.497  0.2265 -0.1322  0.1334
 5142W        W 7342   8.200   1.103   8.268  0.2677 -0.0427 -0.1256
 5143W        W 7343  26.378   6.333  23.135 -0.0107 -0.1008  0.0570
 5144W        W 7344  25.570   6.436   0.715  0.0744 -0.2790  0.1080
 5145W        W 7345  21.381   5.386  21.696  0.0728 -0.1470 -0.3083
 5146W        W 7346  13.493   1.288   0.368 -0.3292 -0.1213 -0.0415
 5147W        W 7347  28.442   1.042   7.096 -0.0148  0.1529 -0.0221
 5148W        W 7348  21.472   3.242  20.902 -0.2264  0.0706 -0.1111
 5149W        W 7349  18.906   3.281  15.731  0.0753  0.2159  0.2099
 5150W        W 7350   5.346   5.063  20.772  0.1486  0.2214 -0.0817
 5151W        W 7351  28.587   6.543  24.880 -0.0300  0.0306 -0.1814
 5152W        W 7352  29.510   3.179   7.946  0.0194 -0.0752  0.1504
 5153W        W 7353   3.402   6.660  19.768 -0.1056  0.2711 -0.1080
 5154W        W 7354   3.413   1.084  23.843  0.0312  0.0608 -0.1596
 5155W        W 7355  25.244   1.054  17.178 -0.2887  0.0783  0.1438
 5156W        W 7356  16.420   6.997  17.142  0.0902 -0.0071  0.1164
 5157W        W 7357   6.541   0.348   7.765  0.0913 -0.3626 -0.0145
 5158W        W 7358   7.375   4.211  18.303  0.0944  0.0385 -0.0778
 5159W        W 7359  17.412   7.285  11.444  0.1514 -0.4626  0.1208
 5160W        W 7360   6.965   5.957  19.592  0.3881 -0.2873  0.2186
 5161W        W 7361  30.008   5.374   8.654 -0.3066 -0.3801  0.2497
 5162W        W 7362  24.399   6.371  21.363 -0.3561 -0.2891  0.0263
 5163W        W 7363  20.774   4.843  10.593  0.0483 -0.3866  0.1118
 5164W        W 7364  30.348   7.675   6.038  0.0343  0.0457 -0.0894
 5165W        W 7365  23.513   7.147  22.125  0.0310 -0.2560  0.1715
 5166W        W 7366  22.100   5.956  17.286  0.0498  0.1324  0.3542
 5167W        W 7367   3.356   4.388   1.956 -0.0470 -0.1640  0.1410
 5168W        W 7368   7.119   1.406  16.019 -0.2529  0.0850  0.1011
 5169W        W 7369  11.320   6.183  22.451  0.0404  0.0105  0.1541
 5170W        W 7370  17.333   2.555   4.556 -0.3157 -0.1188 -0.1977
 5171W        W 7371  31.130   4.430   7.836 -0.1722 -0.0717  0.2184
 5172W        W 7372  25.905   3.864   6.752  0.0529 -0.1475 -0.0605
 5173W        W 7373   4.328   3.777   1.081  0.1562  0.2085 -0.1209
 5174W        W 7374   6.736   2.548   4.244 -0.3323 -0.1224 -0.0738
 5175W        W 7375  13.092   4.183  19.059  0.2823  0.0721 -0.1150
 5176W        W 7376  18.298   1.944  17.440 -0.0153 -0.1681 -0.1583
 5177W        W 7377  10.900   1.517  20.374  0.0584  0.1131 -0.2727
 5178W        W 7378   9.398   4.715  24.020  0.2703 -0.0609  0.1732
 5179W        W 7379  20.121   0.186   1.788 -0.2319 -0.1353 -0.0420
 5180W        W 7380  14.868   4.831   9.629 -0.1001 -0.3009 -0.0213
 5181W        W 7381  20.934   4.928  18.629  0.0001  0.0100 -0.1478
 5182W        W 7382  11.850   0.014  19.119 -0.0519  0.1016 -0.2841
 5183W        W 7383  18.618   3.141   1.367  0.1781  0.1655  0.2821
 5184W        W 7384  27.343   1.936   8.543  0.0849 -0.1855 -0.0368
 5185W        W 7385   0.462   2.511  16.329  0.4426  0.2228 -0.1712
 5186W        W 7386  19.808   6.214   5.526 -0.0230 -0.0034 -0.1754
 5187W        W 7387  26.485   1.595   2.010 -0.1206  0.1885  0.0117
 5188W        W 7388   1.790   1.217  18.115  0.3089  0.3629  0.1109
 5189W        W 7389  17.342   6.652   1.765  0.0304 -0.1268  0.0978
 5190W        W 7390  29.019   2.957   6.914 -0.0138 -0.0184  0.2218
 5191W        W 7391  26.667   6.233   9.831  0.0054 -0.1949  0.0024
 5192W        W 7392  14.629   3.239  21.985  0.0642 -0.3842  0.0875
 5193W        W 7393  17.812   2.936  10.935 -0.0290 -0.0875 -0.0261
 5194W        W 7394  27.908   4.378   7.303  0.1116  0.3213  0.0732
 5195W        W 7395  30.969   0.943  24.902  0.0653 -0.0928  0.1184
 5196W        W 7396  10.331   3.959   0.127  0.1840 -0.0058 -0.2285
 5197W        W 7397  25.761   7.757  15.643  0.0502 -0.3060 -0.0239
 5198W        W 7398  31.268   7.793   0.997  0.0709 -0.0079  0.0410
 5199W        W 7399   2.768   0.560   5.764  0.1856 -0.1441 -0.0943
 5200W        W 7400   1.450   4.146   8.122  0.2734 -0.3023 -0.4132
 5201W        W 7401  20.511   5.923   6.861 -0.1127 -0.1181 -0.2120
 5202W        W 7402  26.250   5.116   0.234  0.0679 -0.0513 -0.0717
 5203W        W 7403  29.516   1.066  10.030 -0.0377 -0.2728  0.2435
 5204W        W 7404  30.796   6.480   6.680 -0.0650 -0.2067  0.2295
 5205W        W 7405  21.827   6.586   4.076  0.1222  0.0891 -0.3997
 5206W        W 7406   7.340   1.680  15.070 -0.0642  0.0877  0.1806
 5207W        W 7407  15.793   3.383   0.906  0.1055 -0.0212  0.0551
 5208W        W 7408  12.033   0.569  23.493 -0.0028 -0.0716 -0.2057
 5209W        W 7409   3.461   3.844   2.492  0.0621 -0.1559  0.2755
 5210W        W 7410  14.613   7.419   7.849  0.1128 -0.0415  0.0517
 5211W        W 7411  27.502   6.264  18.574  0.0269  0.0053 -0.3026
 5212W        W 7412   5.717   0.558  15.384 -0.4049  0.0407  0.1550
 5213W        W 7413  15.607   1.684   5.564  0.1829  0.1541  0.0727
 5214W        W 7414  25.219   1.648  21.542 -0.0674  0.1065 -0.0012
 5215W        W 7415  21.674   3.667  22.784 -0.0023  0.4149  0.1024
 5216W        W 7416  31.414   1.336  23.168 -0.0023 -0.0797  0.0551
 5217W        W 7417  19.596   0.309   1.952  0.1016  0.1338  0.2817
 5218W        W 7418  17.753   1.258   6.876 -0.0494 -0.0227 -0.0622
 5219W        W 7419   8.666   7.069  23.307 -0.1422 -0.0859  0.0266
 5220W        W 7420  13.780   2.842  23.743 -0.3256  0.0397 -0.0570
 5221W        W 7421   6.664   4.204   8.269 -0.0142 -0.0421 -0.0524
 5222W        W 7422  27.587   3.582  17.154 -0.2612 -0.2543  0.1509
 5223W        W 7423   8.020   7.732  17.320  0.2937 -0.1926  0.0997
 5224W        W 7424  20.150   6.618  25.063 -0.0433 -0.2376 -0.0113
 5225W        W 7425   2.659   1.363   5.824 -0.0827 -0.0897  0.0899
 5226W        W 7426  21.973   1.846  22.385  0.1163 -0.1634 -0.0349
 5227W        W 7427  28.965   2.417  17.381  0.1073  0.0531 -0.2014
 5228W        W 7428  24.942   3.743   1.445 -0.0197 -0.1109 -0.2651
 5229W        W 7429  13.027   2.993   6.541 -0.0485 -0.2784  0.0867
 5230W        W 7430   0.882   0.722  18.190  0.0246 -0.2254 -0.0712
 5231W        W 7431  19.886   7.058  10.965 -0.1536  0.0658  0.0280
 5232W        W 7432  29.510   2.075  15.602 -0.1350  0.1115 -0.1499
 5233W        W 7433  13.391   3.987  17.066 -0.0465  0.5319 -0.3534
 5234W        W 7434  30.679   1.572   4.707 -0.3358  0.2245  0.0108
 5235W        W 7435   5.109   3.228  19.984  0.1895  0.0446 -0.0864
 5236W        W 7436  18.280   6.889   9.913 -0.0248  0.0965 -0.0938
 5237W        W 7437  18.296   6.371   5.478 -0.2085 -0.1543  0.1863
 5238W        W 7438   5.292   7.357  19.393 -0.0296 -0.0398  0.3865
 5239W        W 7439  22.333   0.813   6.320  0.1518 -0.2129 -0.1627
 5240W        W 7440  24.410   7.366   2.912  0.2113  0.0688  0.1311
 5241W        W 7441  24.120   6.570   7.622  0.2947  0.1544 -0.0157
 5242W        W 7442  14.686   1.826  18.265 -0.1322  0.1871  0.0800
 5243W        W 7443  15.649   0.332  25.456 -0.1770  0.4031  0.3070
 5244W        W 7444  11.112   4.663  22.535  0.3807 -0.2480  0.0639
 5245W        W 7445   6.021   3.518  23.597 -0.3685  0.1871  0.0422
 5246W        W 7446   5.636   7.747   4.445  0.2283 -0.1769 -0.0155
 5247W        W 7447  23.151   1.611   8.174 -0.0146  0.0479  0.0510
 5248W        W 7448  19.086   3.022   8.466 -0.1515 -0.3336  0.1757
 5249W        W 7449  20.815   3.860  17.272  0.1128 -0.1662  0.1382
 5250W        W 7450  28.671   0.283  20.845 -0.1036 -0.1549 -0.1463
 5251W        W 7451  27.963   2.439  10.040 -0.1368 -0.1529 -0.1876
 5252W        W 7452   2.627   3.079   7.043  0.0331  0.1844  0.0702
 5253W        W 7453   9.216   3.735  10.273  0.1247  0.4274 -0.0664
 5254W        W 7454  21.979   6.981  20.950  0.0866 -0.1757 -0.0392
 5255W        W 7455  19.355   2.305  25.564  0.3542  0.2508  0.0983
 5256W        W 7456  17.231   0.006   5.053  0.2461 -0.3548 -0.0573
 5257W        W 7457   2.393   6.937   4.178  0.0177  0.1544  0.1020
 5258W        W 7458  12.658   6.290   8.572 -0.0806 -0.1245  0.1402
 5259W        W 7459   1.217   5.150  15.830 -0.1214 -0.0380 -0.1076
 5260W        W 7460  30.506   0.382  24.622  0.0370  0.1503  0.0473
 5261W        W 7461  24.231   2.776  14.888  0.0126 -0.0415  0.1690
 5262W        W 7462   5.372   5.348   8.822  0.1080 -0.2170 -0.5663
 5263W        W 7463   3.837   4.194  19.285  0.2872 -0.1374  0.0104
 5264W        W 7464  26.990   3.587   2.181  0.1513  0.0265 -0.2660
 5265W        W 7465  16.835   5.343  23.553  0.0393 -0.2398  0.0090
 5266W        W 7466  22.799   2.147  21.428  0.1674  0.0086 -0.3137
 5267W        W 7467  20.519   6.986  10.087 -0.0387  0.1436  0.1550
 5268W        W 7468  27.840   4.571  11.066  0.1696 -0.3293 -0.0754
 5269W        W 7469  10.802   5.954   8.019 -0.0786 -0.0770 -0.0208
 5270W        W 7470   6.659   2.131  16.380 -0.0051 -0.1106 -0.0244
 5271W        W 7471  14.975   7.649  17.291 -0.1531  0.2079 -0.0888
 5272W        W 7472  13.851   2.787  20.841 -0.2426 -0.2915  0.0465
 5273W        W 7473   5.406   7.051  24.406  0.2469 -0.1573  0.0950
 5274W        W 7474   8.880   4.250  10.189 -0.3762 -0.2029 -0.0275
 5275W        W 7475  11.885   7.755   9.300 -0.0384  0.2801  0.0653
 5276W        W 7476  30.319   7.414   1.069 -0.2683  0.1015  0.2686
 5277W        W 7477  29.724   5.613  21.205  0.2057 -0.0892 -0.4106
 5278W        W 7478   7.463   7.509   1.090 -0.0343  0.1093  0.0333
 5279W        W 7479   2.396   1.096   3.376 -0.2401 -0.3603  0.2801
 5280W        W 7480   6.847   2.203  21.681  0.2004  0.1332  0.0067
 5281W        W 7481  14.863   7.855  21.292 -0.0115  0.1163 -0.2986
 5282W        W 7482  19.597   4.060   5.152 -0.1085 -0.0213  0.0854
 5283W        W 7483  26.573   4.798   9.489  0.3238  0.0241 -0.0872
 5284W        W 7484  18.995   1.375  16.619  0.0380 -0.0277 -0.2029
 5285W        W 7485  13.321   3.102   8.626 -0.0142  0.2610  0.0892
 5286W        W 7486  12.587   0.104  19.183  0.3731  0.0631  0.0242
 5287W        W 7487  18.091   3.857  25.034  0.1063  0.0148 -0.0976
 5288W        W 7488   1.680   0.690  14.960  0.0498  0.1555  0.0954
 5289W        W 7489  28.050   6.449  25.167  0.2610 -0.3861 -0.0500
 5290W        W 7490  21.166   2.616  25.143  0.0856 -0.2050 -0.0113
 5291W        W 7491  26.383   0.747  25.704 -0.1352 -0.0726 -0.0596
 5292W        W 7492  22.790   6.829  10.875 -0.1048  0.0126 -0.1254
 5293W        W 7493  12.855   6.290  24.480  0.0326 -0.2101  0.1916
 5294W        W 7494  16.380   6.595  18.483  0.1992  0.2106 -0.1650
 5295W        W 7495  21.139   6.566   1.885 -0.0041 -0.2442 -0.0247
 5296W        W 7496   7.053   3.262  22.455  0.2144 -0.0084 -0.1715
 5297W        W 7497  11.197   2.307  20.597  0.0432  0.0879  0.1931
 5298W        W 7498  14.555   1.962  17.106  0.0375  0.0619 -0.0529
 5299W        W 7499   1.541   7.030   9.146  0.3350  0.3142  0.1281
 5300W        W 7500  15.534   4.259   3.837 -0.0099 -0.2406  0.1469
 5301W        W 7501   4.119   6.498   7.156  0.2235 -0.0598  0.0750
 5302W        W 7502   3.218   0.769   4.133 -0.0451  0.0930  0.0047
 5303W        W 7503  29.284   6.545  25.505 -0.0031  0.1493 -0.1870
 5304W        W 7504  16.915   7.729   0.869 -0.0781  0.2940 -0.4185
 5305W        W 7505  16.039   1.665   6.743  0.3372 -0.2248  0.0653
 5306W        W 7506   6.403   3.658   1.500 -0.5517 -0.1841 -0.1014
 5307W        W 7507  16.747   7.039   9.813 -0.0293 -0.0037  0.0947
 5308W        W 7508  10.864   1.353  19.027  0.1025  0.0796 -0.3592
 5309W        W 7509   9.984   7.816  10.715 -0.0716 -0.0586 -0.0385
 5310W        W 7510  17.682   1.502   3.745  0.0728 -0.0461  0.3551
 5311W        W 7511  14.878   0.192   3.632 -0.3020 -0.0696 -0.1952
 5312W        W 7512  26.116   4.646  25.095  0.0697 -0.0048  0.3632
 5313W        W 7513  31.042   3.414  15.595 -0.1118  0.2789  0.2155
 5314W        W 7514  16.289   5.114  17.990 -0.0806 -0.2649  0.0961
 5315W        W 7515  12.016   5.933   9.194  0.1221 -0.2837  0.3941
 5316W        W 7516  13.384   4.354   3.021  0.1263 -0.1448 -0.1022
 5317W        W 7517  19.435   5.786  24.441  0.1534 -0.0906 -0.1637
 5318W        W 7518   9.386   3.265   4.005  0.2122 -0.2089  0.1043
 5319W        W 7519  17.485   5.131  24.104 -0.1740  0.0361 -0.3432
 5320W        W 7520   7.333   2.859  24.203 -0.2184 -0.0312  0.1465
 5321W        W 7521   2.732   4.761  19.972  0.0484 -0.1117  0.0516
 5322W        W 7522  20.471   0.211  17.297  0.0863 -0.1490 -0.1771
 5323W        W 7523  23.179   5.476  24.609  0.2461 -0.2670 -0.0132
 5324W        W 7524   9.680   1.439  24.423 -0.1658 -0.0637 -0.3132
 5325W        W 7525   6.887   5.055  16.403 -0.2228 -0.1943 -0.1004
 5326W        W 7526  19.351   6.214  20.421 -0.0292 -0.1749 -0.0145
 5327W        W 7527   5.111   1.011   8.108  0.1285 -0.2430 -0.0288
 5328W        W 7528  29.295   3.835  21.229  0.3266 -0.1473 -0.4429
 5329W        W 7529  25.462   3.305   2.613 -0.2056  0.0992  0.2961
 5330W        W 7530   8.123   3.122  23.808 -0.1403  0.0561  0.0621
 5331W        W 7531  16.177   7.117   9.632 -0.3599 -0.0256  0.2891
 5332W        W 7532   6.493   3.580  23.766  0.1699  0.0792 -0.0593
 5333W        W 7533  25.395   1.647  22.794 -0.2066 -0.3963 -0.2143
 5334W        W 7534  18.265   5.187  16.506 -0.1181  0.1534  0.2109
 5335W        W 7535  15.140   4.469   6.442 -0.4264  0.0554 -0.0118
 5336W        W 7536  20.546   5.016  23.967 -0.1307  0.2407 -0.0628
 5337W        W 7537  26.963   3.285   5.071 -0.1007 -0.0410 -0.0086
 5338W        W 7538  22.884   7.746  22.306 -0.0679  0.0033 -0.0131
 5339W        W 7539  17.920   5.132   2.075 -0.1557  0.3042  0.1619
 5340W        W 7540  28.674   1.810   8.095  0.2777 -0.2415  0.0705
 5341W        W 7541  25.993   3.543   9.550 -0.1793  0.1255  0.1308
 5342W        W 7542   3.099   0.783  20.598  0.0715 -0.0215 -0.1251
 5343W        W 7543   4.057   3.019  20.152  0.0565 -0.0516  0.1220
 5344W        W 7544  28.900   1.348  20.235  0.1560 -0.1994  0.0095
 5345W        W 7545  15.081   1.144  22.843  0.1794  0.0275  0.1589
 5346W        W 7546  22.410   4.442   4.760  0.1708 -0.2191 -0.2569
 5347W        W 7547  30.314   4.739  15.708 -0.1884  0.2190  0.0977
 5348W        W 7548   0.601   6.778   4.638 -0.0217  0.0936 -0.1395
 5349W        W 7549  28.491   6.272  18.320 -0.2417  0.2115  0.1848
 5350W        W 7550  15.618   1.543  24.901 -0.0539  0.2823  0.2074
 5351W        W 7551  21.182   6.792  24.469  0.0629 -0.0880 -0.1553
 5352W        W 7552  28.639   3.362  25.298  0.1630 -0.0394  0.2904
 5353W        W 7553  15.839   2.225   1.520 -0.0280  0.0291 -0.2277
 5354W        W 7554   2.000   6.211  17.085  0.2372 -0.1675 -0.2804
 5355W        W 7555  25.509   1.850   4.751  0.0127 -0.2578 -0.1657
 5356W        W 7556  30.949   6.833   5.288 -0.2679 -0.0764  0.0532
 5357W        W 7557  17.903   6.361  21.250 -0.0598 -0.1921  0.1452
 5358W        W 7558  26.906   4.466  24.545 -0.0879 -0.1678 -0.0678
 5359W        W 7559  17.203   2.083  17.116 -0.0622  0.3794 -0.0574
 5360W        W 7560  17.969   5.949   0.318 -0.2704 -0.1036 -0.0388
 5361W        W 7561  13.302   6.401  16.659 -0.2829 -0.1791 -0.1669
 5362W        W 7562  20.572   1.610   5.465  0.1470  0.0576 -0.4270
 5363W        W 7563  16.396   3.888  23.615 -0.1635 -0.2369 -0.6626
 5364W        W 7564   7.258   0.407  25.205  0.0189  0.4139 -0.1645
 5365W        W 7565  28.268   2.012  20.395 -0.0040 -0.3591  0.0362
 5366W        W 7566   7.526   0.221   8.554  0.1537  0.0878 -0.1278
 5367W        W 7567   4.648   2.874  21.715 -0.1616  0.1744 -0.0864
 5368W        W 7568  19.440   6.090  19.863 -0.2277  0.2797  0.0981
 5369W        W 7569  13.429   5.345   7.497  0.2810 -0.0197 -0.3073
 5370W        W 7570  22.695   6.958  16.170  0.0041 -0.1791  0.4297
 5371W        W 7571  12.861   6.261   0.025  0.1565 -0.0559 -0.0507
 5372W        W 7572   1.069   4.437  15.593  0.2756  0.0756  0.1397
 5373W        W 7573   1.768   2.052  18.097  0.3663 -0.0129  0.2031
 5374W        W 7574  22.475   2.296   2.980 -0.0019  0.0707 -0.1623
 5375W        W 7575   2.608   3.116  25.911  0.1536  0.0244  0.2094
 5376W        W 7576   2.206   2.191  20.040  0.4029 -0.2304 -0.0804
 5377W        W 7577  30.479   6.510   8.337 -0.0134  0.1451  0.2215
 5378W        W 7578  14.301   4.840   0.051  0.2131 -0.1319  0.0759
 5379W        W 7579  30.840   7.477   8.455 -0.2723  0.1685  0.0072
 5380W        W 7580  16.579   3.109  24.243  0.1119  0.0436  0.0604
 5381W        W 7581  16.204   3.660   5.490 -0.2139  0.1339  0.1876
 5382W        W 7582  22.825   6.111  16.283  0.1339  0.3057 -0.0053
 5383W        W 7583   7.691   0.504  25.529 -0.0106  0.1085  0.1614
 5384W        W 7584  14.469   6.005  21.190  0.1682 -0.0454 -0.2870
 5385W        W 7585  23.552   6.375   6.596 -0.1363  0.1777  0.2500
 5386W        W 7586  30.952   1.500  25.338  0.0175  0.1615 -0.1598
 5387W        W 7587  15.670   5.967   6.666  0.2076  0.0230  0.1038
 5388W        W 7588  18.210   3.947   6.799 -0.0970 -0.2182  0.4721
 5389W        W 7589   7.643   6.975  16.392 -0.0475 -0.0849  0.3143
 5390W        W 7590  18.036   5.427   8.534 -0.1929 -0.2478 -0.0451
 5391W        W 7591   3.293   0.394  17.997 -0.3803  0.2865 -0.1357
 5392W        W 7592  23.090   4.206   7.414  0.1892  0.0258 -0.0659
 5393W        W 7593  30.067   5.097   4.040 -0.1025  0.0213 -0.1832
 5394W        W 7594   9.779   1.845   6.837  0.1408 -0.1716 -0.2947
 5395W        W 7595  10.517   4.194  25.487  0.0383 -0.0167  0.0572
 5396W        W 7596  31.085   0.560  16.569  0.2800 -0.0046  0.2251
 5397W        W 7597  29.184   1.846  10.720  0.1772 -0.0529 -0.0789
 5398W        W 7598  28.103   3.555   3.125 -0.1267 -0.0163  0.2011
 5399W        W 7599  27.181   3.693  10.781 -0.0265 -0.1707  0.1663
 5400W        W 7600   1.781   2.177  20.500 -0.0593 -0.1679  0.3328
 5401W        W 7601  12.368   6.671  18.815 -0.1278  0.1971 -0.1325
 5402W        W 7602   0.631   2.697   4.241 -0.0220  0.2940  0.1490
 5403W        W 7603  26.098   4.884   0.626  0.3836  0.0485  0.1437
 5404W        W 7604  17.209   6.750  24.218  0.0818 -0.0912 -0.1445
 5405W        W 7605  17.554   6.852   6.889  0.1857  0.0840 -0.0539
 5406W        W 7606   6.574   7.046   6.055 -0.0420  0.0469  0.2312
 5407W        W 7607   2.623   3.614  15.932  0.2321 -0.1232 -0.2180
 5408W        W 7608  24.843   5.489   0.062  0.2125 -0.1460  0.1403
 5409W        W 7609  12.568   5.610   9.290  0.2021 -0.1577 -0.1511
 5410W        W 7610   5.204   1.635  19.120  0.2548  0.2756  0.2222
 5411W        W 7611   3.037   0.767  19.259 -0.1009  0.1650 -0.1985
 5412W        W 7612  15.395   6.033   4.837 -0.1278 -0.1478 -0.2819
 5413W        W 7613  11.260   1.094   8.179  0.1827 -0.0214 -0.0113
 5414W        W 7614  11.589   2.329   5.128 -0.3352  0.1170  0.3333
 5415W        W 7615  26.646   4.621   4.949 -0.0749  0.1176  0.0310
 5416W        W 7616   1.592   5.051   2.358  0.0361 -0.4395 -0.1151
 5417W        W 7617   1.879   6.582   9.243  0.1247 -0.3254  0.0754
 5418W        W 7618   0.436   6.815   2.547  0.1679 -0.0603 -0.1105
 5419W        W 7619  10.175   6.532   9.426 -0.0252  0.1930  0.1635
 5420W        W 7620   9.071   6.698   7.735 -0.1839  0.0114 -0.0530
 5421W        W 7621  23.083   2.579   9.338  0.0431  0.1898 -0.0040
 5422W        W 7622  26.240   1.083  17.206 -0.0280  0.1378 -0.0317
 5423W        W 7623  11.842   5.827  21.832  0.0951  0.2852  0.0544
 5424W        W 7624  29.334   5.911   4.810  0.0975  0.2501 -0.0829
 5425W        W 7625  31.063   7.140  23.285  0.0781 -0.2084 -0.1049
 5426W        W 7626   7.147   1.595   6.600  0.1269  0.2677 -0.3189
 5427W        W 7627   7.767   1.201  17.086 -0.2162  0.2844 -0.2713
 5428W        W 7628   7.218   5.504   1.762  0.0615 -0.1613 -0.2451
 5429W        W 7629  30.996   3.021   2.743 -0.2537  0.3946  0.1298
 5430W        W 7630   3.747   7.772  14.979  0.0135 -0.1183  0.1100
 5431W        W 7631   3.988   3.290   8.214  0.1775  0.1488  0.0946
 5432W        W 7632  14.619   7.555  21.640  0.1163  0.2253 -0.1192
 5433W        W 7633   5.587   0.021  20.482  0.2539  0.2194 -0.0319
 5434W        W 7634  20.401   2.156  19.557  0.2011  0.1019 -0.1867
 5435W        W 7635  24.506   3.227   0.200  0.2066  0.1354  0.0103
 5436W        W 7636   9.996   1.624  19.783 -0.1185 -0.0557  0.0621
 5437W        W 7637   2.173   5.053  22.703  0.0764 -0.3831 -0.0447
 5438W        W 7638  16.601   3.755  16.275  0.2861  0.1410 -0.2259
 5439W        W 7639  26.429   6.316   9.045  0.0231  0.0762 -0.3097
 5440W        W 7640  24.244   0.023   7.435  0.1540  0.1829 -0.1438
 5441W        W 7641  24.580   4.025   6.962 -0.0478  0.2192 -0.2301
 5442W        W 7642  24.799   2.009   7.408  0.1790  0.0147  0.0868
 5443W        W 7643  30.791   0.976   8.172 -0.0611  0.1936  0.0064
 5444W        W 7644  18.705   7.001   6.362 -0.1690 -0.1831 -0.0058
 5445W        W 7645  24.125   3.095  25.998  0.1573  0.0107 -0.3211
 5446W        W 7646   7.158   1.517   1.287  0.1176 -0.0134  0.2851
 5447W        W 7647  28.833   3.477  15.250 -0.1665 -0.0223  0.2608
 5448W        W 7648   1.471   4.154  23.907  0.1746 -0.1697 -0.0343
 5449W        W 7649  16.898   2.734   8.871  0.0100  0.0041 -0.1161
 5450W        W 7650   4.463   5.460   9.838  0.2259  0.1852 -0.2422
 5451W        W 7651  11.339   0.894  17.244  0.0031  0.2169  0.1293
 5452W        W 7652  30.056   4.454  25.078 -0.1372 -0.0051 -0.2350
 5453W        W 7653  28.227   5.601  24.716  0.2820 -0.4468  0.1820
 5454W        W 7654  13.060   5.035  22.710 -0.1795  0.0233 -0.0039
 5455W        W 7655   3.583   7.314  20.970 -0.1553  0.2230 -0.1537
 5456W        W 7656   1.446   3.707  14.932 -0.1883  0.0481  0.2264
 5457W        W 7657  12.622   0.287  17.979 -0.1805  0.0359  0.1816
 5458W        W 7658  20.252   1.860  16.175  0.0987  0.0749 -0.2944
 5459W        W 7659   7.476   2.970  20.851  0.0643 -0.1422  0.1777
 5460W        W 7660  29.385   1.743   1.747 -0.3306  0.0114 -0.0967
 5461W        W 7661   2.349   7.412  19.716 -0.0174 -0.4587  0.3585
 5462W        W 7662  11.632   1.007  21.283 -0.0212  0.0955  0.1576
 5463W        W 7663  21.607   7.662  20.233 -0.0195 -0.1052  0.2421
 5464W        W 7664  13.868   7.429  23.182  0.1898 -0.2395 -0.2071
 5465W        W 7665   3.620   2.609   0.215 -0.3045 -0.0746  0.1039
 5466W        W 7666  16.932   1.039  22.630  0.1679 -0.1903  0.0442
 5467W        W 7667  15.127   5.566  16.320 -0.0580 -0.3119 -0.0694
 5468W        W 7668  29.282   0.981  21.963 -0.2285 -0.0613 -0.1380
 5469W        W 7669  26.171   7.386   8.415  0.1148  0.3572 -0.0136
 5470W        W 7670  25.002   7.525  21.710 -0.0759 -0.0095  0.0717
 5471W        W 7671   3.002   3.424  10.207 -0.0575  0.0232  0.0537
 5472W        W 7672  20.506   4.562  10.279 -0.2107 -0.0099 -0.2740
 5473W        W 7673  27.377   0.498   5.778 -0.2336  0.3053 -0.0460
 5474W        W 7674  22.062   1.733  19.117 -0.1116  0.2650  0.0891
 5475W        W 7675   3.425   6.330   1.104 -0.1510  0.1878 -0.1697
 5476W        W 7676  10.602   5.320  11.125  0.0164  0.0103  0.1813
 5477W        W 7677   9.579   7.374  24.170 -0.2344 -0.1795 -0.0535
 5478W        W 7678   5.270   7.618   6.992 -0.1275 -0.2635 -0.1928
 5479W        W 7679   5.229   2.512   9.413 -0.1522  0.2252 -0.0611
 5480W        W 7680   9.723   0.123  18.705 -0.1199 -0.3858  0.1275
 5481W        W 7681   6.549   7.159  14.846 -0.1469 -0.1361  0.2395
 5482W        W 7682   2.203   6.999  19.385 -0.2953 -0.1012 -0.1261
 5483W        W 7683  14.904   0.635  18.232 -0.1298 -0.1946 -0.0826
 5484W        W 7684  18.817   1.629  19.683  0.1867  0.1261  0.2649
 5485W        W 7685  10.509   2.052   8.243  0.1260  0.0200 -0.2696
 5486W        W 7686   1.149   6.219  17.337 -0.0181 -0.0485 -0.0841
 5487W        W 7687  10.467   2.344   5.564  0.2202  0.0209 -0.0351
 5488W        W 7688  13.905   6.331  17.625  0.1395  0.3669  0.3107
 5489W        W 7689   4.932   4.341   7.312 -0.0618  0.1504  0.0391
 5490W        W 7690  21.544   1.408   5.815 -0.0630  0.2053  0.1127
 5491W        W 7691  23.758   4.027   0.042  0.0854 -0.3630  0.2426
 5492W        W 7692  30.929   4.631  21.503  0.0921 -0.0958  0.0489
 5493W        W 7693   3.247   1.469  18.298 -0.2674  0.1565 -0.1929
 5494W        W 7694  13.756   1.381   1.300 -0.1367 -0.2089  0.0333
 5495W        W 7695   0.642   4.763  20.294  0.3174 -0.0343  0.3432
 5496W        W 7696  29.188   7.065   3.326 -0.0737  0.1423  0.2641
 5497W        W 7697  11.418   3.005  17.125 -0.1212  0.0264 -0.1316
 5498W        W 7698  22.185   2.402   2.027  0.0305  0.1469 -0.0622
 5499W        W 7699  29.593   0.048  21.944  0.2368 -0.1502 -0.0609
 5500W        W 7700  12.141   5.293   7.510 -0.0206 -0.1500 -0.1472
 5501W        W 7701  21.541   4.007  17.523 -0.1996  0.0969 -0.1999
 5502W        W 7702  10.682   5.563   8.410  0.1262  0.3297 -0.2243
 5503W        W 7703  10.031   2.065  17.100  0.2701 -0.0524  0.0403
 5504W        W 7704  10.129   6.640  18.861  0.0632 -0.0191  0.0686
 5505W        W 7705  18.706   3.112  25.757  0.0946  0.1774 -0.0580
 5506W        W 7706   9.229   1.655  20.617  0.2355 -0.0598 -0.1448
 5507W        W 7707   3.164   6.681   3.277  0.0976 -0.2614 -0.0954
 5508W        W 7708  22.616   3.013  17.602 -0.1017  0.0016 -0.1506
 5509W        W 7709  15.215   5.493   0.819 -0.1446 -0.1673 -0.0519
 5510W        W 7710  15.162   3.133  10.139 -0.0476 -0.0865  0.0187
 5511W        W 7711  15.121   5.165   8.984 -0.3352 -0.0048 -0.0900
 5512W        W 7712  22.332   3.668  25.505 -0.0854 -0.0396 -0.0345
 5513W        W 7713  26.340   3.212  17.741 -0.0259 -0.2267 -0.2543
 5514W        W 7714   7.465   1.846  16.275 -0.0250  0.0919 -0.0612
 5515W        W 7715   3.489   7.696  14.389  0.2159 -0.1927  0.0445
 5516W        W 7716  28.674   5.841   8.497  0.0985 -0.0737 -0.1054
 5517W        W 7717  10.030   2.568  16.456 -0.0022 -0.1751  0.0340
 5518W        W 7718  15.881   5.023  17.688  0.2637  0.0502 -0.1137
 5519W        W 7719  14.725   4.848   4.805 -0.2376 -0.0474  0.0723
 5520W        W 7720  15.355   6.335   6.899  0.0628  0.2008 -0.0323
 5521W        W 7721  28.295   6.747   3.469 -0.1813 -0.1929  0.0891
 5522W        W 7722   8.747   6.750   2.049  0.0230  0.1829  0.1239
 5523W        W 7723  24.339   7.501   4.539 -0.0246 -0.0604  0.2482
 5524W        W 7724  11.340   5.230   3.614 -0.0218  0.1115 -0.0470
 5525W        W 7725   5.005   7.100  20.239 -0.1922 -0.2200 -0.1950
 5526W        W 7726  15.987   4.200   0.944  0.0542  0.0350 -0.1214
 5527W        W 7727   8.971   4.146  15.766  0.1139 -0.3048 -0.2661
 5528W        W 7728  22.057   5.675   6.137  0.3162  0.1036 -0.0792
 5529W        W 7729   9.273   7.322  21.188 -0.0479 -0.2293  0.0522
 5530W        W 7730  17.829   1.572   1.266 -0.0912 -0.1437 -0.1039
 5531W        W 7731  16.981   2.609  23.645  0.1542 -0.0747 -0.0901
 5532W        W 7732   3.876   5.181   7.231  0.1212 -0.1558 -0.1997
 5533W        W 7733   8.305   1.402  20.851 -0.3756  0.0326 -0.1816
 5534W        W 7734  10.103   5.904  21.286 -0.0013  0.0590 -0.1038
 5535W        W 7735  29.489   6.321   4.554 -0.1154  0.0198 -0.0969
 5536W        W 7736   4.426   7.524  17.851  0.0660  0.1848  0.1073
 5537W        W 7737   3.284   5.282   0.758 -0.0273 -0.1516  0.2384
 5538W        W 7738  22.247   5.568   5.094 -0.1958  0.0236  0.0574
 5539W        W 7739  12.994   5.327  25.871  0.2738  0.0139  0.0322
 5540W        W 7740  22.374   1.267   8.188 -0.0598 -0.1747  0.1638
 5541W        W 7741   7.575   6.756  17.893 -0.1524  0.0351  0.0446
 5542W        W 7742  13.578   6.230   8.607  0.0907 -0.1308 -0.1583
 5543W        W 7743  25.264   4.849  20.990 -0.3359  0.1571  0.1652
 5544W        W 7744  15.432   3.691  25.066 -0.1160 -0.1721  0.2435
 5545W        W 7745  29.739   4.438  16.573  0.0936 -0.0683  0.1349
 5546W        W 7746  26.696   5.046   1.307  0.1841  0.3354 -0.0794
 5547W        W 7747  20.376   0.197  19.055 -0.1611 -0.1701  0.1307
 5548W        W 7748   4.835   5.256   7.487  0.2703 -0.1148  0.0236
 5549W        W 7749   9.919   6.223  19.147  0.1776  0.0843  0.2667
 5550W        W 7750  19.231   7.443   7.124  0.1498 -0.1400 -0.0085
 5551W        W 7751  19.313   7.099  20.586  0.2017 -0.1466 -0.0810
 5552W        W 7752   9.322   2.300   7.870 -0.1572 -0.2965  0.3384
 5553W        W 7753  19.555   2.921   6.996  0.1169  0.1691  0.0470
 5554W        W 7754  17.757   0.475  21.291  0.0122  0.0278 -0.0403
 5555W        W 7755  14.868   2.327  24.674  0.0616  0.2214 -0.0373
 5556W        W 7756  22.700   5.115   3.286 -0.0167 -0.0511  0.1838
 5557W        W 7757   9.242   0.677   5.320 -0.0525 -0.2792 -0.0716
 5558W        W 7758   1.821   2.029  10.222 -0.0323  0.3617  0.0557
 5559W        W 7759   6.449   5.511  22.895 -0.1484  0.1164  0.1530
 5560W        W 7760  23.124   6.050  22.852  0.5384 -0.1998 -0.0432
 5561W        W 7761  11.003   2.493  23.747 -0.0612 -0.0303  0.0716
 5562W        W 7762  25.217   2.488   8.592 -0.3140 -0.1343  0.0394
 5563W        W 7763   3.520   0.655   1.493  0.1959  0.1064 -0.2666
 5564W        W 7764  19.533   2.988  22.704 -0.2545  0.0320  0.0282
 5565W        W 7765   8.018   1.011   0.242  0.3342  0.0695  0.0046
 5566W        W 7766  24.354   0.126   0.561  0.1511 -0.2889 -0.0262
 5567W        W 7767  10.365   7.046  10.272  0.1552 -0.2728  0.0392
 5568W        W 7768   4.803   2.070  18.285  0.1917  0.3060  0.2409
 5569W        W 7769   8.846   5.853   6.987  0.2377 -0.1092  0.1618
 5570W        W 7770  24.068   2.554   3.250 -0.0707  0.0938 -0.2167
 5571W        W 7771  17.279   0.554  21.635  0.4100  0.0009  0.0798
 5572W        W 7772  23.898   1.460   7.799  0.3055 -0.0875  0.6313
 5573W        W 7773  17.398   2.249   7.893  0.0611 -0.0584 -0.0144
 5574W        W 7774  16.207   5.394  20.427  0.1009 -0.0327 -0.1964
 5575W        W 7775  16.797   1.263  24.995  0.1473  0.0168 -0.1441
 5576W        W 7776   7.497   3.029   7.949 -0.1635  0.1285  0.0260
 5577W        W 7777  15.593   1.035  18.581 -0.3862  0.0332 -0.1018
 5578W        W 7778  14.287   6.060  15.252 -0.1095  0.0127  0.0699
 5579W        W 7779  14.867   5.039  25.058  0.0509  0.0336  0.1074
 5580W        W 7780   0.858   6.353  24.446 -0.1023 -0.0505 -0.0837
 5581W        W 7781   3.726   1.478  24.023 -0.2504  0.4928 -0.2708
 5582W        W 7782   5.658   1.446  24.820 -0.0568 -0.1178 -0.2748
 5583W        W 7783  15.649   4.540  18.565 -0.2870 -0.1337  0.0338
 5584W        W 7784   5.680   1.132  15.105  0.2412 -0.0062 -0.0238
 5585W        W 7785  25.627   7.792   4.753 -0.0993  0.0140  0.0149
 5586W        W 7786  16.561   0.108   2.029  0.1283  0.1161  0.1299
 5587W        W 7787  20.383   7.133   5.693 -0.1092  0.0466 -0.3715
 5588W        W 7788  26.751   3.727   5.024  0.2953 -0.2527 -0.1296
 5589W        W 7789  13.015   0.503   5.374 -0.1334 -0.0100  0.1588
 5590W        W 7790  13.424   5.262   3.114 -0.1080 -0.2018  0.1140
 5591W        W 7791  20.490   5.317   8.824  0.1373 -0.1160  0.3800
 5592W        W 7792   4.603   7.778  18.403  0.2093 -0.0317 -0.1850
 5593W        W 7793   5.469   4.960  15.093  0.0549  0.0486 -0.1225
 5594W        W 7794   0.958   6.212   8.154 -0.1186 -0.0592 -0.0669
 5595W        W 7795  13.339   6.461   0.066 -0.1818 -0.3971 -0.2373
 5596W        W 7796  20.055   1.485  24.961 -0.3818 -0.2390  0.0370
 5597W        W 7797   8.020   7.037  22.443 -0.2078  0.1120 -0.1100
 5598W        W 7798  19.700   4.335   6.762 -0.1820 -0.2144  0.1808
 5599W        W 7799   1.148   6.134   8.760 -0.0692  0.0822 -0.1082
 5600W        W 7800  23.012   4.601   1.542 -0.1433 -0.3016  0.0403
 5601W        W 7801  28.450   5.927   8.992 -0.1247  0.1147  0.0851
 5602W        W 7802  19.545   1.211   3.880 -0.0229 -0.1137 -0.0186
 5603W        W 7803   7.280   1.360  14.539 -0.3577  0.0189  0.0025
 5604W        W 7804   7.329   0.033  19.255  0.0045 -0.1275 -0.0726
 5605W        W 7805  30.060   5.947  18.164  0.1673  0.1483 -0.0432
 5606W        W 7806  27.493   4.531  25.701 -0.1937  0.0662  0.1067
 5607W        W 7807  15.567   0.011  18.153 -0.1171  0.0365  0.3109
 5608W        W 7808  30.092   1.039   0.405 -0.1088 -0.0597  0.0038
 5609W        W 7809   9.711   7.445   7.867  0.2279  0.2457 -0.1359
 5610W        W 7810  27.415   3.987  21.806 -0.0945  0.0409  0.2125
 5611W        W 7811   2.275   7.086   8.498  0.0227  0.0853  0.0955
 5612W        W 7812  27.662   3.504  15.505 -0.0491 -0.2487  0.2570
 5613W        W 7813   7.683   1.770   5.376  0.1641  0.1088 -0.1222
 5614W        W 7814  23.876   5.445  16.922  0.0449 -0.2065  0.0353
 5615W        W 7815   0.201   1.943   0.528  0.3353 -0.2443  0.1757
 5616W        W 7816  31.040   2.211   7.716 -0.0399  0.1343 -0.3082
 5617W        W 7817  14.194   7.486   0.969  0.0412 -0.1591 -0.1594
 5618W        W 7818  26.978   1.915   5.421 -0.0462  0.1260  0.1975
 5619W        W 7819  19.300   5.566  18.900  0.1451 -0.0811 -0.0046
 5620W        W 7820   0.742   5.122   0.229 -0.0143 -0.0034 -0.1449
 5621W        W 7821  11.626   1.264   8.472  0.3075 -0.5141 -0.3365
 5622W        W 7822  25.060   5.509  24.148 -0.1852  0.0948 -0.0288
 5623W        W 7823  18.404   6.103  22.447 -0.2090  0.2365  0.0143
 5624W        W 7824   4.613   2.279  22.530 -0.1503  0.0962  0.2722
 5625W        W 7825   5.615   3.686  15.702 -0.1257 -0.3426 -0.2353
 5626W        W 7826  14.112   7.679  20.245 -0.0621 -0.1234  0.2514
 5627W        W 7827  17.661   6.106   8.555  0.4061 -0.0567  0.0294
 5628W        W 7828   5.753   2.157  20.218 -0.1089  0.1612  0.1516
 5629W        W 7829   6.901   4.411  19.228  0.1224 -0.1819 -0.2575
 5630W        W 7830  14.693   4.081  15.588  0.1212 -0.0560  0.1013
 5631W        W 7831   7.619   5.583  22.698  0.1002 -0.0032  0.1132
 5632W        W 7832   3.368   1.760  22.950  0.1951 -0.2902 -0.0827
 5633W        W 7833  11.922   0.108   5.793  0.0641  0.2675 -0.0248
 5634W        W 7834  18.891   2.364   3.324  0.0869  0.4255  0.0377
 5635W        W 7835   5.765   5.183  21.892  0.1261 -0.1500 -0.2066
 5636W        W 7836  20.623   4.970  22.275 -0.0247 -0.0580 -0.0814
 5637W        W 7837  24.234   2.031   5.586 -0.0898 -0.1105 -0.0756
 5638W        W 7838  22.954   5.323  23.304  0.2112 -0.2004 -0.2984
 5639W        W 7839  14.188   1.333  20.258  0.0965  0.2311  0.1694
 5640W        W 7840  19.561   1.462   6.642  0.0332 -0.0160 -0.2673
 5641W        W 7841  17.210   6.134  17.818 -0.0775  0.2135  0.0032
 5642W        W 7842  25.884   4.841  25.498 -0.1726 -0.1319 -0.0893
 5643W        W 7843  18.561   2.165   8.705 -0.1476  0.1318  0.4889
 5644W        W 7844   2.706   7.766  23.359 -0.1687 -0.0246 -0.1226
 5645W        W 7845  21.356   4.605   4.835  0.1549 -0.1846  0.1620
 5646W        W 7846   7.055   4.512   5.269 -0.1164 -0.0959 -0.1944
 5647W        W 7847  25.206   0.424  22.479 -0.1273 -0.1551 -0.1529
 5648W        W 7848   0.551   2.345  20.558  0.0127 -0.0497 -0.0148
 5649W        W 7849  27.317   1.949   6.955 -0.2801  0.1332 -0.1377
 5650W        W 7850   9.282   3.707   5.202 -0.0721 -0.1678 -0.1712
 5651W        W 7851  22.848   0.453  18.392 -0.2469 -0.0884  0.1048
 5652W        W 7852   2.829   3.194  16.043  0.0347  0.0351 -0.0806
 5653W        W 7853  22.039   1.765   7.032  0.0275 -0.1098 -0.1355
 5654W        W 7854  12.571   2.399  25.262  0.5239 -0.0578  0.1528
 5655W        W 7855  25.236   2.076   2.302  0.0833 -0.0765  0.1587
 5656W        W 7856  22.915   2.745   0.126 -0.2014 -0.0223 -0.1186
 5657W        W 7857  11.859   3.369   7.284  0.0152  0.0620  0.2962
 5658W        W 7858   8.609   0.338   0.132  0.1205 -0.0022  0.3035
 5659W        W 7859  20.484   3.623  15.883 -0.1805 -0.0378  0.0684
 5660W        W 7860  16.143   3.705   0.044 -0.2624  0.1590  0.1002
 5661W        W 7861   6.209   2.556  23.520  0.1125 -0.0450  0.2066
 5662W        W 7862   7.482   1.275  25.932 -0.2889  0.1195  0.0821
 5663W        W 7863  20.362   7.260  17.854  0.0747  0.4833 -0.2186
 5664W        W 7864   8.533   3.589  20.364  0.1713  0.1021  0.0949
 5665W        W 7865   9.969   5.144   0.108  0.2440  0.1231 -0.3252
 5666W        W 7866  18.249   2.645  16.713  0.2616  0.0203 -0.2813
 5667W        W 7867  22.762   4.300   0.907  0.2437  0.0979 -0.2106
 5668W        W 7868  28.762   3.417   0.595  0.1612  0.1652 -0.0772
 5669W        W 7869   5.626   5.694  10.786  0.1739  0.2481  0.1385
 5670W        W 7870   9.834   7.320  21.260  0.2393 -0.0584  0.4043
 5671W        W 7871   1.120   1.002   9.310  0.4918 -0.1876 -0.1057
 5672W        W 7872  18.935   7.852  22.328 -0.0676  0.3715 -0.2159
 5673W        W 7873  25.067   2.230  25.713 -0.0976  0.2271  0.0291
 5674W        W 7874  14.260   0.157  23.626  0.1166 -0.0421  0.1116
 5675W        W 7875   7.392   0.543  14.797 -0.1407 -0.0417 -0.0768
 5676W        W 7876  31.250   4.219   9.267  0.0506 -0.1777 -0.0655
 5677W        W 7877  18.262   6.310   1.415  0.0806  0.0854  0.0865
 5678W        W 7878  23.700   2.813   3.010 -0.0429 -0.0361 -0.0767
 5679W        W 7879  25.628   2.559  10.016 -0.1466 -0.5782  0.1017
 5680W        W 7880  10.575   4.354   1.438  0.0108  0.1784  0.2034
 5681W        W 7881   4.820   0.900   5.267 -0.3087 -0.1160  0.0871
 5682W        W 7882   9.417   1.654  25.200  0.1316  0.2131  0.3538
 5683W        W 7883  17.619   0.803  11.251 -0.0944 -0.1811  0.1914
 5684W        W 7884  15.893   2.747   8.362 -0.1498 -0.0767  0.1124
 5685W        W 7885   1.300   4.019   1.318 -0.1724  0.1250 -0.0293
 5686W        W 7886  25.623   7.244   2.815 -0.0517  0.2845  0.1750
 5687W        W 7887  27.410   0.110   0.694  0.3148 -0.1524  0.1387
 5688W        W 7888   9.712   2.705   0.176  0.2248 -0.2953 -0.5404
 5689W        W 7889  30.163   5.700  15.593  0.0639  0.0009  0.0566
 5690W        W 7890   2.943   6.033  24.789 -0.0561 -0.1704 -0.1486
 5691W        W 7891   7.657   6.768  24.041 -0.2777 -0.1482  0.1016
 5692W        W 7892  11.900   7.738   8.702  0.1787  0.0346  0.0102
 5693W        W 7893  14.756   7.206  23.127  0.2438  0.1773 -0.0383
 5694W        W 7894  20.625   3.445  24.907  0.1137 -0.1466 -0.3606
 5695W        W 7895  16.313   1.359   7.246 -0.2004 -0.2092  0.0330
 5696W        W 7896  11.302   7.772   4.374  0.0389  0.0674 -0.1149
 5697W        W 7897  16.703   5.258  15.362 -0.0482 -0.2079 -0.1814
 5698W        W 7898  22.490   1.007  24.383 -0.1651 -0.0098 -0.0381
 5699W        W 7899  13.428   2.565   5.851 -0.0140  0.2136  0.0481
 5700W        W 7900  20.790   5.219   1.911  0.0472 -0.3858  0.1911
 5701W        W 7901  17.835   1.945  23.677 -0.0678  0.1601  0.1248
 5702W        W 7902  27.286   1.575  19.194  0.0613  0.0090 -0.1938
 5703W        W 7903  27.803   1.370   4.135  0.2415 -0.0586  0.2395
 5704W        W 7904  30.594   5.735  15.240  0.0085 -0.2764  0.1630
 5705W        W 7905  23.895   6.000  19.108  0.0869 -0.2941 -0.0086
 5706W        W 7906  26.890   6.172   8.910 -0.0294 -0.2356 -0.0308
 5707W        W 7907  21.639   3.257   3.060 -0.1563 -0.0550  0.1387
 5708W        W 7908  25.265   7.653  26.075  0.0291 -0.0199 -0.2528
 5709W        W 7909  24.305   0.602  24.902 -0.0493 -0.0736 -0.2101
 5710W        W 7910   8.474   7.010  21.548 -0.3911  0.0447 -0.2858
 5711W        W 7911  11.027   1.143   3.126 -0.0369 -0.0429 -0.0894
 5712W        W 7912   0.861   0.945  19.144  0.1163 -0.1404 -0.1930
 5713W        W 7913  20.158   3.544   5.203  0.1051  0.0768 -0.0899
 5714W        W 7914  24.825   3.601   7.240 -0.0284 -0.1851 -0.0351
 5715W        W 7915  30.859   7.605  11.091  0.1076  0.2461 -0.0502
 5716W        W 7916  28.582   2.420  18.390  0.3801 -0.2382  0.1050
 5717W        W 7917   0.409   2.358   7.855 -0.1477  0.3104  0.1702
 5718W        W 7918   4.247   7.265   0.216 -0.0473  0.0047 -0.1582
 5719W        W 7919  22.263   4.345   9.452  0.0770  0.3206 -0.0914
 5720W        W 7920   5.618   3.263   9.418  0.1185 -0.0040  0.2002
 5721W        W 7921  23.158   7.840  10.451 -0.0767  0.0470  0.0390
 5722W        W 7922   5.141   7.469  14.617 -0.2603 -0.2484  0.1243
 5723W        W 7923  12.515   6.073  24.196 -0.0962  0.1278  0.0671
 5724W        W 7924   9.277   0.988  25.351 -0.1061 -0.0977  0.1100
 5725W        W 7925  19.962   4.807  16.741  0.0093 -0.0752  0.1501
 5726W        W 7926  21.527   4.290   3.332 -0.1752 -0.1560 -0.0517
 5727W        W 7927  10.670   0.514   1.057  0.0530  0.1143  0.4496
 5728W        W 7928  21.176   0.517   1.128 -0.0738  0.0070 -0.0192
 5729W        W 7929  22.380   4.397  22.697  0.2202 -0.2353  0.1081
 5730W        W 7930   4.225   5.347   0.943 -0.4278 -0.2605 -0.0995
 5731W        W 7931  22.843   0.838   1.886  0.0527 -0.2066 -0.0877
 5732W        W 7932  18.617   0.462  16.873  0.2730 -0.0657  0.0597
 5733W        W 7933  30.148   3.446   6.769  0.1957 -0.1905  0.0020
 5734W        W 7934   0.970   2.677   7.111  0.0830  0.2126  0.0958
 5735W        W 7935  11.747   4.441   6.465 -0.1701 -0.0995 -0.0860
 5736W        W 7936   6.300   5.999  20.560 -0.0052  0.2416 -0.0289
 5737W        W 7937  18.640   2.955  19.857 -0.2909  0.1503 -0.1347
 5738W        W 7938   1.318   3.541   9.319 -0.0524  0.0731 -0.0830
 5739W        W 7939  18.575   6.701   7.006 -0.3458 -0.2230 -0.1231
 5740W        W 7940   9.789   4.262   2.651  0.2034 -0.0429 -0.1034
 5741W        W 7941  10.124   1.972   7.305 -0.0825 -0.4394  0.0647
 5742W        W 7942  11.292   2.590   8.318 -0.0547  0.3963 -0.1343
 5743W        W 7943  25.366   4.662  21.708 -0.2173 -0.1654  0.0921
 5744W        W 7944   1.411   6.333  10.644 -0.1845 -0.0222 -0.0279
 5745W        W 7945   3.155   6.024   9.562 -0.1483 -0.0030 -0.0652
 5746W        W 7946  11.942   5.129  11.761 -0.3096 -0.0303  0.1082
 5747W        W 7947  19.350   2.491   7.240 -0.0327 -0.3060 -0.3219
 5748W        W 7948  31.441   0.749  10.196  0.1884 -0.0568 -0.1051
 5749W        W 7949  25.285   4.585  16.958 -0.0905 -0.0511  0.0447
 5750W        W 7950  27.797   1.786   1.292  0.0291 -0.1330  0.2199
 5751W        W 7951  23.967   6.245   1.570 -0.2985 -0.1820 -0.0273
 5752W        W 7952   3.879   5.403   8.115  0.1886 -0.1042  0.0502
 5753W        W 7953  28.101   5.720  25.900  0.1183 -0.3539 -0.0549
 5754W        W 7954  18.402   1.241  15.434 -0.1211  0.1593 -0.0314
 5755W        W 7955  29.779   1.594   3.883  0.1086 -0.1916  0.1345
 5756W        W 7956  27.819   1.978  10.333  0.0661 -0.1904  0.1842
 5757W        W 7957   0.601   6.808  23.148  0.0294 -0.1823 -0.0708
 5758W        W 7958   1.444   4.268  20.391  0.2528 -0.1386 -0.2401
 5759W        W 7959  18.295   5.823  11.422  0.0522 -0.3029  0.1064
 5760W        W 7960  30.426   2.021  20.982  0.0233  0.0784  0.2660
 5761W        W 7961   5.747   5.007  19.917  0.1590 -0.1493 -0.0184
 5762W        W 7962  29.563   1.905  10.360  0.1394 -0.4107 -0.0310
 5763W        W 7963   1.256   6.255  10.064  0.2332 -0.0756 -0.3136
 5764W        W 7964   8.383   0.721  10.084  0.3026 -0.1911  0.3060
 5765W        W 7965   8.852   1.203  24.047 -0.0686 -0.1302 -0.0647
 5766W        W 7966  11.697   3.216   2.812  0.1946 -0.2445 -0.1930
 5767W        W 7967  29.638   6.942  19.123  0.0445 -0.2447  0.0509
 5768W        W 7968   6.530   7.482   7.045 -0.0307  0.0549 -0.2417
 5769W        W 7969  24.381   7.215  25.810 -0.0625 -0.0058  0.0444
 5770W        W 7970  10.268   3.256  21.699  0.0170  0.1233 -0.1206
 5771W        W 7971  13.427   1.807  10.441  0.1075  0.0905 -0.0258
 5772W        W 7972  31.228   3.376  21.107  0.1623  0.0663  0.0314
 5773W        W 7973  10.453   4.141   2.900 -0.1509  0.1346 -0.1126
 5774W        W 7974  17.729   5.165  10.630 -0.1189  0.2460  0.0605
 5775W        W 7975  18.521   0.550  22.777  0.1489 -0.1352  0.0928
 5776W        W 7976  14.493   3.210  24.291 -0.0503 -0.3115  0.0296
 5777W        W 7977  21.102   7.663   9.666  0.1136 -0.0289 -0.3240
 5778W        W 7978  18.672   4.180  17.171 -0.0436 -0.3222  0.1202
 5779W        W 7979  14.223   7.484  10.385 -0.0445  0.1361  0.3180
 5780W        W 7980  19.747   1.243   9.804  0.1357  0.0070 -0.0017
 5781W        W 7981  23.530   7.271   8.553  0.2663  0.1758  0.2720
 5782W        W 7982   6.926   3.178  17.464  0.1160  0.0163  0.1777
 5783W        W 7983  18.490   3.265   8.453  0.0166 -0.2291 -0.0502
 5784W        W 7984   8.928   7.163   6.659 -0.2193  0.0359  0.0145
 5785W        W 7985  21.909   2.949  18.384 -0.2186 -0.2940 -0.0038
 5786W        W 7986  10.515   0.131   2.067  0.1474  0.0139  0.0519
 5787W        W 7987   8.415   1.151  18.775 -0.2132 -0.0725 -0.4436
 5788W        W 7988  20.909   1.832   3.609  0.2580 -0.1359 -0.0503
 5789W        W 7989  27.130   1.610  22.227 -0.2537  0.1371 -0.0061
 5790W        W 7990   8.207   3.657   5.743  0.0046 -0.1387 -0.1152
 5791W        W 7991  23.630   2.521   9.503  0.2419 -0.0289  0.0642
 5792W        W 7992   1.045   1.528  17.048 -0.1424 -0.4849  0.2680
 5793W        W 7993   3.556   6.149  17.469 -0.1188  0.0022 -0.0975
 5794W        W 7994   4.216   3.985  24.960  0.0777  0.1580  0.1462
 5795W        W 7995  21.824   5.073   2.863  0.2556 -0.0504 -0.2054
 5796W        W 7996  18.458   4.665  21.715  0.0841  0.1432 -0.0259
 5797W        W 7997   0.274   7.108   4.806 -0.1010 -0.1237  0.1288
 5798W        W 7998  14.216   0.129  10.204 -0.2236  0.0703  0.0158
 5799W        W 7999   9.352   4.930  21.788 -0.1119 -0.0859 -0.0184
 5800W        W 8000   9.348   6.043  22.616  0.1666 -0.0603  0.1472
 5801W        W 8001   7.081   5.264   5.587  0.0894 -0.0489  0.1266
 5802W        W 8002   4.249   4.587   1.464 -0.1394  0.2574  0.2771
 5803W        W 8003  14.442   7.266  24.928 -0.0936  0.2093 -0.1034
 5804W        W 8004   5.385   5.027   6.146 -0.1051  0.0085 -0.0951
 5805W        W 8005  25.647   0.327   0.739 -0.1388  0.1878 -0.2095
 5806W        W 8006   6.944   7.432   9.095  0.1746  0.1580  0.0836
 5807W        W 8007  28.761   5.025  22.339  0.2881  0.1262  0.2288
 5808W        W 8008   8.310   2.812   2.427  0.2817  0.1811 -0.2194
 5809W        W 8009   9.863   2.014  15.364 -0.0213 -0.2781  0.2328
 5810W        W 8010  20.196   0.969   9.777  0.2410 -0.2624  0.1926
 5811W        W 8011  15.829   2.525   1.122  0.3463 -0.0163  0.3205
 5812W        W 8012  28.969   3.963  10.453  0.0979  0.0583 -0.1587
 5813W        W 8013   6.146   4.573   8.475  0.0119  0.1197 -0.0379
 5814W        W 8014  29.573   1.465   2.125 -0.1809 -0.0580 -0.3053
 5815W        W 8015  11.799   4.767  24.084 -0.2096 -0.1092 -0.2117
 5816W        W 8016  31.299   0.518  18.366  0.0385  0.2217  0.3378
 5817W        W 8017  29.321   7.419   2.141 -0.1825  0.0682  0.0754
 5818W        W 8018  30.845   1.904  22.818 -0.0372 -0.1696 -0.1720
 5819W        W 8019  10.690   6.797  21.961  0.0525  0.0766 -0.4284
 5820W        W 8020  28.095   1.905   7.201 -0.0910  0.1038 -0.1027
 5821W        W 8021  29.468   0.928   3.655  0.1761 -0.2922  0.0756
 5822W        W 8022  21.799   5.758  18.187 -0.0163 -0.1077  0.0682
 5823W        W 8023   9.954   2.786   4.444 -0.3198 -0.0897  0.0461
 5824W        W 8024  15.505   4.921  16.724 -0.2384  0.1377 -0.5160
 5825W        W 8025  18.411   4.563   6.220  0.1690 -0.2634  0.2558
 5826W        W 8026  30.486   4.282   3.627  0.0349  0.1487  0.0844
 5827W        W 8027   1.053   2.241   7.291 -0.1348  0.0218  0.2813
 5828W        W 8028   6.124   2.724  16.136 -0.1986  0.0379 -0.0817
 5829W        W 8029   7.104   7.278  22.784  0.1774 -0.0528  0.2669
 5830W        W 8030  26.101   5.235  19.974  0.1801  0.1274 -0.0213
 5831W        W 8031  19.200   7.258  16.428  0.1112  0.0793 -0.1335
 5832W        W 8032  14.449   2.152  25.578  0.0238 -0.1199 -0.0472
 5833W        W 8033  13.093   3.974   4.450  0.1647  0.3580  0.1147
 5834W        W 8034   0.800   4.465  22.588 -0.0878 -0.0095  0.0716
 5835W        W 8035  28.420   1.770   4.510 -0.0255 -0.3737  0.0085
 5836W        W 8036   9.194   1.764   9.686 -0.0816 -0.2137  0.1501
 5837W        W 8037  18.067   3.814   4.059 -0.1215  0.1058 -0.3216
 5838W        W 8038  26.723   5.700  24.934 -0.2724  0.2982  0.0721
 5839W        W 8039  16.770   4.224   1.092  0.1190 -0.1684 -0.1086
 5840W        W 8040   6.955   7.582  15.574  0.0136 -0.2087 -0.2792
 5841W        W 8041   0.129   7.390  15.549 -0.3514 -0.0509 -0.1352
 5842W        W 8042   4.247   0.052   6.295 -0.0068  0.0229  0.0108
 5843W        W 8043  20.677   2.152  15.673 -0.3328  0.1066 -0.0059
 5844W        W 8044  31.115   6.223   4.123  0.0012  0.0214 -0.0569
 5845W        W 8045  31.325   3.891   3.646  0.0353  0.2299 -0.1882
 5846W        W 8046  29.791   6.979  22.171  0.1271  0.2381  0.0113
 5847W        W 8047  14.207   4.273  18.580 -0.2155  0.1777 -0.0904
 5848W        W 8048  13.572   1.875   5.724 -0.0169  0.0057 -0.0360
 5849W        W 8049   1.649   5.523  23.902  0.2194 -0.2141  0.0602
 5850W        W 8050   5.470   4.697   9.685  0.3332 -0.0021 -0.0484
 5851W        W 8051   6.929   2.449  15.353 -0.3168 -0.1647 -0.0197
 5852W        W 8052  17.180   2.789  18.995  0.1388  0.1341  0.0670
 5853W        W 8053   6.211   6.454   6.701 -0.1082  0.0974 -0.2198
 5854W        W 8054   0.087   7.421   7.695 -0.0984  0.2170  0.0477
 5855W        W 8055  13.358   7.651   3.764 -0.2725 -0.1343 -0.0341
 5856W        W 8056  10.698   4.725   2.515  0.0049 -0.2075 -0.0633
 5857W        W 8057  22.162   7.453   2.109 -0.0082 -0.1800  0.2130
 5858W        W 8058   4.931   4.210   4.576 -0.0901  0.2729 -0.3001
 5859W        W 8059  16.051   3.431   4.599 -0.0656 -0.4399  0.2197
 5860W        W 8060  20.280   4.237  23.820  0.0644  0.0863 -0.0851
 5861W        W 8061   4.788   5.451  25.384 -0.1425  0.1180  0.0750
 5862W        W 8062  17.606   6.046  23.776 -0.4102 -0.1180 -0.0456
 5863W        W 8063  19.261   0.283  24.694 -0.0635  0.2217 -0.1246
 5864W        W 8064   4.986   6.773  16.329 -0.2403 -0.1660 -0.0905
 5865W        W 8065  26.108   6.575   8.788 -0.0307  0.0371  0.0546
 5866W        W 8066  30.176   2.994  17.780  0.1565  0.2173 -0.3205
 5867W        W 8067  24.714   1.859   1.203  0.1504  0.3073 -0.0812
 5868W        W 8068  24.642   5.544   6.392  0.0665  0.0747  0.1014
 5869W        W 8069  23.904   7.275  25.642 -0.0669 -0.1329  0.0412
 5870W        W 8070  29.962   0.725  21.096 -0.3029  0.1054  0.1312
 5871W        W 8071   8.951   0.411  22.734 -0.2463 -0.0259 -0.0269
 5872W        W 8072  23.373   0.996  20.057  0.0768 -0.2356  0.0831
 5873W        W 8073   0.754   6.539   9.956  0.2464  0.3716  0.1371
 5874W        W 8074  14.728   0.386  21.573 -0.2079  0.2027  0.2666
 5875W        W 8075  27.082   5.317  10.681  0.1591 -0.0432 -0.1687
 5876W        W 8076  22.844   5.826  25.363 -0.2071 -0.3071 -0.0824
 5877W        W 8077   6.099   5.848   0.237  0.0927  0.0658  0.1542
 5878W        W 8078   2.652   4.446   5.832 -0.0539 -0.2295  0.2227
 5879W        W 8079   4.535   1.453   9.676 -0.1479  0.0847 -0.0992
 5880W        W 8080  18.783   6.741  11.127  0.0424  0.3821  0.1509
 5881W        W 8081  17.104   7.126   5.180 -0.1395  0.2410 -0.0307
 5882W        W 8082  19.714   3.184  11.200 -0.1161  0.0662  0.1656
 5883W        W 8083   8.109   4.441  18.077  0.0669 -0.1401 -0.1742
 5884W        W 8084  26.033   3.727  22.204 -0.3620  0.4588 -0.2105
 5885W        W 8085  23.965   0.065  19.416  0.0698  0.2258  0.1760
 5886W        W 8086  14.083   4.637   8.615 -0.2191  0.1463 -0.1064
 5887W        W 8087  11.796   3.879   6.997 -0.0051  0.2220  0.0634
 5888W        W 8088   4.808   3.833  23.963 -0.1289  0.0820 -0.0209
 5889W        W 8089  24.684   0.892  21.386  0.1671  0.2094 -0.0873
 5890W        W 8090  25.326   5.956   7.882 -0.1625 -0.3333  0.0557
 5891W        W 8091  27.584   5.835  19.044  0.2336  0.0455  0.0625
 5892W        W 8092  24.006   7.521  22.621 -0.4182 -0.1350  0.3932
 5893W        W 8093  27.736   2.641   1.623  0.3532 -0.1513 -0.1451
 5894W        W 8094   7.462   3.520  25.967  0.3472 -0.3565  0.2607
 5895W        W 8095   4.500   0.766   5.654  0.0391 -0.0274 -0.2056
 5896W        W 8096  26.767   2.212  22.884  0.0064  0.2288  0.1320
 5897W        W 8097  23.093   3.978  16.334 -0.0513  0.0613 -0.0265
 5898W        W 8098   6.151   3.739   2.130 -0.5328  0.0549  0.2117
 5899W        W 8099  28.296   4.687   0.186  0.1601 -0.1502 -0.1195
 5900W        W 8100   2.173   0.443  16.601  0.0192  0.3443 -0.2428
 5901W        W 8101  24.479   5.578  23.740 -0.0083 -0.1504 -0.0929
 5902W        W 8102  30.102   4.383  19.329  0.3473  0.0359 -0.0571
 5903W        W 8103  24.929   4.569   8.163  0.2195  0.1943 -0.0991
 5904W        W 8104  24.343   1.232   1.433 -0.1626 -0.4368 -0.1566
 5905W        W 8105  20.335   6.607  18.677 -0.0903  0.3330 -0.0214
 5906W        W 8106  31.167   6.012  24.462 -0.0423 -0.2783 -0.1084
 5907W        W 8107   9.838   3.692  17.822 -0.1323 -0.0600 -0.2187
 5908W        W 8108   6.532   0.549  25.520  0.0316 -0.1962 -0.2814
 5909W        W 8109  15.829   1.297  20.039 -0.3151 -0.1503  0.1008
 5910W        W 8110  21.808   7.034   0.940 -0.1937 -0.0598  0.1929
 5911W        W 8111   9.290   2.684   3.410 -0.0064 -0.0105  0.2158
 5912W        W 8112   9.862   3.666   3.225  0.4363 -0.2906  0.1138
 5913W        W 8113  17.879   6.970   3.852 -0.0894 -0.0457 -0.2533
 5914W        W 8114  28.346   1.625   4.068 -0.0147 -0.1377  0.0927
 5915W        W 8115   1.061   6.484  26.075  0.2126  0.2466 -0.2332
 5916W        W 8116  18.142   1.512   1.742  0.1529  0.2117  0.1023
 5917W        W 8117   1.875   2.369   5.360  0.0454  0.0832 -0.1342
 5918W        W 8118   3.366   1.408   6.933 -0.0371 -0.1790  0.0981
 5919W        W 8119  11.502   0.885   5.427 -0.0994 -0.3025  0.1596
 5920W        W 8120  18.773   7.378  10.459 -0.0557 -0.1318  0.0729
 5921W        W 8121  15.536   2.308  17.006 -0.0098 -0.1381 -0.1763
 5922W        W 8122   1.388   2.523  20.404  0.1248 -0.2734 -0.2297
 5923W        W 8123  10.381   5.314  10.673  0.0830 -0.0284  0.1063
 5924W        W 8124   6.643   0.345  16.399  0.3266  0.0079 -0.0574
 5925W        W 8125   7.530   6.275  17.611  0.1873 -0.4646 -0.1229
 5926W        W 8126   2.420   1.408   0.657  0.0761  0.0468 -0.3236
 5927W        W 8127  18.306   0.790  21.950 -0.1441 -0.0567  0.2925
 5928W        W 8128  12.865   5.812  23.240 -0.2853  0.0973 -0.0830
 5929W        W 8129   8.128   2.524   9.843  0.1468  0.1892  0.1000
 5930W        W 8130   1.399   2.623   3.611 -0.3303 -0.0117  0.0353
 5931W        W 8131  16.239   0.815   2.892  0.0902  0.0546  0.0400
 5932W        W 8132   5.348   3.230  17.323  0.0769  0.3228 -0.0503
 5933W        W 8133   1.466   1.245   3.763 -0.1344 -0.0178  0.4040
 5934W        W 8134  30.920   1.948   0.112 -0.0550 -0.0036  0.3172
 5935W        W 8135  19.826   5.087   9.273  0.1537  0.1686  0.0884
 5936W        W 8136  13.779   2.932   5.808 -0.0673 -0.1185 -0.2236
 5937W        W 8137  25.633   3.115   7.324  0.2808 -0.0692 -0.1351
 5938W        W 8138  10.031   3.780   1.776  0.2514  0.0782  0.1791
 5939W        W 8139  29.166   1.325   4.680 -0.2924 -0.0471  0.3759
 5940W        W 8140  29.850   5.702  16.036 -0.1564 -0.0705  0.0699
 5941W        W 8141  16.372   5.587  21.142 -0.2849 -0.0056  0.1693
 5942W        W 8142  15.139   0.339  19.202  0.1546 -0.1881 -0.0318
 5943W        W 8143  28.392   5.706   1.831 -0.1554  0.0436  0.1865
 5944W        W 8144   4.110   5.261   3.397  0.0262  0.2330  0.2688
 5945W        W 8145  11.734   1.305  22.402 -0.0695  0.0920 -0.1115
 5946W        W 8146  18.379   7.129  19.264 -0.2637 -0.2628  0.0997
 5947W        W 8147  14.449   3.689  20.251  0.0349  0.2224 -0.0074
 5948W        W 8148   4.589   4.086  20.439 -0.0266  0.3203  0.2134
 5949W        W 8149  30.594   2.451  20.548 -0.1653  0.2532  0.0718
 5950W        W 8150  28.546   6.788   6.745 -0.0351 -0.1137  0.2990
 5951W        W 8151   1.508   7.029  22.081  0.1968 -0.3328 -0.1211
 5952W        W 8152  10.414   3.045  25.846  0.2533  0.1843 -0.0948
 5953W        W 8153   7.046   1.047   1.150 -0.0032 -0.1522 -0.1401
 5954W        W 8154  20.015   6.398   6.596 -0.1346  0.0327  0.1417
 5955W        W 8155  20.717   1.122  20.087  0.0914 -0.1740  0.4075
 5956W        W 8156  30.305   1.047  20.338  0.0320  0.0518  0.0515
 5957W        W 8157  11.772   2.873   2.363  0.1357  0.4355 -0.0016
 5958W        W 8158   8.485   1.293  25.010 -0.1138 -0.0533 -0.1174
 5959W        W 8159  20.250   4.974   9.614 -0.1446 -0.0458 -0.2135
 5960W        W 8160   8.229   2.910  18.625  0.1859  0.3528  0.1825
 5961W        W 8161  27.685   2.911  22.552  0.2056  0.3644  0.0185
 5962W        W 8162  18.878   3.657   9.214  0.0139 -0.2841  0.0616
 5963W        W 8163   1.596   7.203   0.465  0.0153 -0.1273 -0.1279
 5964W        W 8164  19.848   4.980   2.006  0.1117  0.1661 -0.0039
 5965W        W 8165  17.985   4.201  10.520 -0.0350  0.1398 -0.1443
 5966W        W 8166  23.636   7.376  16.142 -0.0603 -0.0348  0.0386
 5967W        W 8167   7.042   7.371   2.258 -0.1681  0.0473 -0.3195
 5968W        W 8168  19.073   2.833   4.948  0.0443  0.0517  0.1160
 5969W        W 8169   2.359   2.030   3.469 -0.0039  0.3010  0.2648
 5970W        W 8170  21.756   5.221   5.396 -0.1865 -0.1362 -0.2390
 5971W        W 8171   3.446   1.339  16.936  0.1595  0.0269  0.0240
 5972W        W 8172  29.343   2.357  15.144  0.3747  0.0434 -0.0512
 5973W        W 8173  10.022   2.218   1.364 -0.0698  0.1686 -0.2039
 5974W        W 8174  10.102   3.570  11.410 -0.0157 -0.0860  0.0252
 5975W        W 8175   2.880   2.310   5.176 -0.2964  0.1994 -0.2053
 5976W        W 8176  29.880   7.243   8.275 -0.0691  0.3456 -0.3026
 5977W        W 8177  13.478   2.863   6.276  0.3113  0.0043 -0.1334
 5978W        W 8178  19.207   2.908   3.064 -0.3087 -0.1977 -0.2938
 5979W        W 8179  26.510   2.390   2.842 -0.1297 -0.1092 -0.0206
 5980W        W 8180   2.969   6.459   5.849  0.0448  0.0421 -0.1681
 5981W        W 8181  19.156   6.698  15.152 -0.1020 -0.0498 -0.0652
 5982W        W 8182   8.951   2.392   3.704 -0.0137  0.3109  0.1717
 5983W        W 8183   3.752   7.127   0.460 -0.0346  0.3766  0.2465
 5984W        W 8184  22.014   5.870  21.798  0.2034  0.4717 -0.0304
 5985W        W 8185  17.051   5.884  10.840 -0.2822  0.4558  0.2850
 5986W        W 8186  25.801   3.505  10.510  0.1490  0.2188 -0.1841
 5987W        W 8187  15.045   6.769  17.161  0.2418  0.0424 -0.0041
 5988W        W 8188   5.206   2.346   6.751  0.0629 -0.1293 -0.2148
 5989W        W 8189  14.212   0.916  20.832  0.0550 -0.1212 -0.3267
 5990W        W 8190   3.088   7.516   9.916 -0.0422 -0.1114 -0.1151
 5991W        W 8191  18.563   4.092  16.278 -0.1101 -0.2387 -0.1926
 5992W        W 8192   5.193   1.847  20.337  0.0361  0.2999  0.0042
 5993W        W 8193  25.357   3.152   1.747  0.1117 -0.0114  0.2162
 5994W        W 8194  18.499   0.776  23.379  0.0070  0.0400  0.0336
 5995W        W 8195   8.286   7.283   0.947  0.0567 -0.0564 -0.1396
 5996W        W 8196  15.935   7.550  23.816 -0.0284 -0.1615  0.3867
 5997W        W 8197  10.038   6.863   6.130  0.0363 -0.2273  0.1142
 5998W        W 8198   2.451   3.712   8.752  0.0162  0.0492 -0.3062
 5999W        W 8199   3.016   5.456   9.899  0.0166 -0.0533 -0.0644
 6000W        W 8200  29.867   2.135  21.022  0.0773  0.0358 -0.1791
 6001W        W 8201  20.417   5.379  23.085 -0.3851 -0.0707 -0.2506
 6002W        W 8202  17.585   2.320   3.282 -0.0631 -0.1450  0.3967
 6003W        W 8203   6.251   2.272  15.897  0.0210  0.2602  0.2447
 6004W        W 8204   9.303   3.975   1.105 -0.2156  0.2173 -0.3057
 6005W        W 8205   1.662   2.967  25.995 -0.1679 -0.2343  0.0366
 6006W        W 8206  23.534   7.849   1.582 -0.0729 -0.0243  0.0108
 6007W        W 8207   3.333   5.114  18.011 -0.2752 -0.2516  0.0544
 6008W        W 8208   6.805   6.000  16.888 -0.0079 -0.2171 -0.1459
 6009W        W 8209  31.238   6.545  16.643  0.0654 -0.0630  0.0083
 6010W        W 8210  14.110   1.609   8.022  0.1745  0.0687  0.0031
 6011W        W 8211  22.330   6.770  11.521 -0.1555  0.0744  0.1393
 6012W        W 8212   6.878   2.488   3.737  0.1218  0.1931  0.3060
 6013W        W 8213  26.474   1.201   2.302  0.0865  0.2164  0.0746
 6014W        W 8214  19.823   6.325   2.220  0.0221  0.4255  0.2167
 6015W        W 8215  21.923   2.722  19.482  0.2024  0.1119 -0.2384
 6016W        W 8216   9.201   7.502  19.161  0.0488 -0.0655 -0.1257
 6017W        W 8217   1.747   2.333  20.043  0.0320  0.0861  0.2000
 6018W        W 8218  20.478   4.317  24.699  0.0235  0.0825  0.0881
 6019W        W 8219   7.110   5.559  15.617  0.0697  0.2083 -0.1153
 6020W        W 8220  22.398   6.163  24.614 -0.3280  0.2117 -0.2401
 6021W        W 8221  30.138   7.170   0.344 -0.2019 -0.2725 -0.2617
 6022W        W 8222  20.725   6.987  19.460  0.0911 -0.3139  0.1924
 6023W        W 8223  17.763   7.642  24.986 -0.0199  0.2273 -0.0024
 6024W        W 8224  21.521   1.344  21.314  0.3719  0.1533 -0.3128
 6025W        W 8225   8.140   1.184   6.539  0.2211  0.2462 -0.2618
 6026W        W 8226  28.276   3.812  20.263  0.0036 -0.0313 -0.2030
 6027W        W 8227   4.816   2.085   2.406 -0.1988 -0.1245  0.1304
 6028W        W 8228  10.432   4.802   0.141 -0.2301  0.2345 -0.1529
 6029W        W 8229  30.575   1.321  24.643 -0.2033  0.0023 -0.1659
 6030W        W 8230   8.347   2.595   7.847  0.2319  0.1630 -0.2523
 6031W        W 8231   3.644   5.598  16.909  0.0486 -0.0273 -0.4158
 6032W        W 8232  14.152   3.100  19.171  0.1367 -0.0904  0.3331
 6033W        W 8233  17.920   5.059   3.588 -0.1079 -0.0017 -0.2696
 6034W        W 8234  15.344   2.273  20.532  0.1791  0.3143  0.1505
 6035W        W 8235  24.602   4.420   5.385 -0.1082  0.2624 -0.0135
 6036W        W 8236  12.269   3.358  10.152  0.2045 -0.1096  0.2455
 6037W        W 8237  27.989   7.035  17.623  0.2474 -0.3212 -0.1722
 6038W        W 8238  25.852   0.410  18.497  0.0658  0.1543  0.1588
 6039W        W 8239   8.208   6.892  20.768 -0.0052  0.1535 -0.0764
 6040W        W 8240   9.057   7.562  16.095 -0.0621  0.2179 -0.1981
 6041W        W 8241  17.344   7.760  15.332  0.1786 -0.0887  0.0991
 6042W        W 8242  27.638   3.028   0.918 -0.0341  0.1201 -0.2368
 6043W        W 8243  15.991   5.507   6.859  0.0786 -0.2365 -0.0422
 6044W        W 8244  27.132   6.223   2.439  0.1233  0.0408 -0.0834
 6045W        W 8245   6.500   1.112   1.347  0.3311 -0.1053 -0.1049
 6046W        W 8246   1.677   2.224   3.951  0.0376  0.0137 -0.0316
 6047W        W 8247   7.747   0.095   9.074  0.0005 -0.1990  0.0590
 6048W        W 8248  20.481   0.337   4.955  0.0329  0.0354  0.2863
 6049W        W 8249  21.844   4.544  25.566 -0.0962  0.1867 -0.1358
 6050W        W 8250  18.022   6.559  23.560 -0.3404  0.1851 -0.0605
 6051W        W 8251   4.541   2.371  15.589  0.1767 -0.1138  0.3266
 6052W        W 8252  18.532   5.036   5.975  0.1231  0.1485 -0.0209
 6053W        W 8253   7.321   4.860  20.509 -0.0339  0.1844  0.0149
 6054W        W 8254  18.989   5.803   2.547 -0.4708  0.1803  0.1365
 6055W        W 8255   0.852   2.839   4.776  0.0293 -0.0158  0.0293
 6056W        W 8256   0.370   6.464  15.215  0.1909  0.0270 -0.0339
 6057W        W 8257   2.147   7.846  17.897 -0.0527  0.2622  0.0241
 6058W        W 8258  19.997   0.036   1.245  0.1711 -0.1591  0.3037
 6059W        W 8259  12.240   5.244   4.372 -0.1384 -0.2045 -0.1708
 6060W        W 8260   2.619   3.904  17.313  0.0645  0.1094 -0.0406
 6061W        W 8261  16.525   5.547  25.958 -0.1384 -0.0576 -0.0002
 6062W        W 8262  12.024   0.859  22.228  0.1027  0.0642  0.0874
 6063W        W 8263  11.254   2.137  23.470  0.0054  0.2370 -0.1241
 6064W        W 8264  23.137   0.106  18.144 -0.0051 -0.0290 -0.3314
 6065W        W 8265   6.213   3.791   4.356  0.0625  0.1720 -0.0893
 6066W        W 8266  14.323   4.975  16.542  0.3650  0.2188 -0.1715
 6067W        W 8267  17.426   1.094  23.561 -0.0537 -0.2756 -0.1429
 6068W        W 8268   1.530   3.292  22.108 -0.0711 -0.0709  0.0627
 6069W        W 8269  13.395   3.327   6.319 -0.1183 -0.1115  0.1242
 6070W        W 8270   3.943   0.551  22.061  0.3105  0.2657 -0.1176
 6071W        W 8271   1.857   2.854  23.716  0.3468  0.0254  0.0676
 6072W        W 8272  22.631   7.814  24.480 -0.1789  0.0825 -0.0521
 6073W        W 8273   9.760   2.202  15.837  0.0553  0.1950 -0.2580
 6074W        W 8274   9.558   6.630   6.068 -0.2647  0.0670  0.0708
 6075W        W 8275  24.279   4.086   1.047 -0.0900 -0.0956  0.1721
 6076W        W 8276   2.362   4.523   4.836  0.1349 -0.3090  0.0061
 6077W        W 8277  21.661   7.407   5.435  0.0222 -0.0398 -0.0059
 6078W        W 8278  28.007   0.476   3.055  0.1040  0.2644 -0.0373
 6079W        W 8279  22.305   1.804   2.987 -0.1394 -0.0093  0.2377
 6080W        W 8280  16.112   4.658  25.837  0.0710  0.0888  0.2024
 6081W        W 8281   4.577   2.060  25.641  0.0707 -0.1924 -0.3512
 6082W        W 8282   4.652   0.473  22.854  0.2767 -0.0846 -0.2126
 6083W        W 8283  15.933   6.144   4.177  0.0690  0.1094 -0.0229
 6084W        W 8284  10.362   2.450   3.722 -0.2351 -0.0108 -0.0885
 6085W        W 8285  19.421   1.118   9.277  0.0314 -0.0978  0.3572
 6086W        W 8286  12.676   5.976  17.283  0.2629 -0.0051 -0.0285
 6087W        W 8287  16.808   2.278  17.364  0.1110  0.1418  0.1290
 6088W        W 8288  16.611   1.587  25.343 -0.0766 -0.4855  0.3057
 6089W        W 8289   9.163   0.219  16.305 -0.2475 -0.0058 -0.1236
 6090W        W 8290   0.754   0.240  14.869 -0.0355 -0.1594 -0.0183
 6091W        W 8291   2.154   1.453  23.790 -0.0610 -0.0626  0.0211
 6092W        W 8292   2.013   2.912  25.557 -0.0531  0.2161 -0.2500
 6093W        W 8293   0.362   5.034  14.913  0.0465 -0.2344 -0.2352
 6094W        W 8294  14.934   0.019   4.107 -0.2107 -0.0208  0.3720
 6095W        W 8295   7.757   1.087  23.269 -0.0241  0.0624  0.0575
 6096W        W 8296  27.705   3.898  20.437  0.0626 -0.3262  0.2600
 6097W        W 8297  18.185   3.476  19.625  0.2750 -0.3911  0.0060
 6098W        W 8298  17.687   7.069   6.132  0.2751 -0.4389  0.0396
 6099W        W 8299  30.551   5.316  24.044  0.0405 -0.2970  0.1008
 6100W        W 8300   7.315   6.732   7.161  0.0543 -0.3405  0.0996
 6101W        W 8301  20.456   5.746  15.905 -0.0607 -0.0572  0.2625
 6102W        W 8302   1.652   1.017  23.108  0.3018 -0.0519 -0.0553
 6103W        W 8303  14.498   4.366   5.872 -0.0343 -0.0298 -0.2058
 6104W        W 8304  22.898   3.995  10.340 -0.0241 -0.0822  0.1225
 6105W        W 8305  20.334   4.703  17.046 -0.0856  0.2008  0.1139
 6106W        W 8306  14.215   4.180  21.534  0.1926  0.0049 -0.0147
 6107W        W 8307   9.630   5.127   4.215  0.1519  0.2634 -0.1133
 6108W        W 8308  24.149   4.354   3.169  0.0183 -0.1192 -0.4179
 6109W        W 8309  20.261   0.147   7.217  0.3377  0.0753 -0.0176
 6110W        W 8310  27.485   0.419   3.058  0.3167  0.0481 -0.0771
 6111W        W 8311   7.415   7.583   6.105  0.0056  0.0508  0.1194
 6112W        W 8312   3.579   2.795  21.974  0.0555  0.3029  0.2681
 6113W        W 8313   9.576   7.752  19.666  0.0508 -0.0487  0.1781
 6114W        W 8314  13.442   0.590  20.642 -0.0341 -0.1496  0.1355
 6115W        W 8315  14.857   5.987   8.715  0.0262 -0.0638  0.1182
 6116W        W 8316  22.674   3.548  23.684  0.3154 -0.3157  0.2540
 6117W        W 8317  24.677   7.036  23.514  0.0152 -0.1731  0.1235
 6118W        W 8318   3.503   5.556   3.289  0.0475  0.0964 -0.0607
 6119W        W 8319   7.944   7.470  20.847 -0.0951  0.0888 -0.1657
 6120W        W 8320  21.776   1.689  19.562  0.0088  0.0376 -0.1319
 6121W        W 8321   6.038   5.572   7.709 -0.3111  0.3473 -0.1001
 6122W        W 8322  15.093   6.087   0.749  0.1116 -0.0390 -0.2723
 6123W        W 8323   1.434   3.243  25.549  0.2304  0.0649 -0.1047
 6124W        W 8324  23.194   5.308  17.549 -0.0164 -0.0624 -0.1428
 6125W        W 8325  26.705   7.517   0.291  0.1297 -0.2373 -0.2385
 6126W        W 8326  12.298   1.554  19.091 -0.1465 -0.2191  0.1476
 6127W        W 8327  17.406   0.232   9.665  0.1060 -0.1458  0.0238
 6128W        W 8328   1.882   2.837   2.179 -0.0404 -0.2000 -0.0209
 6129W        W 8329  27.071   1.556  16.085 -0.2462  0.0984  0.1530
 6130W        W 8330  15.922   0.099   1.385 -0.3017  0.0632  0.0451
 6131W        W 8331   9.420   5.143  19.897 -0.0422  0.0103 -0.0130
 6132W        W 8332  30.749   1.744  10.719 -0.2513 -0.2692 -0.1952
 6133W        W 8333  22.071   6.538  10.728  0.1311 -0.4200  0.0688
 6134W        W 8334  15.569   7.273   2.147 -0.1826  0.0732  0.2529
 6135W        W 8335   7.354   4.019   7.839  0.1153 -0.2503 -0.0432
 6136W        W 8336  14.165   4.576  10.232  0.1432 -0.0361  0.0706
 6137W        W 8337  25.210   3.069   8.597  0.1163  0.3837 -0.0649
 6138W        W 8338  27.119   1.941  19.946  0.0923  0.0194 -0.2742
 6139W        W 8339  11.757   1.522  21.498 -0.2074 -0.0249 -0.2827
 6140W        W 8340  27.358   4.303   9.113 -0.1019 -0.0184 -0.0264
 6141W        W 8341   5.353   6.338  10.359 -0.1317  0.1805  0.2214
 6142W        W 8342  21.364   2.802  16.081  0.0505 -0.2471  0.0663
 6143W        W 8343   4.728   2.598   0.348 -0.1300 -0.2381 -0.0658
 6144W        W 8344  23.205   6.801   0.735 -0.1549 -0.2479  0.1165
 6145W        W 8345  12.524   5.164  10.769  0.0249  0.0365 -0.0149
 6146W        W 8346  29.330   7.100  22.478  0.1112  0.2373 -0.1033
 6147W        W 8347  14.173   0.989  23.704 -0.2283  0.1886  0.3651
 6148W        W 8348  17.607   0.629   3.676 -0.1324  0.0003  0.4387
 6149W        W 8349  22.864   1.299   0.049 -0.1037 -0.0198  0.0407
 6150W        W 8350   5.898   5.556  22.193  0.2706  0.2195 -0.0557
 6151W        W 8351  20.020   0.608   2.852  0.1704  0.1038  0.3012
 6152W        W 8352  28.304   0.760  18.175  0.0171  0.2186  0.1781
 6153W        W 8353  22.088   7.740  20.703 -0.1470 -0.1819 -0.0905
 6154W        W 8354  12.257   1.271  22.271  0.0684 -0.0191 -0.0499
 6155W        W 8355  16.272   6.810   6.994  0.3283 -0.1831 -0.2419
 6156W        W 8356  24.486   2.607   9.025  0.0120 -0.0081  0.2621
 6157W        W 8357  28.150   5.655  16.382  0.0733 -0.3291  0.3790
 6158W        W 8358  16.827   0.531   1.928  0.3688  0.3144 -0.2713
 6159W        W 8359   2.566   2.643   8.435  0.0664 -0.0560 -0.0669
 6160W        W 8360   9.298   5.727   9.634 -0.2291  0.0291 -0.1226
 6161W        W 8361  20.833   7.502   5.525 -0.0517  0.0399  0.0400
 6162W        W 8362  13.033   2.188  20.658 -0.3512  0.0703  0.4448
 6163W        W 8363  11.540   6.499   7.462  0.1871  0.0530  0.2320
 6164W        W 8364   3.765   0.290  20.423  0.2350 -0.1638 -0.1308
 6165W        W 8365  26.630   1.563   9.058  0.1960  0.2359 -0.1928
 6166W        W 8366  24.689   7.508   4.875 -0.0195  0.1100  0.0807
 6167W        W 8367  11.730   7.608  25.041  0.0561  0.2957  0.1333
 6168W        W 8368  26.207   6.523  18.180  0.0243  0.1970 -0.1574
 6169W        W 8369  10.368   0.940   6.301  0.0698  0.2306  0.1991
 6170W        W 8370  26.295   7.502   7.917 -0.2104  0.2942  0.1802
 6171W        W 8371  24.527   4.624   3.942 -0.1791  0.2039  0.1167
 6172W        W 8372  20.015   2.504   9.282  0.0457 -0.2639  0.1533
 6173W        W 8373  19.483   2.811  19.852 -0.0173  0.0905 -0.2047
 6174W        W 8374  21.202   3.385   4.703 -0.3947  0.0016 -0.0315
 6175W        W 8375  24.143   0.954  16.078 -0.0843 -0.2085  0.1040
 6176W        W 8376   9.341   1.250  17.572  0.1100 -0.0928  0.1969
 6177W        W 8377   7.786   1.495   4.837 -0.1489  0.3220 -0.1298
 6178W        W 8378  22.998   0.063   9.576  0.1755  0.0731 -0.2715
 6179W        W 8379   8.673   4.386  22.332  0.3958  0.1279 -0.0372
 6180W        W 8380  15.523   7.023   2.527 -0.1535 -0.1338 -0.0907
 6181W        W 8381  14.702   6.349   6.640  0.3224  0.1646 -0.2803
 6182W        W 8382   2.224   5.089  19.506 -0.0221  0.1998 -0.0473
 6183W        W 8383  25.085   1.857   3.673 -0.0997 -0.3449 -0.1302
 6184W        W 8384  29.745   2.917  23.127 -0.0608  0.0515 -0.0857
 6185W        W 8385  25.965   2.858  18.828 -0.5643  0.0511 -0.1284
 6186W        W 8386   8.581   3.158   0.309  0.4341  0.3152 -0.1081
 6187W        W 8387  26.752   1.475  21.973 -0.1699  0.0280 -0.0543
 6188W        W 8388  30.295   6.591   1.458 -0.2511  0.0113  0.1665
 6189W        W 8389   8.359   4.682  20.606  0.1188 -0.3261  0.2656
 6190W        W 8390   9.535   1.303   9.568  0.3086 -0.0804  0.1817
 6191W        W 8391  17.739   6.327   2.761  0.1436 -0.1436 -0.0335
 6192W        W 8392  23.707   2.600  22.570 -0.0446 -0.0723 -0.0610
 6193W        W 8393  15.461   2.587   0.479 -0.0604 -0.0932  0.3464
 6194W        W 8394  21.460   5.391  22.303 -0.1951 -0.2384  0.1357
 6195W        W 8395  19.629   7.586  16.318  0.0255  0.3244  0.0156
 6196W        W 8396   7.297   4.523  19.652  0.0212 -0.2628  0.1123
 6197W        W 8397  11.853   1.903   7.880 -0.2014  0.2598 -0.1535
 6198W        W 8398   6.131   3.506  25.825 -0.1140  0.2490 -0.0894
 6199W        W 8399  15.008   6.017   6.825  0.2268  0.0250 -0.0919
 6200W        W 8400  11.165   1.418   7.178  0.4395  0.0495  0.2393
 6201W        W 8401  26.581   7.319   8.767  0.0412  0.0217  0.2707
 6202W        W 8402   4.089   1.379   5.384 -0.0148  0.3473 -0.0754
 6203W        W 8403  28.604   2.552  21.077 -0.1506 -0.0340 -0.4487
 6204W        W 8404   1.972   3.943  17.149  0.1860 -0.2127  0.0429
 6205W        W 8405  17.932   7.354  19.952 -0.2548  0.1050  0.3432
 6206W        W 8406  11.221   2.341   6.962  0.0092 -0.3316  0.0906
 6207W        W 8407   2.565   2.890  16.362 -0.1488 -0.2789  0.2120
 6208W        W 8408  15.424   6.889  18.512  0.0061  0.2188 -0.1020
 6209W        W 8409   0.516   1.080  23.964 -0.2257 -0.2466  0.1234
 6210W        W 8410  14.282   2.457   7.891 -0.0237 -0.1026  0.0935
 6211W        W 8411  14.677   7.298  22.450 -0.0026 -0.1088 -0.2098
 6212W        W 8412  10.107   0.945  10.866 -0.3343  0.0943 -0.1411
 6213W        W 8413   7.780   4.869  21.490 -0.2749  0.1231  0.2193
 6214W        W 8414   1.939   2.732  16.887  0.1462  0.0769  0.0832
 6215W        W 8415   9.791   7.318  24.624  0.0400  0.3072 -0.0860
 6216W        W 8416  10.307   1.723  16.742 -0.0799 -0.2267 -0.0748
 6217W        W 8417  14.799   3.856   9.044 -0.0078 -0.1394 -0.1656
 6218W        W 8418  17.540   1.482  10.683  0.2408  0.2188  0.0884
 6219W        W 8419   1.116   5.492  23.761  0.0527  0.1794 -0.1447
 6220W        W 8420  18.324   0.933  14.970 -0.1163  0.1673  0.1564
 6221W        W 8421   0.988   4.922   7.674 -0.0077  0.0964  0.1753
 6222W        W 8422   7.751   3.168  17.699 -0.0520 -0.0053  0.0428
 6223W        W 8423  17.867   6.644  21.716 -0.0283  0.1328 -0.0756
 6224W        W 8424  22.440   3.415  17.764  0.1358 -0.0212  0.1355
 6225W        W 8425   5.262   4.642  22.412 -0.2189  0.0728  0.0347
 6226W        W 8426  12.089   7.045  17.345  0.0854  0.2866 -0.1054
 6227W        W 8427   2.917   3.219  22.149 -0.0947 -0.0798  0.0279
 6228W        W 8428   9.475   7.085  23.653  0.1101  0.2390 -0.1278
 6229W        W 8429   0.714   5.843   3.942  0.0841 -0.2843 -0.0243
 6230W        W 8430  24.802   5.510  16.716 -0.2803  0.0727 -0.0492
 6231W        W 8431   7.990   6.164   0.773 -0.0465 -0.1039  0.1799
 6232W        W 8432   4.999   7.087  19.717  0.0509 -0.0572 -0.1724
 6233W        W 8433  14.782   1.796  10.219  0.4900  0.5387 -0.0870
 6234W        W 8434  13.474   3.305   2.591  0.1122 -0.1359 -0.1385
 6235W        W 8435   8.254   3.065   5.173  0.2395 -0.1166  0.2448
 6236W        W 8436  21.312   2.582  10.747  0.0902  0.3448 -0.3138
 6237W        W 8437  22.815   0.771   3.557 -0.2016  0.1768  0.0955
 6238W        W 8438   9.113   2.944  20.729  0.0625  0.1479 -0.1807
 6239W        W 8439   0.730   2.610   9.246 -0.0988  0.1156  0.1091
 6240W        W 8440  14.867   5.170   2.881  0.2037  0.2330  0.2421
 6241W        W 8441  23.944   0.008   0.731  0.1454 -0.0272 -0.0399
 6242W        W 8442  17.428   0.481   7.090  0.0521  0.1987  0.1827
 6243W        W 8443  23.954   5.756  15.568  0.0004 -0.0224 -0.0027
 6244W        W 8444   5.683   6.576   5.528 -0.2866 -0.0964  0.0674
 6245W        W 8445   8.159   6.125   5.664  0.2999 -0.0718  0.0953
 6246W        W 8446  29.124   1.092  23.015 -0.1553  0.0577 -0.3516
 6247W        W 8447  12.437   7.387  10.274 -0.0977  0.2281 -0.0192
 6248W        W 8448  16.598   3.105  20.623 -0.0042 -0.1146  0.0305
 6249W        W 8449   9.166   5.956  10.084  0.0819 -0.1509  0.2797
 6250W        W 8450  29.340   4.619  10.310  0.2247 -0.2662  0.2237
 6251W        W 8451   8.210   0.464  21.567  0.2464  0.5445  0.2342
 6252W        W 8452   2.948   0.612   7.054 -0.4270  0.0740 -0.0028
 6253W        W 8453   1.666   0.766  18.869  0.0319  0.0802 -0.0142
 6254W        W 8454  27.896   2.035  20.722 -0.0396 -0.2739  0.0321
 6255W        W 8455   2.263   4.998  15.708 -0.1494 -0.2123 -0.1066
 6256W        W 8456   2.768   0.744  23.565 -0.1734  0.3514 -0.1414
 6257W        W 8457  21.652   4.931  21.667  0.1129  0.0153  0.1487
 6258W        W 8458   3.759   2.767   1.873  0.1583  0.0447 -0.1590
 6259W        W 8459  10.389   6.223   0.604  0.0220 -0.0513  0.2255
 6260W        W 8460  29.199   6.999  15.400 -0.1465  0.0714 -0.0211
 6261W        W 8461   9.055   0.707  16.987 -0.0370  0.0904  0.0850
 6262W        W 8462  29.588   3.564   3.413 -0.1546  0.1565 -0.1968
 6263W        W 8463  22.032   3.302   5.234  0.0369 -0.2031 -0.0578
 6264W        W 8464  29.300   0.525  21.357  0.3464 -0.1689  0.1867
 6265W        W 8465  18.950   2.317   2.424 -0.3312  0.0428 -0.2762
 6266W        W 8466  24.945   7.080  19.345  0.1232  0.0131  0.0685
 6267W        W 8467  18.278   6.805   1.724  0.0991  0.0512 -0.0789
 6268W        W 8468   3.741   6.149  17.035 -0.2418  0.3227 -0.2338
 6269W        W 8469   4.920   1.982   5.542 -0.1633 -0.0942 -0.3759
 6270W        W 8470   7.763   3.246  23.422  0.0653 -0.2798  0.2557
 6271W        W 8471   6.653   4.930  20.196 -0.1461 -0.3183 -0.2726
 6272W        W 8472   7.679   2.155   8.259 -0.2548 -0.1728 -0.1368
 6273W        W 8473  20.752   1.252  23.902  0.1961 -0.3185 -0.1127
 6274W        W 8474  18.114   5.314  16.990  0.0899 -0.1401  0.1588
 6275W        W 8475  16.875   2.700   9.735 -0.1366 -0.0095 -0.0424
 6276W        W 8476   6.748   2.981  18.466  0.1954  0.0788 -0.0512
 6277W        W 8477  23.560   6.307   7.816 -0.2496  0.1944  0.2136
 6278W        W 8478  16.183   3.072   6.971 -0.1264  0.0777  0.2060
 6279W        W 8479  15.637   0.519   2.989 -0.0244  0.0414 -0.0389
 6280W        W 8480   3.841   1.752   1.351  0.0052 -0.1566  0.2371
 6281W        W 8481   9.612   5.014  22.841  0.1662  0.0307  0.1074
 6282W        W 8482  23.540   4.462  10.138 -0.0403  0.0578 -0.0059
 6283W        W 8483   6.186   0.291   3.420  0.1654 -0.0062 -0.2164
 6284W        W 8484  12.642   5.673   1.543  0.1157 -0.1708  0.0711
 6285W        W 8485  28.226   2.799   3.516  0.2462  0.0247  0.2090
 6286W        W 8486  12.752   1.245  17.478 -0.1057  0.0652 -0.1251
 6287W        W 8487  13.196   0.732  10.804  0.0494  0.1843 -0.0473
 6288W        W 8488  28.511   2.049  19.928  0.1646 -0.1558 -0.0015
 6289W        W 8489  16.795   4.270   7.690  0.4501  0.0958  0.0301
 6290W        W 8490   0.656   3.078  23.509  0.0038  0.1345 -0.2062
 6291W        W 8491  12.996   0.208  16.437 -0.2530  0.1486 -0.1453
 6292W        W 8492   8.446   3.801  16.445 -0.1058 -0.0074  0.0061
 6293W        W 8493   3.762   0.188  18.608 -0.0255 -0.3108  0.1265
 6294W        W 8494   0.032   0.848  15.972 -0.1928  0.3456 -0.0808
 6295W        W 8495  27.451   6.954  16.956  0.1027 -0.0842  0.1523
 6296W        W 8496  27.562   0.877   1.443  0.2017  0.0801  0.0755
 6297W        W 8497  25.759   1.000   0.193  0.4030 -0.0971  0.1300
 6298W        W 8498  15.330   6.557  22.665  0.3010 -0.2627  0.1292
 6299W        W 8499  12.184   4.781  22.679  0.0927 -0.3882  0.3085
 6300W        W 8500  31.333   0.557  25.999 -0.0967  0.1007 -0.1482
 6301W        W 8501  31.404   3.464  24.190 -0.0426 -0.2189  0.1501
 6302W        W 8502   9.391   3.009  22.936  0.3585  0.0068  0.0353
 6303W        W 8503   8.944   7.679   5.972  0.1333  0.0880  0.0150
 6304W        W 8504  23.193   3.057  16.459 -0.0920  0.4855  0.0741
 6305W        W 8505  18.955   6.415  11.466 -0.4500 -0.0159  0.3236
 6306W        W 8506  15.233   4.160  21.410 -0.0434  0.1218 -0.3910
 6307W        W 8507   3.557   3.170  23.594 -0.1108  0.1250 -0.3365
 6308W        W 8508  26.565   1.575   8.283 -0.1939 -0.2068 -0.2719
 6309W        W 8509  19.671   7.294  19.264 -0.3860  0.1929  0.1165
 6310W        W 8510  22.472   5.504  20.879 -0.3311  0.3611  0.1561
 6311W        W 8511   9.504   1.241  18.592 -0.2480  0.0557 -0.2916
 6312W        W 8512   9.541   2.203  17.268 -0.0009  0.1136 -0.1647
 6313W        W 8513  20.581   5.379   3.921 -0.0613  0.4165 -0.1234
 6314W        W 8514   8.314   2.475   0.330  0.0311  0.2322  0.2661
 6315W        W 8515  17.123   3.706   3.925 -0.0352  0.1569 -0.0838
 6316W        W 8516  31.268   0.998   1.805  0.0809 -0.1017 -0.1915
 6317W        W 8517  23.743   5.317   3.519  0.3860 -0.0040 -0.1050
 6318W        W 8518   5.737   2.796   3.188 -0.2156 -0.0748 -0.1291
 6319W        W 8519   9.487   3.097  14.398 -0.1671 -0.1266  0.1707
 6320W        W 8520  29.327   6.406   6.441  0.0054 -0.2116  0.0757
 6321W        W 8521   8.421   3.230  25.274  0.2536  0.1487 -0.3087
 6322W        W 8522   8.287   2.107  17.974 -0.2449 -0.1217 -0.1771
 6323W        W 8523   7.637   4.904   2.429 -0.0489  0.0958  0.0602
 6324W        W 8524   6.159   2.214   5.771 -0.1847  0.3247  0.3411
 6325W        W 8525   0.206   5.198   2.397  0.0705  0.1207 -0.1156
 6326W        W 8526  13.825   1.582  25.558  0.1666  0.0080 -0.1389
 6327W        W 8527  23.455   4.530  21.618 -0.4133  0.4040  0.1022
 6328W        W 8528  24.852   7.516  19.148  0.2738 -0.0070  0.3555
 6329W        W 8529  14.988   0.947  22.007  0.0521  0.2409  0.1037
 6330W        W 8530   9.416   1.421   6.934 -0.6279  0.4881  0.2149
 6331W        W 8531   1.825   5.058   7.416 -0.0202 -0.0122 -0.1518
 6332W        W 8532  23.288   0.926  16.211  0.1260  0.0887  0.0618
 6333W        W 8533   5.045   6.889  18.117  0.0563  0.3220  0.0145
 6334W        W 8534   5.639   3.306  21.288  0.1228 -0.0118 -0.0205
 6335W        W 8535  14.310   2.055   4.195 -0.0896 -0.0243 -0.2019
 6336W        W 8536   8.696   6.299  10.797  0.0291 -0.0537  0.0106
 6337W        W 8537  15.735   6.732  22.876 -0.1423  0.0068  0.0476
 6338W        W 8538  19.548   6.794   1.754  0.0566  0.0075 -0.1649
 6339W        W 8539   2.928   5.022   9.586 -0.1669  0.3423  0.0191
 6340W        W 8540   8.708   1.161  11.045  0.0360  0.3543 -0.0636
 6341W        W 8541  24.638   5.137   9.455 -0.1060 -0.3443 -0.4933
 6342W        W 8542  16.717   4.964   6.261 -0.2403  0.0298  0.3409
 6343W        W 8543  24.558   7.531  24.962 -0.2184 -0.0466 -0.1744
 6344W        W 8544  11.269   1.728  21.598  0.0213  0.0397  0.3629
 6345W        W 8545   2.682   5.657  21.315  0.1619  0.0578 -0.1900
 6346W        W 8546  28.064   3.067   7.328  0.1475 -0.1133 -0.3602
 6347W        W 8547  22.844   2.857  23.262  0.1121  0.5134 -0.1244
 6348W        W 8548   5.353   0.098   3.718  0.0214  0.0750 -0.0367
 6349W        W 8549   9.915   3.409   6.763  0.3036 -0.0420  0.1464
 6350W        W 8550  24.959   4.070   2.866  0.0174  0.0083 -0.0540
 6351W        W 8551   5.278   7.190   6.570 -0.0386  0.1460  0.2154
 6352W        W 8552   9.384   4.960  25.552 -0.1752  0.0342 -0.0694
 6353W        W 8553  17.222   5.861  12.778 -0.2390 -0.1609 -0.2050
 6354W        W 8554   2.835   0.090  10.727  0.2293 -0.1008 -0.0893
 6355W        W 8555  12.864   0.643   9.514  0.0546 -0.1455 -0.2552
 6356W        W 8556  18.973   0.373   9.281 -0.1126 -0.1946  0.1383
 6357W        W 8557  24.467   3.465   8.515 -0.1085 -0.3269  0.3375
 6358W        W 8558  18.344   1.641  19.508 -0.1049  0.1160  0.2292
 6359W        W 8559   7.394   5.255  10.221 -0.0644  0.0318 -0.0730
 6360W        W 8560   5.830   1.829  19.583 -0.1993  0.0888 -0.0831
 6361W        W 8561  25.077   5.575  17.143 -0.1180 -0.1820  0.2851
 6362W        W 8562  12.246   5.495   6.988  0.0294 -0.0433  0.3166
 6363W        W 8563  24.040   1.443  19.835 -0.0515  0.4912  0.1107
 6364W        W 8564  30.769   4.799  21.931  0.4200  0.0902  0.4274
 6365W        W 8565   5.300   7.707   9.182 -0.1164  0.3765  0.0363
 6366W        W 8566  15.648   5.403   0.997 -0.1646 -0.1053 -0.0197
 6367W        W 8567  13.734   3.563  16.868 -0.3512  0.1827 -0.0751
 6368W        W 8568  31.321   2.248  15.209  0.0559  0.2336  0.0414
 6369W        W 8569  28.295   6.745  23.417  0.0302 -0.0608  0.0905
 6370W        W 8570  13.713   6.403   5.615 -0.1360  0.1004  0.1070
 6371W        W 8571   7.881   6.715   2.286 -0.0113  0.1046 -0.2372
 6372W        W 8572   9.975   4.947  23.234 -0.3826  0.0279  0.1142
 6373W        W 8573  18.897   5.433  23.289 -0.1685 -0.1680  0.1354
 6374W        W 8574   9.522   4.816   5.958  0.3223 -0.0984  0.0459
 6375W        W 8575  28.237   3.910   6.308 -0.0697 -0.2040 -0.2177
 6376W        W 8576   3.405   3.597   4.737  0.1490 -0.0117 -0.2692
 6377W        W 8577  25.582   2.960  18.490  0.0982 -0.0265  0.1197
 6378W        W 8578  20.746   6.375   4.983  0.1515  0.0657 -0.0582
 6379W        W 8579   8.792   4.771  21.885 -0.2407  0.1855  0.0911
 6380W        W 8580  23.486   0.242   3.418 -0.0436 -0.2066 -0.2493
 6381W        W 8581  29.172   4.171   5.883 -0.0254  0.0181  0.0496
 6382W        W 8582   1.798   4.299   4.085 -0.0209  0.0745 -0.4296
 6383W        W 8583  22.097   1.397  24.331  0.2995 -0.1480 -0.0018
 6384W        W 8584  12.993   3.066  23.053 -0.1667 -0.1606  0.0400
 6385W        W 8585   6.621   2.346   6.696 -0.1944  0.1511 -0.0918
 6386W        W 8586  10.691   3.289  10.986  0.0602  0.1381 -0.3762
 6387W        W 8587  23.007   7.644  11.775  0.2494  0.2909  0.0856
 6388W        W 8588   7.702   0.555  10.408  0.2047 -0.3279  0.0865
 6389W        W 8589  29.526   4.097   4.530  0.0981 -0.0295 -0.0643
 6390W        W 8590  28.382   4.830  16.251  0.1345 -0.0277 -0.1814
 6391W        W 8591  11.828   0.517   2.790 -0.0075  0.1310  0.1459
 6392W        W 8592  10.346   7.292  21.137  0.1287 -0.0398 -0.1276
 6393W        W 8593   3.903   2.597  24.794  0.1569  0.0275  0.1220
 6394W        W 8594  20.558   0.799   0.034  0.1651 -0.1092 -0.1594
 6395W        W 8595  14.002   0.534  21.925 -0.1712 -0.0427  0.0658
 6396W        W 8596  15.963   3.223  23.175 -0.1942  0.1324 -0.2223
 6397W        W 8597  16.419   2.393   2.412  0.0326 -0.1770 -0.2338
 6398W        W 8598  18.792   7.594  17.175  0.2784  0.0515 -0.0185
 6399W        W 8599  12.928   6.737  16.742 -0.1261  0.0035 -0.3922
 6400W        W 8600   8.315   5.491  23.353  0.0316  0.1134  0.2452
 6401W        W 8601  23.902   7.651  17.547  0.0033  0.4728  0.0072
 6402W        W 8602   4.200   0.512   7.734  0.0494  0.2284  0.0109
 6403W        W 8603  20.368   0.862  20.437 -0.0207 -0.0495  0.1964
 6404W        W 8604  17.472   5.096   7.820 -0.1041  0.0018  0.0050
 6405W        W 8605  22.214   6.978  20.133 -0.1969 -0.0858 -0.0790
 6406W        W 8606  26.279   2.923  18.452  0.0734  0.3022 -0.3313
 6407W        W 8607  22.238   1.571  22.793 -0.1491 -0.2854  0.0653
 6408W        W 8608  26.120   7.842  22.525 -0.3555  0.0363  0.1010
 6409W        W 8609  29.204   0.157  10.184  0.3094  0.1280 -0.1412
 6410W        W 8610  27.698   3.147   9.523 -0.2008 -0.0670 -0.2398
 6411W        W 8611  15.779   6.736  23.969  0.6588 -0.2792 -0.2608
 6412W        W 8612  22.496   3.267  10.993 -0.1656 -0.0223  0.1298
 6413W        W 8613  22.222   2.927   8.287 -0.2046 -0.1002  0.1502
 6414W        W 8614   5.118   0.858   6.105  0.0203 -0.1036 -0.2087
 6415W        W 8615  15.060   3.115  20.661  0.0215 -0.1973  0.2595
 6416W        W 8616  19.806   2.793   2.815 -0.2612  0.1741 -0.1090
 6417W        W 8617   2.107   3.259  17.581 -0.1223 -0.2334  0.1384
 6418W        W 8618  16.976   1.974  10.975  0.2410 -0.0344  0.1414
 6419W        W 8619  10.996   5.338   7.895  0.0062 -0.0479  0.2853
 6420W        W 8620  12.714   1.317  23.562 -0.0198  0.0850 -0.1333
 6421W        W 8621  15.536   0.519  17.392 -0.2428 -0.0305 -0.2932
 6422W        W 8622   7.315   1.190  21.135 -0.0209 -0.1503 -0.1026
 6423W        W 8623  24.392   6.285  16.832  0.1567  0.0756  0.1259
 6424W        W 8624  24.966   2.683  20.500  0.4087  0.1130  0.1700
 6425W        W 8625  25.139   0.444  15.475 -0.0673  0.2171 -0.2905
 6426W        W 8626  30.494   0.871   7.282 -0.1495  0.0789  0.0859
 6427W        W 8627  14.680   7.072   4.628  0.1717 -0.0262  0.0795
 6428W        W 8628  13.006   2.239  16.509 -0.5058  0.0453 -0.1561
 6429W        W 8629  28.850   1.849   7.632 -0.3111 -0.0012 -0.0951
 6430W        W 8630  21.511   6.959  20.846 -0.0034 -0.1222 -0.1480
 6431W        W 8631  13.149   1.171  18.847  0.4073  0.0358 -0.1248
 6432W        W 8632  14.077   4.663  16.931 -0.1016 -0.3466 -0.0008
 6433W        W 8633  12.135   7.564   3.095 -0.0183  0.0522  0.2450
 6434W        W 8634   7.060   4.736  11.347  0.2150 -0.1770  0.3215
 6435W        W 8635  21.388   6.136  16.839 -0.0823 -0.1990  0.1027
 6436W        W 8636  11.188   4.641  19.100  0.0067 -0.0264  0.0993
 6437W        W 8637   2.418   5.521  23.752 -0.2182  0.2151  0.0334
 6438W        W 8638  30.831   3.516   0.814 -0.4948  0.0127 -0.1735
 6439W        W 8639  10.765   1.530   5.771 -0.0623  0.0778 -0.0251
 6440W        W 8640  17.756   1.208   8.319  0.1961  0.0142  0.3636
 6441W        W 8641   3.721   2.001   2.236  0.4455  0.0842  0.0979
 6442W        W 8642  24.481   7.189  16.793 -0.1123  0.3365 -0.1574
 6443W        W 8643  25.169   4.944   9.659  0.0078  0.2568  0.0548
 6444W        W 8644   4.258   0.866   4.025  0.4475 -0.3504  0.0843
 6445W        W 8645   4.714   3.188   9.927 -0.3513  0.0623 -0.0224
 6446W        W 8646  29.329   4.361  18.940  0.0858  0.0600  0.2526
 6447W        W 8647   7.316   5.350  23.569  0.0147  0.1423 -0.0807
 6448W        W 8648   4.824   5.538   0.270 -0.0032  0.2064 -0.1285
 6449W        W 8649  18.452   0.170   4.594  0.3289  0.1915 -0.0870
 6450W        W 8650  19.366   2.260  20.724  0.1266 -0.0690  0.0029
 6451W        W 8651  22.702   4.455   5.802 -0.2153 -0.2389 -0.1728
 6452W        W 8652   0.650   7.781   3.760 -0.3311  0.1097  0.3392
 6453W        W 8653   7.320   5.512  18.745 -0.2393  0.1305 -0.0603
 6454W        W 8654  27.953   5.095  10.194  0.1707  0.0626 -0.3158
 6455W        W 8655  26.695   6.703  18.222 -0.1930 -0.2388 -0.2576
 6456W        W 8656  30.506   6.981   2.088  0.2599 -0.0393  0.0565
 6457W        W 8657   1.677   2.400  17.301  0.0524  0.2437 -0.3384
 6458W        W 8658  16.937   3.621   5.999  0.0802 -0.3413  0.0325
 6459W        W 8659  26.251   6.325  16.337 -0.2390  0.0548  0.0995
 6460W        W 8660   4.263   3.426  25.237  0.0310 -0.2242  0.0351
 6461W        W 8661   6.441   0.205   3.830 -0.1931  0.3005  0.0176
 6462W        W 8662   0.910   7.674  17.456  0.1803  0.1815  0.1974
 6463W        W 8663   8.163   2.312   4.126  0.0279  0.1972  0.2043
 6464W        W 8664  28.580   0.029   3.197  0.0664 -0.0218 -0.1103
 6465W        W 8665  27.660   0.967  23.579 -0.1759 -0.0317  0.1498
 6466W        W 8666  16.835   2.626   0.797 -0.0666  0.3153  0.0248
 6467W        W 8667  13.305   4.055   0.719  0.0064  0.0735 -0.1179
 6468W        W 8668   8.140   0.630   1.698 -0.0248 -0.0989 -0.4743
 6469W        W 8669   6.663   3.574  15.918  0.0086  0.3697 -0.6101
 6470W        W 8670  25.389   0.363  22.023  0.2218 -0.1275 -0.1232
 6471W        W 8671  10.986   0.752   9.148  0.1695  0.0714 -0.0146
 6472W        W 8672  30.806   3.466   5.411  0.4584  0.1423  0.2748
 6473W        W 8673  12.446   7.256  16.119 -0.0203  0.0613 -0.0957
 6474W        W 8674  22.252   0.287  10.290  0.0397 -0.0627  0.4612
 6475W        W 8675   1.475   0.082   8.640  0.0741 -0.1842  0.0390
 6476W        W 8676  30.705   3.919  24.618  0.1237  0.1536  0.2022
 6477W        W 8677   5.625   0.218   9.310  0.1374 -0.0718  0.1977
 6478W        W 8678  20.848   4.273   7.580  0.0495  0.0658  0.0383
 6479W        W 8679  19.998   2.400  10.093 -0.0365  0.0730 -0.0721
 6480W        W 8680  17.578   2.851   1.148  0.1520  0.1899 -0.0028
 6481W        W 8681  21.981   3.430   1.044 -0.0356  0.0007  0.0938
 6482W        W 8682  12.295   0.387   6.093  0.0050 -0.0050  0.0009
 6483W        W 8683   6.781   6.607   3.124  0.1084  0.0221  0.1938
 6484W        W 8684  11.651   4.616  17.347 -0.2585 -0.2428 -0.1993
 6485W        W 8685  15.538   6.857  17.295  0.3290 -0.0735  0.1545
 6486W        W 8686  25.358   7.426   3.197  0.0750  0.1171 -0.1267
 6487W        W 8687   5.932   4.546   6.657 -0.0092  0.0641 -0.1477
 6488W        W 8688  26.037   4.073   3.577  0.0472 -0.0383  0.0318
 6489W        W 8689  24.053   3.897  25.688  0.2496 -0.1391  0.2310
 6490W        W 8690  17.432   7.175  16.228  0.1037  0.0525 -0.1724
 6491W        W 8691  21.604   3.570  23.287  0.0028 -0.3203 -0.1402
 6492W        W 8692  28.856   5.846  25.309  0.1415 -0.1703  0.2906
 6493W        W 8693  17.572   5.597   4.090  0.2827 -0.1155 -0.0628
 6494W        W 8694   4.105   3.695  14.812 -0.0201 -0.0681 -0.0605
 6495W        W 8695  24.081   2.823  15.754  0.1373  0.0664  0.0432
 6496W        W 8696   2.324   0.091  18.933 -0.2130 -0.1938  0.1223
 6497W        W 8697  29.038   1.101   7.298  0.3007  0.0957 -0.1268
 6498W        W 8698  17.968   5.066   4.620 -0.2316 -0.1458  0.1200
 6499W        W 8699  14.643   1.303  24.602  0.3080  0.1836 -0.1480
 6500W        W 8700   3.062   4.265   6.275  0.0461 -0.0883  0.1987
 6501W        W 8701   0.610   0.484   1.642  0.0077 -0.1560  0.0197
 6502W        W 8702  18.271   3.914  25.954 -0.0137  0.0631 -0.0794
 6503W        W 8703  28.818   7.443  21.503 -0.0426 -0.1731  0.2321
 6504W        W 8704  19.239   7.454   6.645  0.0751 -0.0354 -0.1636
 6505W        W 8705   5.733   0.970  19.584  0.0001 -0.2358 -0.1120
 6506W        W 8706  28.617   0.729   1.518 -0.0046 -0.1009  0.0116
 6507W        W 8707  20.588   0.397   5.936  0.0708  0.0457  0.0170
 6508W        W 8708  21.900   2.366   6.499  0.2626 -0.0822 -0.1595
 6509W        W 8709  24.391   1.099  19.658  0.0061  0.0250 -0.1623
 6510W        W 8710  13.370   0.905  24.972  0.1765  0.1988  0.3699
 6511W        W 8711   8.843   7.640   8.139  0.1562  0.2391 -0.0200
 6512W        W 8712   7.463   1.055  20.018  0.0437  0.1232  0.2017
 6513W        W 8713  19.188   2.548  17.987  0.2092  0.1880 -0.0056
 6514W        W 8714  30.825   2.822  24.637 -0.0895  0.2371  0.2839
 6515W        W 8715  24.878   0.124   2.407 -0.1156  0.0960 -0.2570
 6516W        W 8716  25.649   6.626  21.654  0.0510 -0.3747 -0.0093
 6517W        W 8717  21.881   2.679  24.253 -0.1007  0.4078 -0.1324
 6518W        W 8718  25.219   2.477   1.943 -0.0197  0.0472 -0.4342
 6519W        W 8719  12.016   2.028   6.624 -0.0434 -0.2576 -0.2184
 6520W        W 8720  11.486   5.529   4.419 -0.0145  0.0653 -0.2047
 6521W        W 8721   2.022   1.316  20.102  0.0598  0.2645  0.0203
 6522W        W 8722  30.154   5.280   7.519  0.1821 -0.0574  0.0043
 6523W        W 8723  28.627   4.779   2.851  0.0809 -0.1066  0.1443
 6524W        W 8724  16.671   3.516  24.621  0.2995 -0.1863 -0.0299
 6525W        W 8725  26.494   7.831   8.958  0.1477 -0.1822 -0.0708
 6526W        W 8726   3.640   0.754  14.355 -0.2275 -0.0646  0.0593
 6527W        W 8727  29.363   5.728  20.163  0.0123 -0.0657 -0.1123
 6528W        W 8728  29.691   4.862  24.862 -0.1673  0.1488 -0.2920
 6529W        W 8729  13.821   1.994  10.428 -0.0341  0.1216  0.2661
 6530W        W 8730  21.316   2.206   5.283 -0.0699 -0.0798 -0.1060
 6531W        W 8731  19.224   5.701   1.519 -0.1645 -0.1136  0.0589
 6532W        W 8732  24.896   7.630   0.293  0.2676  0.1800  0.1986
 6533W        W 8733  29.469   1.578   9.923  0.3183  0.0013  0.5120
 6534W        W 8734  27.216   4.227  20.661  0.1720  0.0861  0.0155
 6535W        W 8735  26.235   5.512  20.827  0.3887  0.0792  0.1662
 6536W        W 8736  18.402   6.681  20.497  0.0732 -0.1419 -0.0700
 6537W        W 8737   1.450   3.379   4.220 -0.3828 -0.3907 -0.0229
 6538W        W 8738  12.187   2.244   8.178  0.2000 -0.0128 -0.0036
 6539W        W 8739  10.539   6.149   0.094  0.0957 -0.0560 -0.1501
 6540W        W 8740   9.282   0.616  15.987  0.0385  0.0461 -0.0149
 6541W        W 8741  11.974   6.124   1.715  0.1191  0.1424  0.1430
 6542W        W 8742   3.164   7.124  10.897 -0.1717  0.0598 -0.1887
 6543W        W 8743  18.408   1.727   3.143  0.0067  0.0664  0.1728
 6544W        W 8744  20.352   6.817  17.613 -0.1025 -0.1040 -0.0376
 6545W        W 8745  14.424   0.936   6.292  0.3592 -0.0044  0.1589
 6546W        W 8746   2.768   0.812   4.366  0.2162  0.0154 -0.0142
 6547W        W 8747   2.732   4.851  18.075  0.0693  0.1288 -0.0311
 6548W        W 8748  30.581   6.198   5.991  0.1310 -0.0241  0.0800
 6549W        W 8749   5.447   1.896  18.737  0.2565  0.2599  0.1210
 6550W        W 8750  29.545   0.815  19.984  0.1470 -0.2793 -0.4862
 6551W        W 8751  18.452   7.538  11.539  0.1692  0.1902  0.1956
 6552W        W 8752  24.245   4.966  26.022  0.2658 -0.0234  0.0056
 6553W        W 8753   1.508   0.518   2.407 -0.0278 -0.2000  0.1483
 6554W        W 8754  17.129   6.267   9.945 -0.0879 -0.2140 -0.2816
 6555W        W 8755  18.828   7.025  24.049 -0.0772  0.2501  0.0734
 6556W        W 8756   7.004   3.968   4.725 -0.1380 -0.0660 -0.0352
 6557W        W 8757  22.117   5.627  10.784 -0.1836 -0.0948 -0.0226
 6558W        W 8758   0.630   4.741  23.806  0.2993 -0.0983 -0.0408
 6559W        W 8759  30.126   4.246   6.915 -0.0589 -0.1110  0.3627
 6560W        W 8760  23.828   7.774  18.809 -0.0005 -0.1980 -0.2387
 6561W        W 8761  19.969   4.490  20.144 -0.0206  0.3401  0.0311
 6562W        W 8762  23.620   4.261  25.121  0.0675  0.0451  0.0284
 6563W        W 8763   4.386   0.896  22.808  0.0480 -0.0574 -0.0572
 6564W        W 8764  19.094   6.855   2.041  0.1144 -0.0229  0.0551
 6565W        W 8765  19.822   6.227   0.788 -0.2072 -0.0195  0.1667
 6566W        W 8766   6.591   7.482  15.266  0.2165 -0.0663  0.0084
 6567W        W 8767  25.878   6.013  25.627 -0.0307 -0.2098 -0.1559
 6568W        W 8768  11.257   6.225   2.341  0.2156  0.0604 -0.0040
 6569W        W 8769  24.303   5.811   8.917  0.0227 -0.0068  0.2220
 6570W        W 8770   9.244   5.972  23.091  0.2510  0.0002  0.0717
 6571W        W 8771  28.562   6.863   5.020 -0.0024 -0.1309  0.3241
 6572W        W 8772  20.205   0.710  17.480  0.2393  0.0532 -0.0663
 6573W        W 8773   2.394   3.780  19.155  0.1644  0.1511  0.3846
 6574W        W 8774  16.383   3.866   3.580  0.4434 -0.2593 -0.1122
 6575W        W 8775  14.723   0.524   1.022  0.0837  0.0540  0.0050
 6576W        W 8776   8.591   0.881   6.417 -0.2496 -0.1117 -0.1440
 6577W        W 8777   1.122   2.510  23.463 -0.0906 -0.0615 -0.3188
 6578W        W 8778   6.187   1.150  22.055  0.0605 -0.5307  0.0570
 6579W        W 8779   3.803   6.121   6.818  0.2698  0.1834  0.1577
 6580W        W 8780   6.607   7.497   7.974 -0.2082 -0.1095 -0.2004
 6581W        W 8781   6.309   3.725   6.815 -0.1725 -0.0808  0.0565
 6582W        W 8782   6.843   2.182   2.397 -0.0340 -0.1081  0.2195
 6583W        W 8783  20.829   1.594  16.771 -0.0517  0.0240 -0.0703
 6584W        W 8784  18.916   3.797  16.122  0.1140  0.0480  0.1072
 6585W        W 8785  19.917   4.262  21.596 -0.0442  0.0905  0.0581
 6586W        W 8786  16.202   3.911  11.319  0.2165  0.0817  0.0365
 6587W        W 8787  29.894   1.636  16.647 -0.0714  0.1017 -0.0841
 6588W        W 8788   2.131   3.299  25.980  0.0313  0.0366 -0.0158
 6589W        W 8789  25.859   1.734  10.126 -0.2121 -0.5192 -0.1151
 6590W        W 8790  13.034   4.408  24.267 -0.0987 -0.1258  0.0192
 6591W        W 8791  23.714   0.174  20.717  0.1886 -0.3230  0.0814
 6592W        W 8792  25.537   6.169   1.828  0.2022 -0.4035  0.3303
 6593W        W 8793   1.361   3.645  19.610 -0.0384 -0.0153  0.0394
 6594W        W 8794  24.481   0.966   6.211  0.4962 -0.0846  0.3324
 6595W        W 8795  10.638   6.487   7.272 -0.0506  0.0216  0.1233
 6596W        W 8796   7.230   6.117   5.968 -0.0453 -0.2306  0.0407
 6597W        W 8797   6.109   6.621  15.291  0.1933 -0.0556 -0.0020
 6598W        W 8798   4.977   1.174   1.967  0.2617 -0.1872  0.2178
 6599W        W 8799   4.985   4.460  21.970  0.0555  0.0596  0.0690
 6600W        W 8800   6.450   0.272   4.349  0.1318 -0.2071  0.1249
 6601W        W 8801   1.532   5.907  25.387  0.1924 -0.0965 -0.0892
 6602W        W 8802   7.893   0.712  16.401 -0.0115 -0.0812 -0.0533
 6603W        W 8803  30.702   3.223  18.827 -0.0120  0.1939  0.2038
 6604W        W 8804   9.738   2.164  19.169  0.2659 -0.1720  0.4004
 6605W        W 8805  13.755   7.357   2.181  0.2251  0.1669  0.0190
 6606W        W 8806  15.016   7.207   3.413  0.0464  0.0535 -0.1423
 6607W        W 8807  25.197   0.737   6.760  0.0935 -0.3126  0.1767
 6608W        W 8808  27.766   4.714  21.456  0.0077  0.0581 -0.0621
 6609W        W 8809   9.544   0.974   7.836 -0.0815  0.3022  0.1977
 6610W        W 8810   4.036   7.440   6.637 -0.1003  0.1216 -0.0935
 6611W        W 8811  16.740   0.665  20.644 -0.1310 -0.0736  0.2997
 6612W        W 8812  29.704   4.292   4.992 -0.2727 -0.0358  0.2706
 6613W        W 8813  19.168   3.285   2.644  0.3559  0.1047  0.3285
 6614W        W 8814  17.209   7.336   7.382  0.1138 -0.2435  0.1354
 6615W        W 8815   8.063   0.454  17.442  0.1862 -0.1369  0.1562
 6616W        W 8816  13.259   4.176  21.086  0.1836  0.0433  0.0234
 6617W        W 8817  30.618   7.210   0.726 -0.0160  0.4725  0.0055
 6618W        W 8818  30.949   0.952   0.353  0.0713 -0.1549 -0.1408
 6619W        W 8819   0.412   1.517  17.195 -0.2204 -0.2233 -0.2763
 6620W        W 8820  27.555   1.722  25.622 -0.1583  0.1522 -0.2453
 6621W        W 8821   8.108   3.177   2.866  0.1075 -0.0255 -0.1710
 6622W        W 8822  27.803   0.122   3.882 -0.1158  0.0138 -0.0618
 6623W        W 8823  17.926   1.864   2.100  0.2466 -0.0414  0.0279
 6624W        W 8824  16.899   3.260   0.779  0.0354  0.1539 -0.2293
 6625W        W 8825  28.595   1.124  23.750  0.1211 -0.1421  0.0719
 6626W        W 8826   0.264   0.174   1.969 -0.1032 -0.2023 -0.1105
 6627W        W 8827  25.777   2.611  25.026  0.0963 -0.1128 -0.0532
 6628W        W 8828   9.419   1.554  18.152 -0.0606  0.2219 -0.0053
 6629W        W 8829  13.297   5.182   6.182  0.1385 -0.0657  0.1992
 6630W        W 8830   4.995   0.994   4.783  0.0149 -0.1017  0.2031
 6631W        W 8831   0.881   2.416  15.074 -0.2834  0.1066 -0.5028
 6632W        W 8832   6.175   6.916  20.693  0.1898  0.0450  0.0306
 6633W        W 8833  26.954   3.013  25.438 -0.0188 -0.2630  0.1723
 6634W        W 8834  25.170   5.468  19.033  0.2357  0.1588 -0.1476
 6635W        W 8835  30.515   5.597   4.817  0.1460 -0.0572  0.3208
 6636W        W 8836   5.757   5.966  19.484 -0.1558 -0.0775  0.0657
 6637W        W 8837   5.773   3.330   2.456  0.0595  0.2350  0.1674
 6638W        W 8838   3.300   1.741  19.121  0.1358  0.0160  0.0775
 6639W        W 8839  24.441   0.369   6.711 -0.0460 -0.1759  0.0012
 6640W        W 8840  26.206   3.567  16.834  0.0614 -0.2354 -0.2019
 6641W        W 8841  18.380   3.184   5.606 -0.0109  0.0268  0.1591
 6642W        W 8842  27.454   0.392   0.127  0.1238 -0.0954 -0.1271
 6643W        W 8843  16.439   0.922  23.539 -0.0951 -0.1625  0.2053
 6644W        W 8844  17.226   6.679   8.611 -0.1025  0.1800  0.2705
 6645W        W 8845  16.506   3.629   4.584  0.2222  0.0285 -0.0920
 6646W        W 8846   8.683   2.092  21.265  0.1370 -0.1501  0.2696
 6647W        W 8847   5.985   6.400  10.087 -0.4097 -0.0967  0.1465
 6648W        W 8848  25.869   5.739  24.760  0.1485 -0.3033  0.1413
 6649W        W 8849  16.792   3.348   1.297 -0.1447 -0.1036 -0.0439
 6650W        W 8850  11.106   6.949  19.227 -0.2876 -0.1091  0.1561
 6651W        W 8851   9.252   4.545  22.130 -0.0009 -0.1672  0.0121
 6652W        W 8852   5.394   5.779  19.802 -0.0316 -0.0055  0.0872
 6653W        W 8853  24.080   4.213  21.476 -0.2561 -0.0405 -0.0504
 6654W        W 8854  22.905   0.633   9.646  0.1064  0.1704 -0.0919
 6655W        W 8855   4.741   7.278  18.183  0.1194  0.0953 -0.1085
 6656W        W 8856  31.275   3.460  25.270  0.0730  0.1738 -0.2166
 6657W        W 8857  16.072   3.930  10.836  0.1158 -0.2114 -0.2249
 6658W        W 8858   7.164   1.114   8.984  0.0052 -0.0510  0.0058
 6659W        W 8859  18.263   4.960  25.821  0.0243 -0.2335 -0.0117
 6660W        W 8860  31.151   7.486  14.317 -0.1368 -0.1272 -0.1371
 6661W        W 8861  25.914   0.200  24.486  0.2062  0.2266 -0.0979
 6662W        W 8862   4.211   7.671  15.823  0.1242 -0.0672  0.0758
 6663W        W 8863   4.238   3.309   2.281 -0.1101  0.1996 -0.3793
 6664W        W 8864  16.753   0.405  18.376  0.1402  0.0053  0.1462
 6665W        W 8865  15.895   5.637   9.830 -0.0440 -0.0549  0.2283
 6666W        W 8866   6.451   2.786  18.108  0.0396  0.0081  0.0827
 6667W        W 8867  20.902   1.069   2.976  0.0568 -0.2296 -0.0112
 6668W        W 8868   4.196   7.205  16.107  0.0379  0.2322  0.1045
 6669W        W 8869   1.040   1.343   4.132  0.2981 -0.2373  0.0438
 6670W        W 8870   7.345   3.850   6.946  0.1921  0.1213 -0.1049
 6671W        W 8871  23.509   5.392  16.560  0.2305  0.0532  0.2918
 6672W        W 8872  22.255   0.112  23.905 -0.0819  0.1127 -0.0369
 6673W        W 8873  20.272   2.194   7.322 -0.1494 -0.0395 -0.2015
 6674W        W 8874   3.058   1.057  16.832  0.0408 -0.0283  0.1262
 6675W        W 8875  10.559   1.457   5.089  0.0562 -0.0012 -0.0365
 6676W        W 8876   4.583   2.745  16.473 -0.4246  0.0751 -0.1324
 6677W        W 8877  14.434   6.792  17.108 -0.1077  0.3772  0.2968
 6678W        W 8878  13.232   5.356   9.735 -0.1861 -0.0592  0.0260
 6679W        W 8879   4.152   4.457   7.834  0.0888  0.0682  0.1197
 6680W        W 8880  11.875   1.149  10.691 -0.0354 -0.3962  0.2355
 6681W        W 8881  10.338   4.172   3.876 -0.0369  0.0208  0.1338
 6682W        W 8882  18.327   3.172  16.911  0.2261  0.1589  0.1801
 6683W        W 8883  26.746   1.382  22.499  0.0192 -0.0743  0.2658
 6684W        W 8884   0.458   4.882  21.992  0.1688 -0.0984  0.0996
 6685W        W 8885  24.147   5.063   4.156 -0.3141 -0.2580  0.3813
 6686W        W 8886   4.656   5.548  21.472  0.2778  0.1567 -0.3120
 6687W        W 8887  10.921   2.571   8.815 -0.0714  0.0533 -0.2294
 6688W        W 8888  22.639   4.289   7.694 -0.0612 -0.3636  0.3146
 6689W        W 8889  25.165   2.221  20.738  0.0905 -0.0222  0.0314
 6690W        W 8890   2.873   2.594  15.041  0.2958  0.0119  0.0091
 6691W        W 8891  29.671   2.910  17.294  0.1452  0.3974  0.2868
 6692W        W 8892  16.499   1.912  22.660  0.1563  0.0169  0.0668
 6693W        W 8893   5.225   3.631  23.840 -0.0035  0.0045  0.2101
 6694W        W 8894  16.126   1.880  16.034 -0.0200 -0.1239  0.1454
 6695W        W 8895   1.938   3.770  18.978 -0.2676  0.0160  0.3580
 6696W        W 8896  25.540   7.289  15.594 -0.0019 -0.1512  0.1552
 6697W        W 8897   7.593   7.309  20.039  0.2173  0.1389 -0.0325
 6698W        W 8898   0.644   7.320   4.519 -0.2558 -0.1525 -0.1998
 6699W        W 8899  16.532   5.167   4.232 -0.0387 -0.1357  0.2255
 6700W        W 8900  20.379   5.545   6.496 -0.0011 -0.1142  0.1135
 6701W        W 8901   8.815   1.825  21.767  0.2140 -0.0790 -0.0499
 6702W        W 8902  16.830   0.683  17.964 -0.1441 -0.1271 -0.2222
 6703W        W 8903  17.323   5.139  23.614  0.2227  0.1476 -0.0177
 6704W        W 8904  15.187   4.893   0.073 -0.0482 -0.2052 -0.0967
 6705W        W 8905  30.765   4.711   7.686 -0.3606 -0.0026  0.0161
 6706W        W 8906  27.878   2.796   4.795  0.1337 -0.0706 -0.0541
 6707W        W 8907  21.155   2.740  17.892  0.1025  0.0621 -0.1361
 6708W        W 8908  10.180   4.883  10.968  0.0160  0.2558 -0.0592
 6709W        W 8909  12.549   7.419  11.252  0.3568  0.1737  0.0934
 6710W        W 8910  25.276   1.975   3.216  0.5618 -0.0613  0.2463
 6711W        W 8911   6.431   6.281   4.033  0.1058  0.1266 -0.1221
 6712W        W 8912  26.197   1.752   9.735  0.2408 -0.0641  0.1509
 6713W        W 8913  23.291   3.646  24.372 -0.1699 -0.1069 -0.2491
 6714W        W 8914  10.289   7.430   0.159  0.1276  0.1729 -0.0667
 6715W        W 8915  31.082   5.727   4.599  0.0126 -0.1905  0.0850
 6716W        W 8916   6.718   4.765  17.750  0.0763  0.0613 -0.0232
 6717W        W 8917   9.655   1.733   8.817  0.0528 -0.0723  0.0478
 6718W        W 8918  26.931   6.562  16.376  0.0900 -0.2025 -0.2837
 6719W        W 8919  30.200   4.217  17.765  0.3911  0.0303 -0.0988
 6720W        W 8920  29.026   2.001  23.721 -0.0164  0.0330 -0.1618
 6721W        W 8921  31.101   0.891   3.355  0.2616 -0.1016  0.0925
 6722W        W 8922  19.115   1.119   7.260  0.2896  0.1455  0.0617
 6723W        W 8923  10.378   1.696   4.663  0.3267  0.2627 -0.2110
 6724W        W 8924  10.515   1.027  11.218 -0.2591 -0.3289  0.0119
 6725W        W 8925  21.582   1.274  23.549  0.0159  0.0149  0.2071
 6726W        W 8926  13.394   7.538  18.447  0.1494 -0.3107 -0.0622
 6727W        W 8927   8.250   2.101  17.147  0.2030  0.0679 -0.4575
 6728W        W 8928   7.943   5.261   3.269  0.0858 -0.3481  0.2191
 6729W        W 8929  17.845   4.415   7.144  0.1072  0.3600 -0.0920
 6730W        W 8930  26.051   5.787  15.675  0.1747  0.0517 -0.0869
 6731W        W 8931  18.177   2.818  19.813 -0.1022  0.1203  0.3213
 6732W        W 8932   7.579   7.151   6.463 -0.2633 -0.0210 -0.0107
 6733W        W 8933  16.818   7.334   3.131 -0.1107  0.2111 -0.0384
 6734W        W 8934   7.598   2.309  16.400  0.4300  0.1325  0.3169
 6735W        W 8935  28.391   1.473  25.770 -0.2710  0.0642  0.2784
 6736W        W 8936   2.450   4.182  25.919  0.0963  0.2463  0.1038
 6737W        W 8937   1.756   2.283   3.468  0.3624  0.1668  0.0056
 6738W        W 8938   4.036   1.427  21.683  0.0424  0.2200  0.1053
 6739W        W 8939  15.776   3.979  19.744  0.1506 -0.0080 -0.1432
 6740W        W 8940   9.175   4.009  24.032 -0.0542 -0.1084  0.0720
 6741W        W 8941  17.962   2.661   6.235  0.3155 -0.0146  0.1278
 6742W        W 8942  12.243   4.718  16.470 -0.1961 -0.0437  0.2894
 6743W        W 8943   7.043   3.358  19.852 -0.0145  0.0735  0.2461
 6744W        W 8944  28.978   5.483  10.022  0.0590  0.0601 -0.0814
 6745W        W 8945  29.260   0.678   3.272  0.0389 -0.3317  0.0524
 6746W        W 8946  21.494   2.351  24.782 -0.1737 -0.0216 -0.0670
 6747W        W 8947   1.094   1.110   5.784 -0.4036  0.0428 -0.0195
 6748W        W 8948   1.991   6.911  18.076  0.1122  0.3088 -0.2717
 6749W        W 8949  24.759   1.497  21.066  0.2510  0.1423 -0.0030
 6750W        W 8950   0.739   0.136  24.497 -0.1533  0.2632  0.2592
 6751W        W 8951  23.011   0.088  17.537  0.3518  0.0932  0.1760
 6752W        W 8952   6.193   0.410   5.575 -0.2027  0.2780 -0.0110
 6753W        W 8953   1.597   0.379   0.711 -0.0753 -0.1686  0.2499
 6754W        W 8954   1.370   3.383  18.133 -0.0999 -0.4124  0.0183
 6755W        W 8955  22.520   1.638  10.477 -0.1901 -0.0835 -0.2725
 6756W        W 8956   3.700   0.666   2.499 -0.2921  0.1882  0.1032
 6757W        W 8957   5.642   3.598   5.399  0.2197 -0.0982 -0.1610
 6758W        W 8958  24.951   4.632   6.121 -0.4534 -0.0642 -0.0043
 6759W        W 8959   1.141   4.697   4.679  0.0161  0.0346 -0.1524
 6760W        W 8960  30.422   5.058  16.494  0.0076  0.0399 -0.2491
 6761W        W 8961  22.671   3.878  18.579 -0.0373  0.1500  0.2770
 6762W        W 8962  26.042   2.260  24.707  0.1237 -0.0206 -0.2888
 6763W        W 8963  17.805   0.016  15.338  0.0415  0.3779  0.0164
 6764W        W 8964  15.578   3.507  22.936 -0.1307  0.0742  0.1233
 6765W        W 8965  30.062   5.755   8.311 -0.4339  0.3062  0.0441
 6766W        W 8966  12.445   1.838  24.648 -0.0949 -0.1847 -0.0202
 6767W        W 8967  17.186   7.217  24.415  0.1253  0.2765  0.1411
 6768W        W 8968  12.480   6.290  23.077  0.0745 -0.1304 -0.2557
 6769W        W 8969  26.579   3.908  15.432 -0.1247 -0.0442  0.1824
 6770W        W 8970   8.841   0.125  19.743 -0.0055  0.2517 -0.3386
 6771W        W 8971  19.214   7.537   7.708 -0.0109  0.1381  0.1303
 6772W        W 8972  15.406   6.385   1.805  0.0013 -0.0033  0.1915
 6773W        W 8973  27.770   4.824   1.016  0.2852  0.0241 -0.1255
 6774W        W 8974  10.047   2.638   1.037  0.3138  0.2321 -0.2300
 6775W        W 8975  19.102   0.535   5.557 -0.0730 -0.0035 -0.2092
 6776W        W 8976  15.050   1.173   7.978 -0.3219 -0.1484 -0.1762
 6777W        W 8977  23.728   6.373  19.804 -0.0300 -0.2353  0.2110
 6778W        W 8978  17.670   7.486  17.644 -0.0386  0.2662  0.0775
 6779W        W 8979  23.205   3.553  17.226  0.1714 -0.0520  0.2622
 6780W        W 8980  29.142   6.747  18.988 -0.3970  0.2309  0.1064
 6781W        W 8981   9.405   2.981   4.777 -0.2626 -0.1150 -0.2020
 6782W        W 8982  14.077   6.272  21.698  0.0064 -0.0180 -0.0508
 6783W        W 8983  26.710   5.540  16.100 -0.0074  0.1215  0.1428
 6784W        W 8984  13.779   6.737  26.005 -0.0903  0.0397  0.2121
 6785W        W 8985   9.424   4.493   6.827  0.0587  0.1429 -0.0312
 6786W        W 8986   2.227   2.757  22.542 -0.0315 -0.1868 -0.1596
 6787W        W 8987   3.712   3.247  19.634 -0.0311 -0.0042  0.3519
 6788W        W 8988   9.065   3.177   4.379  0.1978  0.1353  0.2168
 6789W        W 8989   9.502   0.946  18.182  0.0779 -0.0297 -0.2351
 6790W        W 8990   0.330   4.330   9.099  0.2008  0.0354 -0.2201
 6791W        W 8991   9.045   5.649   5.358  0.1519 -0.1605  0.3893
 6792W        W 8992  16.578   0.165  10.540 -0.0597 -0.0579  0.0413
 6793W        W 8993  22.190   2.431   8.342 -0.2322  0.1287 -0.2340
 6794W        W 8994  10.420   3.437  15.180 -0.3020 -0.1599  0.0845
 6795W        W 8995  15.804   4.011   2.338 -0.1489  0.0268 -0.0564
 6796W        W 8996   9.562   0.768   9.421 -0.4143  0.1611 -0.1663
 6797W        W 8997  27.408   2.470   9.526 -0.0625  0.0227 -0.3253
 6798W        W 8998  27.896   2.677   7.062 -0.0830  0.0659 -0.1642
 6799W        W 8999  26.355   3.241  14.825 -0.0179 -0.1702  0.2138
 6800W        W 9000  24.121   2.126  21.706 -0.1485 -0.1871 -0.1601
 6801W        W 9001  12.376   2.160  15.083 -0.1263 -0.0262  0.0679
 6802W        W 9002  23.837   7.402  15.634  0.5313 -0.1915  0.0783
 6803W        W 9003  26.605   0.202   3.456 -0.0688 -0.0217  0.3381
 6804W        W 9004   1.469   6.258   6.420  0.2371 -0.1310 -0.3674
 6805W        W 9005  13.389   2.840  24.484 -0.3377 -0.0507  0.2408
 6806W        W 9006  29.543   0.057  21.052  0.0167  0.0269 -0.2307
 6807W        W 9007  29.437   6.327  22.527  0.1236  0.0308  0.2100
 6808W        W 9008   7.073   0.158  21.916  0.2521 -0.2376  0.0702
 6809W        W 9009  17.316   2.995   9.855 -0.0613 -0.0398 -0.2767
 6810W        W 9010  28.020   3.030   6.330  0.2094 -0.2158 -0.0071
 6811W        W 9011   0.444   2.869  24.757  0.2504 -0.1813 -0.0667
 6812W        W 9012   8.493   4.422   0.466 -0.2655  0.0426 -0.1560
 6813W        W 9013   4.732   2.503   3.862 -0.0918 -0.0260 -0.0200
 6814W        W 9014  25.783   0.356   4.523  0.0356 -0.0910 -0.1458
 6815W        W 9015  30.461   3.330  14.436 -0.4306 -0.1592 -0.1544
 6816W        W 9016  10.328   6.405  18.053  0.0137  0.0571  0.1550
 6817W        W 9017  12.835   4.034  20.908 -0.1929  0.0103  0.0340
 6818W        W 9018   5.920   3.936  24.916  0.1222 -0.1885  0.1414
 6819W        W 9019  10.506   3.741   9.909 -0.3029 -0.0426 -0.2010
 6820W        W 9020  27.467   3.185  10.003 -0.2236  0.1641 -0.2600
 6821W        W 9021  10.058   3.337  23.318 -0.0903  0.3460 -0.0244
 6822W        W 9022   3.639   2.078   8.794 -0.2006 -0.1431 -0.0703
 6823W        W 9023  26.959   2.791  19.450 -0.0248 -0.1355  0.3612
 6824W        W 9024   5.421   4.382  18.598 -0.0495 -0.2806 -0.3149
 6825W        W 9025   9.440   4.133  15.741 -0.2958  0.2606 -0.0023
 6826W        W 9026  26.959   4.207   3.565 -0.1990  0.0084  0.2685
 6827W        W 9027  15.170   3.331  23.708  0.0416  0.2805 -0.0220
 6828W        W 9028   6.128   3.663  17.868 -0.2478 -0.0899  0.3296
 6829W        W 9029  15.318   7.665   5.393 -0.0839  0.0300  0.0857
 6830W        W 9030  17.274   1.769   7.713 -0.1434  0.2724  0.0781
 6831W        W 9031   7.158   7.763   9.943 -0.4901 -0.0688  0.3644
 6832W        W 9032  26.343   2.877   4.847  0.0641  0.1640 -0.0864
 6833W        W 9033  14.289   2.320  21.475 -0.1413  0.1357  0.0713
 6834W        W 9034  18.922   1.840   0.968 -0.1627 -0.1709  0.2241
 6835W        W 9035   3.142   4.167   9.258  0.1811 -0.0028 -0.0656
 6836W        W 9036  13.260   0.303   2.024 -0.3502  0.0196 -0.1379
 6837W        W 9037  18.854   2.733  21.703  0.1511  0.0562 -0.0639
 6838W        W 9038  28.250   5.388  18.122 -0.0938 -0.1556 -0.0672
 6839W        W 9039  11.454   4.144  20.777 -0.0758  0.0070 -0.0981
 6840W        W 9040  22.198   7.468  21.103 -0.1464  0.0287  0.1234
 6841W        W 9041   8.303   0.830  25.072 -0.0719 -0.0539  0.1096
 6842W        W 9042  24.497   5.912   3.953  0.0745  0.3975  0.1649
 6843W        W 9043   5.142   5.927  22.742 -0.2016  0.0449 -0.2097
 6844W        W 9044  22.284   0.909  18.160  0.2156 -0.1026  0.1831
 6845W        W 9045   9.864   4.322   6.914  0.1424  0.0801  0.2621
 6846W        W 9046  29.385   6.942  21.078 -0.1714  0.1923  0.1627
 6847W        W 9047  22.017   5.036  22.302  0.0675  0.0957 -0.0464
 6848W        W 9048  13.942   4.472   6.030  0.2660  0.1904 -0.0237
 6849W        W 9049  29.468   4.367  25.940 -0.1257 -0.1565  0.1579
 6850W        W 9050  19.578   5.320   3.692 -0.1169 -0.0807 -0.4080
 6851W        W 9051   5.062   3.119  21.697  0.0251 -0.0542 -0.2438
 6852W        W 9052  19.627   7.078   3.518 -0.0896 -0.4919  0.2501
 6853W        W 9053  12.024   6.816   8.148  0.0940 -0.2426  0.1009
 6854W        W 9054  21.308   4.431  17.965  0.0313  0.2171 -0.0783
 6855W        W 9055  24.001   0.727   7.271  0.2976 -0.5124 -0.1358
 6856W        W 9056  15.038   6.912  21.670 -0.0569  0.0070 -0.0419
 6857W        W 9057  15.605   7.320   0.847 -0.2387 -0.0246  0.1984
 6858W        W 9058   9.850   5.727  21.640  0.0253 -0.2722  0.1138
 6859W        W 9059  14.819   7.638   4.836  0.2178 -0.0630 -0.0061
 6860W        W 9060  24.140   7.378  21.729  0.2695  0.1398 -0.1354
 6861W        W 9061  10.927   5.735   7.604 -0.0548 -0.1153 -0.1010
 6862W        W 9062  25.965   5.026  22.341 -0.0607 -0.0084 -0.4068
 6863W        W 9063  14.206   3.218   2.435  0.1669 -0.0768  0.1623
 6864W        W 9064  27.325   2.510   4.992 -0.0547  0.0759  0.1634
 6865W        W 9065  27.166   1.860   7.498  0.0828 -0.0481  0.1202
 6866W        W 9066  13.985   3.946  20.035 -0.1226 -0.1220 -0.1162
 6867W        W 9067  24.114   3.781   8.844 -0.0787 -0.3147  0.0036
 6868W        W 9068  14.103   2.824  25.082  0.2463 -0.2155  0.0045
 6869W        W 9069  21.219   2.456   4.743  0.0645 -0.0782  0.0915
 6870W        W 9070  17.208   2.783  22.567  0.0416 -0.2496 -0.0779
 6871W        W 9071  29.175   0.300  20.777 -0.0112 -0.1091 -0.2274
 6872W        W 9072   9.199   5.975   6.643 -0.1614 -0.0176 -0.1754
 6873W        W 9073  13.443   6.828   6.298  0.0805 -0.0016 -0.0089
 6874W        W 9074  21.411   6.093  18.091 -0.1927  0.0750  0.0811
 6875W        W 9075  22.902   1.719  17.016  0.0724 -0.1950  0.1109
 6876W        W 9076  15.068   2.697  23.102 -0.0459  0.1976 -0.4058
 6877W        W 9077  27.687   5.763  22.815 -0.1755  0.0850  0.0269
 6878W        W 9078  28.243   2.637  23.371  0.3350  0.1199  0.2101
 6879W        W 9079  13.896   6.939   7.136  0.0056 -0.0677 -0.1867
 6880W        W 9080  24.496   2.531  15.905  0.1833  0.0948 -0.1316
 6881W        W 9081   5.520   7.242  25.621 -0.1904 -0.4119  0.0278
 6882W        W 9082   4.813   3.282  15.471  0.2197  0.3675 -0.2745
 6883W        W 9083  22.903   1.218  15.996 -0.2005 -0.0161  0.0289
 6884W        W 9084  27.750   6.216  22.666  0.0593  0.2259 -0.2074
 6885W        W 9085   4.952   2.744   7.013 -0.0708 -0.1378 -0.1297
 6886W        W 9086  16.083   2.826  16.265 -0.0044 -0.0233  0.2039
 6887W        W 9087   0.998   5.908  20.795 -0.0653  0.0815  0.1494
 6888W        W 9088  20.056   7.488  24.590  0.0908  0.2454 -0.1832
 6889W        W 9089   9.660   7.529   1.568  0.1645 -0.2194  0.0102
 6890W        W 9090   0.251   1.646  19.505 -0.0755  0.2281  0.1265
 6891W        W 9091  31.349   0.708  24.383 -0.1847 -0.3171 -0.0768
 6892W        W 9092   0.781   3.159  26.053 -0.1182 -0.2500 -0.0946
 6893W        W 9093   1.883   7.776   5.090  0.1317 -0.0166  0.2243
 6894W        W 9094   7.151   2.719  18.628 -0.1909  0.0778  0.0247
 6895W        W 9095   1.429   6.646  22.566 -0.0743 -0.0065 -0.1059
 6896W        W 9096   4.567   6.852  19.602 -0.0267 -0.1924  0.0264
 6897W        W 9097  25.996   0.083  20.887 -0.3975  0.2211 -0.2370
 6898W        W 9098  31.337   6.596   6.524 -0.2362  0.0049 -0.1331
 6899W        W 9099   6.162   3.002   4.816  0.1020  0.1245  0.0530
 6900W        W 9100  29.023   5.131   8.481 -0.1693  0.3332 -0.3944
 6901W        W 9101  13.729   7.382  20.173  0.0563  0.2461 -0.1203
 6902W        W 9102  24.992   3.062  10.317  0.1654 -0.1001 -0.1037
 6903W        W 9103  14.616   3.007   5.462  0.1150 -0.2213  0.0719
 6904W        W 9104   9.145   5.162   5.239  0.1116  0.1071 -0.1808
 6905W        W 9105   5.953   4.783  24.945  0.1500 -0.2376  0.0713
 6906W        W 9106   5.504   1.590   9.019  0.1454  0.0759 -0.2219
 6907W        W 9107  17.066   4.144  18.945 -0.1355  0.0692 -0.3829
 6908W        W 9108  24.027   5.193   5.056  0.1067  0.1963  0.0235
 6909W        W 9109  20.097   6.428  24.119  0.2348  0.0619  0.2180
 6910W        W 9110  21.793   4.377   6.657 -0.1092 -0.1164  0.0095
 6911W        W 9111  19.947   4.707  18.651 -0.1463 -0.0643 -0.2109
 6912W        W 9112  15.015   1.036  18.635  0.2078  0.2947  0.1846
 6913W        W 9113   6.661   4.052  20.741 -0.0078  0.1458 -0.0383
 6914W        W 9114  15.515   6.142   7.381 -0.0826  0.0853  0.0156
 6915W        W 9115   6.846   0.027   1.722 -0.1987  0.1821  0.0502
 6916W        W 9116  28.500   4.799   1.671 -0.1994 -0.2692 -0.4272
 6917W        W 9117  25.145   0.699  16.164  0.1521 -0.2007 -0.2220
 6918W        W 9118   7.867   2.126  18.209  0.0851  0.5590  0.1839
 6919W        W 9119  29.846   3.479  18.431 -0.3255 -0.2078 -0.0318
 6920W        W 9120  29.312   3.618  15.540 -0.0405  0.3194 -0.0778
 6921W        W 9121  13.005   7.348  10.027 -0.3990 -0.1008 -0.1887
 6922W        W 9122  14.974   5.299  10.109  0.0969  0.0796  0.3236
 6923W        W 9123  10.415   4.615  19.722 -0.0675  0.0346 -0.3791
 6924W        W 9124  18.979   1.160  19.544 -0.0862 -0.1936 -0.0061
 6925W        W 9125  26.562   5.531  15.640 -0.3378  0.3594  0.0607
 6926W        W 9126  19.056   1.688  17.914  0.0325  0.1495 -0.0370
 6927W        W 9127  17.077   0.024  21.899  0.1649  0.0073 -0.1998
 6928W        W 9128   8.390   1.173   5.403 -0.0544 -0.0202 -0.2604
 6929W        W 9129  16.722   0.265   7.917  0.1426  0.0831  0.2070
 6930W        W 9130  30.641   2.610   1.075  0.0374  0.0456  0.1990
 6931W        W 9131   5.114   4.625   9.335 -0.0488 -0.1051 -0.3302
 6932W        W 9132   0.955   7.034  19.651 -0.0089  0.0901 -0.0272
 6933W        W 9133   3.165   1.040   2.198  0.0406 -0.0553 -0.0034
 6934W        W 9134  19.871   6.395   6.128  0.0016  0.2109 -0.0546
 6935W        W 9135  30.317   6.743   6.516 -0.3293  0.1136 -0.0062
 6936W        W 9136   3.002   5.019  18.450  0.1622 -0.1062 -0.1117
 6937W        W 9137  26.306   7.010  16.953 -0.1050 -0.1244 -0.1527
 6938W        W 9138  12.161   5.938   0.068 -0.1949  0.2097 -0.1753
 6939W        W 9139   9.842   5.806   6.399 -0.0515 -0.2088 -0.0752
 6940W        W 9140  29.345   6.067   0.460  0.0033  0.1148  0.0802
 6941W        W 9141  20.802   6.270  22.300 -0.0471  0.3182 -0.0153
 6942W        W 9142  12.905   7.252   2.514 -0.0236 -0.1930 -0.0322
 6943W        W 9143  17.316   3.168  16.092 -0.1148 -0.1119 -0.1489
 6944W        W 9144  16.596   7.496   9.602 -0.0334 -0.0600  0.0109
 6945W        W 9145   3.866   3.027   1.415  0.2280  0.1576  0.4035
 6946W        W 9146  18.106   3.927  19.265 -0.0392 -0.1784 -0.0633
 6947W        W 9147   6.976   1.219   5.802  0.2859  0.1936  0.1465
 6948W        W 9148  28.918   0.950  17.830  0.0483  0.0957 -0.0541
 6949W        W 9149  12.735   5.986   2.889 -0.0680 -0.1449  0.0979
 6950W        W 9150  10.366   5.681  15.692  0.0196  0.2219  0.0580
 6951W        W 9151  30.515   2.911  21.777 -0.2046 -0.0902  0.0301
 6952W        W 9152  28.498   4.981  18.427 -0.2702 -0.1276  0.0637
 6953W        W 9153   3.161   2.637   2.912 -0.0646  0.0974  0.0349
 6954W        W 9154  26.612   2.300   1.948  0.2360  0.0022 -0.0601
 6955W        W 9155  27.810   3.237  22.173  0.0610  0.0172  0.2205
 6956W        W 9156   2.087   1.098  23.356 -0.2103  0.2068 -0.0912
 6957W        W 9157  24.683   1.040   0.111  0.0791  0.0296 -0.2273
 6958W        W 9158  28.613   6.799  15.276 -0.2001 -0.1115  0.1025
 6959W        W 9159  19.205   0.366  15.948  0.2270  0.1710  0.1349
 6960W        W 9160  19.319   6.639  19.280 -0.1206 -0.0049 -0.3216
 6961W        W 9161  16.264   1.577   8.083  0.0817  0.0258  0.0742
 6962W        W 9162  10.120   0.195  17.688 -0.2184  0.1131 -0.0374
 6963W        W 9163  29.472   3.504  21.575 -0.0860  0.0682  0.4408
 6964W        W 9164   5.013   7.187   3.847 -0.1187  0.0404 -0.4502
 6965W        W 9165  10.945   1.049  10.481 -0.1924  0.3174  0.0579
 6966W        W 9166  27.874   5.647  23.319  0.0813 -0.2512  0.0573
 6967W        W 9167  12.152   0.693   2.403 -0.1267 -0.0759  0.1153
 6968W        W 9168   9.383   1.866  24.576  0.1389  0.0629  0.1440
 6969W        W 9169  12.755   0.013   5.484 -0.1128 -0.1974 -0.3716
 6970W        W 9170   5.711   7.694   1.916 -0.2216  0.1327  0.0728
 6971W        W 9171  29.407   3.303   1.114 -0.1449  0.1084 -0.1661
 6972W        W 9172  21.960   7.340   1.695  0.0125 -0.2615  0.0924
 6973W        W 9173   7.298   3.331  24.952 -0.0949 -0.1845 -0.0161
 6974W        W 9174  10.742   6.527  16.090 -0.0409  0.1793  0.1762
 6975W        W 9175   5.831   0.914  23.665 -0.2302  0.1839  0.1668
 6976W        W 9176   0.573   1.504  26.019 -0.0344 -0.0403 -0.1882
 6977W        W 9177  15.618   5.466  17.734  0.0767 -0.1416 -0.0801
 6978W        W 9178   6.733   5.663  19.269 -0.1293 -0.1157  0.2251
 6979W        W 9179  30.470   4.148  25.096  0.0691 -0.2399  0.1212
 6980W        W 9180   1.818   6.655  19.380  0.0047  0.1567  0.1961
 6981W        W 9181  24.831   5.567  17.923 -0.3521 -0.1671 -0.1403
 6982W        W 9182  10.307   3.927  25.080  0.0596  0.1097  0.2039
 6983W        W 9183  21.815   0.510  21.290 -0.2030 -0.2380  0.1804
 6984W        W 9184  19.132   6.815  16.156  0.3029  0.1104  0.1568
 6985W        W 9185   9.683   6.371   5.054 -0.2814  0.2146 -0.2693
 6986W        W 9186  19.320   7.548  19.795 -0.4528 -0.2768 -0.2942
 6987W        W 9187  15.686   3.131   7.742 -0.1482  0.1944 -0.1464
 6988W        W 9188  25.712   4.249  15.584 -0.0222 -0.0051 -0.0047
 6989W        W 9189   8.733   2.107  20.780  0.2480  0.1224 -0.1075
 6990W        W 9190  11.977   0.370  16.997  0.1163 -0.1696  0.4148
 6991W        W 9191   6.022   4.996   9.359 -0.0436 -0.0550 -0.0214
 6992W        W 9192  23.454   2.060   8.370 -0.3973 -0.0031 -0.0017
 6993W        W 9193   1.284   2.264  22.585  0.1842 -0.2648 -0.2768
 6994W        W 9194  10.202   7.018  21.984 -0.0335  0.0615 -0.1617
 6995W        W 9195   1.509   6.215   8.379 -0.0803  0.0023  0.1200
 6996W        W 9196  20.186   6.953  11.417 -0.1502 -0.1951  0.0330
 6997W        W 9197  21.450   0.184  17.413 -0.0518 -0.1168  0.0044
 6998W        W 9198  26.421   6.641  22.246  0.3081  0.1116 -0.2239
 6999W        W 9199   6.905   3.073   8.706 -0.0746  0.3099  0.1708
 7000W        W 9200   8.900   0.525   9.101  0.4170 -0.2605 -0.2488
 7001W        W 9201  14.995   4.440   0.095 -0.2221  0.0814 -0.0283
 7002W        W 9202  25.164   5.810   0.170 -0.0130 -0.0827  0.0656
 7003W        W 9203  26.162   0.765   2.156 -0.1221 -0.1076  0.0579
 7004W        W 9204   0.507   2.190   8.411 -0.1686 -0.0950 -0.0109
 7005W        W 9205  19.442   4.114   2.596  0.1222  0.0770 -0.0456
 7006W        W 9206  15.422   4.804  19.414  0.3164  0.0054 -0.1617
 7007W        W 9207   2.263   4.445   9.862 -0.1893  0.1895  0.0231
 7008W        W 9208  22.407   1.306  10.017 -0.0023  0.0289 -0.1566
 7009W        W 9209   6.156   7.744  24.463  0.4289  0.4175  0.2398
 7010W        W 9210  10.031   3.187   8.678 -0.1187  0.0360  0.0473
 7011W        W 9211   4.034   3.222  15.142  0.0520 -0.2912 -0.3258
 7012W        W 9212   2.959   2.275   2.571 -0.0746  0.3561  0.2516
 7013W        W 9213  30.628   2.446   6.583  0.0339  0.2808 -0.3998
 7014W        W 9214  24.923   1.768  15.730  0.0331 -0.0451 -0.1692
 7015W        W 9215   4.129   4.538   9.871 -0.0047 -0.4215 -0.0354
 7016W        W 9216  10.549   3.385  24.010 -0.2563 -0.0955 -0.1926
 7017W        W 9217  17.938   5.046   0.991 -0.1674 -0.0531 -0.0233
 7018W        W 9218  23.908   4.907  18.158 -0.1183  0.2649 -0.2609
 7019W        W 9219   6.187   4.684   6.253  0.1993  0.0120  0.2535
 7020W        W 9220  23.914   5.062   6.066 -0.2625 -0.2184 -0.0741
 7021W        W 9221  18.612   2.718  22.587 -0.1037 -0.1339  0.3865
 7022W        W 9222  12.417   7.040  25.305  0.2084  0.1819 -0.0152
 7023W        W 9223  23.402   5.523   1.142  0.1478  0.1767  0.0021
 7024W        W 9224  10.513   1.790   6.500 -0.1100 -0.0784 -0.0969
 7025W        W 9225  29.775   5.041  10.963  0.1202 -0.0339  0.2345
 7026W        W 9226   9.079   6.797   4.933  0.1078 -0.0155  0.2934
 7027W        W 9227   2.488   2.960   2.429 -0.1526  0.0129 -0.0814
 7028W        W 9228   7.536   5.037  17.956 -0.0731  0.0527  0.0847
 7029W        W 9229   8.233   6.601  24.128  0.1492  0.1736  0.2678
 7030W        W 9230  20.911   0.705  22.507 -0.0134 -0.0458  0.0158
 7031W        W 9231  15.997   2.261  24.005 -0.0143  0.1697 -0.2853
 7032W        W 9232   8.413   4.864   1.502 -0.1654 -0.0137 -0.1246
 7033W        W 9233  24.282   1.855   4.635  0.0731 -0.1544  0.0159
 7034W        W 9234  30.061   5.417  15.074  0.0834 -0.3963 -0.2822
 7035W        W 9235   6.163   3.475  21.372  0.3911 -0.0672  0.3454
 7036W        W 9236  24.014   2.827   0.295 -0.0434  0.1802  0.2840
 7037W        W 9237  10.145   1.320   7.381  0.1288 -0.1842  0.1772
 7038W        W 9238  22.344   2.353  24.363  0.1923  0.1329  0.1405
 7039W        W 9239  21.634   1.785  22.786  0.0064 -0.4864  0.2766
 7040W        W 9240  25.930   5.145  15.040  0.1597 -0.2140  0.0182
 7041W        W 9241   0.959   2.641  22.428 -0.0722  0.0088  0.1717
 7042W        W 9242   8.616   4.027  24.074  0.0258  0.2438  0.1236
 7043W        W 9243  25.287   1.200  21.746 -0.1538  0.0683  0.0659
 7044W        W 9244  14.585   4.621  10.012 -0.2275  0.1237 -0.0931
 7045W        W 9245   5.998   6.258  22.868  0.0511 -0.0488  0.1824
 7046W        W 9246   8.442   5.149  21.991  0.3185 -0.1689 -0.0260
 7047W        W 9247  12.743   5.044  23.428 -0.1560 -0.0594  0.0287
 7048W        W 9248   5.572   3.400  24.712 -0.2763  0.1053 -0.0621
 7049W        W 9249  18.481   2.485  15.798 -0.1883 -0.0530  0.1258
 7050W        W 9250  10.562   3.245   4.054  0.3375  0.1243 -0.0405
 7051W        W 9251  23.388   1.785   1.111 -0.0814 -0.1727  0.1800
 7052W        W 9252  11.323   4.351  24.249 -0.2187  0.0436 -0.0223
 7053W        W 9253  16.758   5.980   1.352  0.0542 -0.0014 -0.0868
 7054W        W 9254  22.513   0.595  20.109  0.0990  0.0935 -0.0393
 7055W        W 9255  17.624   6.220  19.204 -0.1813  0.1535 -0.0780
 7056W        W 9256  16.190   6.201  17.529  0.1503  0.0132  0.1529
 7057W        W 9257  27.393   2.838  18.725 -0.0107 -0.0438 -0.0769
 7058W        W 9258   8.672   6.518  17.961 -0.0398 -0.1520  0.0454
 7059W        W 9259   1.013   6.246   5.640  0.1977  0.0725 -0.1407
 7060W        W 9260  24.137   4.338  22.506 -0.0477  0.0597  0.0381
 7061W        W 9261  18.647   2.389   6.412 -0.2147  0.2638  0.1807
 7062W        W 9262  22.449   5.831  25.061  0.0961 -0.2034 -0.2121
 7063W        W 9263  10.389   4.208  17.284 -0.1251 -0.0419  0.5702
 7064W        W 9264  19.014   2.111   2.880 -0.0285 -0.0330  0.0697
 7065W        W 9265   4.852   1.819   0.982 -0.1602  0.3935 -0.2841
 7066W        W 9266   4.351   2.065   1.112  0.0310  0.1365  0.1277
 7067W        W 9267   9.101   1.842   0.012 -0.2977  0.1168 -0.2711
 7068W        W 9268  18.428   4.087   5.426 -0.1879  0.0457 -0.0864
 7069W        W 9269  18.791   4.265  19.530 -0.1478 -0.3041  0.1401
 7070W        W 9270   3.785   7.641   8.451 -0.0262  0.1407  0.0307
 7071W        W 9271  26.006   0.342   5.324  0.2509  0.1246  0.0022
 7072W        W 9272  28.405   2.907  21.406 -0.0022 -0.1177  0.0131
 7073W        W 9273   9.512   3.947   5.616 -0.0545  0.0890 -0.0417
 7074W        W 9274  10.427   5.929   1.059 -0.1393  0.0300  0.4688
 7075W        W 9275   5.703   3.052  25.109 -0.1768  0.1499  0.0533
 7076W        W 9276   2.270   3.368  18.842  0.0029  0.0542  0.0376
 7077W        W 9277  31.043   5.734  14.710 -0.2938  0.2334 -0.0470
 7078W        W 9278  26.593   6.133  16.938 -0.1240 -0.2426 -0.0139
 7079W        W 9279  30.444   4.772  25.822 -0.3053 -0.0110 -0.2105
 7080W        W 9280  15.579   2.340  18.603 -0.2885  0.3901  0.1222
 7081W        W 9281  22.375   5.310  20.447  0.1800  0.1235  0.0397
 7082W        W 9282  28.712   3.228  19.308  0.1009  0.1578  0.1222
 7083W        W 9283  21.737   1.934  17.854  0.1081  0.3501  0.3668
 7084W        W 9284   0.035   5.802  22.936 -0.5176 -0.1773  0.0509
 7085W        W 9285   4.741   1.068   7.788  0.2083 -0.0674  0.1444
 7086W        W 9286  17.066   2.050   3.737 -0.2785  0.1044 -0.0225
 7087W        W 9287   1.559   7.171   7.808 -0.0265 -0.0201  0.1133
 7088W        W 9288  14.925   0.260   4.606 -0.0518 -0.1100 -0.0397
 7089W        W 9289  26.354   6.069  14.928 -0.2910 -0.0086 -0.1008
 7090W        W 9290  16.517   1.595  19.014 -0.1274 -0.1739  0.3218
 7091W        W 9291  24.200   6.646  18.073 -0.0716 -0.1325 -0.0407
 7092W        W 9292  29.084   3.955   3.300  0.0377 -0.1994 -0.1574
 7093W        W 9293  10.848   5.279   0.183 -0.1955 -0.0381 -0.0406
 7094W        W 9294  22.857   3.527  18.291 -0.2734 -0.4930 -0.0745
 7095W        W 9295  30.631   3.088  15.674 -0.1915 -0.0492  0.0702
 7096W        W 9296  20.062   6.065  17.268  0.0236  0.1131  0.0967
 7097W        W 9297  12.562   7.768   3.790  0.0357  0.1469  0.0291
 7098W        W 9298   7.671   6.252  22.239  0.0990  0.1014 -0.0020
 7099W        W 9299  23.011   0.011  15.282  0.3807  0.1863 -0.0345
 7100W        W 9300  21.371   1.741   2.110 -0.2306  0.2366 -0.2677
 7101W        W 9301   2.650   3.846   4.184  0.0366 -0.2562  0.1924
 7102W        W 9302  14.295   5.915  20.636  0.0644  0.0979  0.0123
 7103W        W 9303   1.585   1.101  15.245  0.1267 -0.0241 -0.0404
 7104W        W 9304   0.688   2.735   2.133  0.1758 -0.1256 -0.0406
 7105W        W 9305  22.169   3.336  22.383 -0.1015 -0.0597 -0.1112
 7106W        W 9306  18.567   3.126   1.980 -0.0112 -0.0655 -0.0577
 7107W        W 9307   0.209   7.043  23.023 -0.0493 -0.1369 -0.0140
 7108W        W 9308   3.276   7.421   8.487  0.2385 -0.0452  0.0594
 7109W        W 9309  24.435   6.055   9.473  0.0412  0.0869  0.8106
 7110W        W 9310  11.004   7.141  19.914 -0.2389  0.1583 -0.2518
 7111W        W 9311  13.914   6.335   0.699  0.2161  0.1787 -0.1552
 7112W        W 9312  20.460   0.405   0.365 -0.1377 -0.0144 -0.1386
 7113W        W 9313  10.401   0.158   5.271 -0.2825 -0.1973 -0.2160
 7114W        W 9314  13.202   5.691  10.178  0.1660  0.0705  0.0152
 7115W        W 9315  14.109   1.156  10.723 -0.1300  0.4364  0.1722
 7116W        W 9316   8.130   7.660  22.790 -0.0962  0.2810  0.0939
 7117W        W 9317  28.117   1.577  16.932 -0.1425 -0.0136  0.3518
 7118W        W 9318  20.657   2.701  25.525  0.1220  0.1796  0.0982
 7119W        W 9319   0.872   5.770   7.779 -0.1143 -0.0690  0.2670
 7120W        W 9320   5.221   4.200   1.926  0.1675 -0.1666 -0.2053
 7121W        W 9321  23.121   3.479   9.339 -0.0624 -0.1804  0.4104
 7122W        W 9322  30.785   4.964   8.740 -0.1746  0.0325  0.2623
 7123W        W 9323  20.180   5.572  17.720 -0.0200  0.3823  0.3603
 7124W        W 9324   0.073   7.040  10.394 -0.1397 -0.1407  0.2233
 7125W        W 9325  29.405   6.050  25.898  0.0370  0.0524 -0.0636
 7126W        W 9326   6.806   1.067   3.774 -0.1870  0.1069 -0.2099
 7127W        W 9327  23.859   3.505  18.944 -0.1627 -0.1112 -0.0965
 7128W        W 9328  28.652   7.803  10.404  0.2548  0.3679  0.1841
 7129W        W 9329   5.105   6.914   0.242  0.0351 -0.1962  0.0481
 7130W        W 9330  23.395   6.835  10.677  0.0200 -0.1513  0.0064
 7131W        W 9331  23.853   3.063  21.664 -0.0635 -0.1174 -0.1632
 7132W        W 9332  16.449   0.784   1.623  0.3531 -0.0590  0.1190
 7133W        W 9333  21.135   0.746  25.472  0.0282  0.2949 -0.1828
 7134W        W 9334   7.271   7.829   4.663 -0.0234 -0.2320  0.1569
 7135W        W 9335   3.737   6.020  15.184  0.0832  0.0159  0.3103
 7136W        W 9336  18.890   1.166  15.685 -0.1997  0.1823  0.1295
 7137W        W 9337  27.280   0.259  14.674  0.3295 -0.0827 -0.0942
 7138W        W 9338  11.559   1.977  20.340  0.0728 -0.1132  0.0061
 7139W        W 9339  30.720   3.803  18.591 -0.2321 -0.2724 -0.0069
 7140W        W 9340  30.319   5.909   4.509  0.0039  0.0487 -0.1001
 7141W        W 9341  22.365   6.452  17.030 -0.0622 -0.1475 -0.1044
 7142W        W 9342   4.334   4.393  19.532 -0.0419  0.0855 -0.0050
 7143W        W 9343  19.303   0.583   3.790 -0.3594 -0.0109 -0.1632
 7144W        W 9344  23.169   7.745  16.974  0.2141 -0.0452 -0.0412
 7145W        W 9345  27.408   7.000   4.303  0.0992  0.1749 -0.0077
 7146W        W 9346  27.057   3.980   1.853  0.0476 -0.0211  0.1323
 7147W        W 9347  10.397   3.795   1.481  0.2835  0.1088  0.0950
 7148W        W 9348  24.384   4.243   8.894 -0.1949 -0.3109  0.2176
 7149W        W 9349  22.005   2.124  20.766  0.0868 -0.4353  0.0395
 7150W        W 9350   1.354   7.293  26.069  0.2665  0.0108  0.1283
 7151W        W 9351   6.612   7.426  20.087  0.4214  0.0980 -0.2279
 7152W        W 9352   1.791   1.424   4.094  0.0552 -0.3581 -0.1692
 7153W        W 9353  23.228   4.125  24.383  0.1587  0.1882  0.3200
 7154W        W 9354  23.990   4.723  17.680  0.0571 -0.4916  0.1927
 7155W        W 9355  13.495   7.662  25.546 -0.0234 -0.0325  0.1487
 7156W        W 9356   4.945   4.738   4.546 -0.0340  0.2076 -0.1787
 7157W        W 9357  20.747   2.486  16.964 -0.0837  0.0398  0.0394
 7158W        W 9358  29.987   2.166  21.550  0.0449 -0.0207 -0.2842
 7159W        W 9359   4.248   1.168   1.045 -0.0219  0.0673 -0.1075
 7160W        W 9360  12.905   3.907  10.145  0.0899 -0.2839  0.1823
 7161W        W 9361  29.190   0.182  16.188 -0.0119 -0.0579 -0.0270
 7162W        W 9362  26.840   3.289  20.646 -0.4141 -0.0330  0.0258
 7163W        W 9363  15.131   6.981  19.415 -0.0892  0.2449  0.0342
 7164W        W 9364  20.798   4.961  20.492 -0.0543  0.0264  0.0582
 7165W        W 9365  14.409   7.071   9.347  0.1275 -0.1723 -0.3325
 7166W        W 9366  11.144   0.038  21.291 -0.4270 -0.0218  0.0918
 7167W        W 9367  13.079   0.246   3.211  0.0633  0.1913  0.1564
 7168W        W 9368  12.257   3.904   4.958 -0.2506  0.3179  0.2151
 7169W        W 9369  30.972   1.208  16.006  0.0470 -0.2485 -0.0614
 7170W        W 9370   0.968   0.604  19.566  0.3325  0.0109  0.2734
 7171W        W 9371  25.024   6.774  18.367 -0.3469  0.0359  0.0294
 7172W        W 9372  30.066   3.527   3.191 -0.0090  0.0010  0.0018
 7173W        W 9373  20.570   5.509  19.710 -0.0228 -0.1258  0.3382
 7174W        W 9374  14.204   1.276   7.140 -0.3758 -0.2371  0.1823
 7175W        W 9375   8.923   7.426   3.629 -0.0231  0.2209 -0.2889
 7176W        W 9376  15.093   0.934   5.310  0.1928  0.1782  0.0415
 7177W        W 9377   9.619   2.176   4.430  0.2162 -0.2692  0.0937
 7178W        W 9378  18.483   4.435   4.109 -0.3436  0.1253  0.1411
 7179W        W 9379  12.790   3.605  23.909 -0.1208  0.0617  0.0781
 7180W        W 9380   3.132   2.096   8.877 -0.4392 -0.0565  0.0160
 7181W        W 9381   4.904   4.745   7.584  0.0032 -0.3973  0.0300
 7182W        W 9382  30.582   6.804  24.778  0.1887  0.0833 -0.1601
 7183W        W 9383  24.076   4.925   4.644  0.0623 -0.1624  0.0184
 7184W        W 9384  27.226   2.547  15.811  0.1033 -0.1719 -0.0706
 7185W        W 9385  14.526   4.928  15.644 -0.1879  0.0159  0.1523
 7186W        W 9386   0.106   1.944   1.781 -0.2619 -0.0648 -0.1326
 7187W        W 9387  26.280   1.376  20.118 -0.0215  0.2754  0.1363
 7188W        W 9388   9.162   5.128   8.999 -0.1816 -0.2283  0.0582
 7189W        W 9389  27.984   6.348   7.578 -0.0323  0.1089  0.3260
 7190W        W 9390   0.986   4.831   2.756  0.1159 -0.1521  0.1265
 7191W        W 9391  31.068   4.760  18.378 -0.1175  0.1522  0.0062
 7192W        W 9392  15.987   4.874  17.199 -0.0533 -0.0519  0.1578
 7193W        W 9393   7.493   2.035  20.482  0.0766 -0.2003  0.0034
 7194W        W 9394   1.444   7.129  23.884 -0.0756 -0.0235 -0.2779
 7195W        W 9395  13.066   4.407   0.054  0.1022 -0.2359  0.1075
 7196W        W 9396  15.493   5.943  17.450  0.1568 -0.2485  0.0241
 7197W        W 9397   2.464   7.076  21.916 -0.1054 -0.0545 -0.1635
 7198W        W 9398   7.004   4.443   8.914 -0.0232 -0.0658 -0.0932
 7199W        W 9399  24.042   5.054   9.161  0.2377  0.2207  0.2407
 7200W        W 9400  10.507   6.256  11.637 -0.1395 -0.2525  0.0472
 7201W        W 9401  11.583   7.651   4.758 -0.0287  0.1734  0.2330
 7202W        W 9402   0.653   2.622  19.933  0.0648  0.0826 -0.1350
 7203W        W 9403   2.453   0.166  15.211  0.1338  0.2562  0.1278
 7204W        W 9404  19.384   6.362   2.115 -0.2270  0.0920  0.2416
 7205W        W 9405   4.784   7.829   3.331 -0.0322  0.0960  0.1905
 7206W        W 9406   7.001   2.307  17.891  0.2925 -0.0391 -0.2110
 7207W        W 9407   4.292   4.623  21.235 -0.0465 -0.2697  0.1327
 7208W        W 9408  18.010   1.280  10.590  0.2343 -0.0392 -0.2461
 7209W        W 9409   6.629   4.009  17.991 -0.1898 -0.0414  0.0555
 7210W        W 9410  30.388   5.111   3.153  0.2628  0.2919  0.0238
 7211W        W 9411  20.941   0.332  20.745  0.0936 -0.0269 -0.0352
 7212W        W 9412  20.495   2.679   3.750  0.2033 -0.2764 -0.2770
 7213W        W 9413  17.126   4.405  19.810 -0.3191 -0.0817 -0.1750
 7214W        W 9414  21.215   1.799  19.970 -0.1896  0.1448  0.0818
 7215W        W 9415   9.106   0.022   9.088  0.0050  0.2558  0.0091
 7216W        W 9416   5.207   7.270  20.802 -0.0288 -0.2053 -0.2043
 7217W        W 9417   2.037   3.234   4.665  0.1299 -0.1805 -0.0417
 7218W        W 9418  28.103   3.396  14.555  0.0342  0.0404  0.0724
 7219W        W 9419   4.329   2.288  17.912  0.0091 -0.2226 -0.0609
 7220W        W 9420  29.546   1.677   3.374 -0.0317 -0.1428  0.0008
 7221W        W 9421  18.814   6.117  11.831  0.0996  0.3225  0.2453
 7222W        W 9422   7.120   1.807   8.397  0.0898 -0.0169  0.2016
 7223W        W 9423  27.357   7.601   7.279  0.0685  0.0345 -0.1373
 7224W        W 9424  27.423   4.193  19.281 -0.1152  0.0679  0.1695
 7225W        W 9425  10.544   1.214   8.381 -0.1046 -0.1630  0.3070
 7226W        W 9426  12.825   2.818  17.606  0.0222 -0.0989  0.0284
 7227W        W 9427  24.394   6.942  18.415  0.0462 -0.1863 -0.1811
 7228W        W 9428   6.519   0.598  10.404 -0.0455  0.1116 -0.0387
 7229W        W 9429   0.577   6.981  22.644 -0.2012  0.0244 -0.0568
 7230W        W 9430  20.822   0.805   6.087 -0.0244 -0.2203  0.3197
 7231W        W 9431  15.750   4.755   6.365 -0.1866 -0.2461 -0.0115
 7232W        W 9432  20.223   6.222  23.678 -0.1441 -0.0696  0.2034
 7233W        W 9433  14.235   6.797  24.602  0.1074 -0.3823  0.0880
 7234W        W 9434  27.192   6.982   9.388 -0.0219  0.2010 -0.2232
 7235W        W 9435   1.158   6.186  16.817  0.0753 -0.0073  0.4328
 7236W        W 9436  28.316   1.230  20.638  0.1086  0.0486  0.0039
 7237W        W 9437  29.900   6.744  23.098  0.2011 -0.0231  0.0049
 7238W        W 9438  27.174   5.430  15.935  0.0770 -0.0910 -0.0003
 7239W        W 9439   4.594   0.655  10.096 -0.3549 -0.0691 -0.1096
 7240W        W 9440  19.965   2.013   0.607  0.2119 -0.1272 -0.2047
 7241W        W 9441  23.426   1.462  25.262 -0.5335 -0.1801  0.0782
 7242W        W 9442  24.011   5.611   1.459  0.1040  0.2147 -0.0588
 7243W        W 9443  12.832   2.047  24.869 -0.0460 -0.1023  0.0091
 7244W        W 9444  29.756   0.344  21.402  0.0985 -0.0746 -0.1601
 7245W        W 9445   3.417   4.489  22.763 -0.3428 -0.0883  0.2531
 7246W        W 9446  15.021   3.885  10.450  0.1813 -0.0226 -0.1306
 7247W        W 9447  28.668   5.701   3.583 -0.1663 -0.2039  0.0004
 7248W        W 9448  22.643   0.074   3.277 -0.0435 -0.0822  0.0348
 7249W        W 9449   1.743   0.197  24.970 -0.0269  0.0487 -0.3068
 7250W        W 9450  26.926   4.227  18.078  0.0367 -0.3196  0.0198
 7251W        W 9451  24.485   0.323  18.531  0.0774 -0.2237  0.1565
 7252W        W 9452  12.388   5.352  23.740  0.2626 -0.2065 -0.0376
 7253W        W 9453  12.842   0.801  16.198  0.0001  0.1799 -0.2347
 7254W        W 9454   9.495   0.457  20.620  0.1181 -0.0544  0.0038
 7255W        W 9455   0.646   4.023  18.912  0.1305 -0.3665  0.0256
 7256W        W 9456   0.824   6.859  21.252  0.0513  0.0548  0.1033
 7257W        W 9457  19.135   3.094  19.118 -0.1438 -0.0149  0.0093
 7258W        W 9458  18.098   5.500   3.226  0.2001  0.1981 -0.0737
 7259W        W 9459  26.508   5.100  15.909 -0.1320 -0.2808  0.0601
 7260W        W 9460   9.872   5.942   1.324 -0.0408  0.0399 -0.0243
 7261W        W 9461   9.341   4.294   5.298  0.0983  0.0527  0.0884
 7262W        W 9462  14.915   2.875  19.039  0.0836 -0.2945 -0.2070
 7263W        W 9463   6.043   1.084  16.641  0.0015  0.0214  0.1564
 7264W        W 9464   6.776   3.458  24.910  0.2098 -0.1747  0.3138
 7265W        W 9465  28.887   2.900   7.423 -0.0570  0.2337  0.3340
 7266W        W 9466  11.992   6.243  24.183  0.0755 -0.1001 -0.2120
 7267W        W 9467  25.650   4.190  23.900  0.1515  0.2161  0.2125
 7268W        W 9468   4.562   6.340  25.239 -0.2051  0.0454 -0.0980
 7269W        W 9469   9.333   5.554   0.363  0.2645 -0.2672 -0.0302
 7270W        W 9470  27.110   4.096   9.898 -0.0447 -0.2161 -0.2172
 7271W        W 9471  11.387   5.134   8.799 -0.0500  0.1254  0.3433
 7272W        W 9472  25.892   1.792  16.903  0.1957 -0.0682  0.1839
 7273W        W 9473  26.254   7.571  18.505  0.1170  0.0348 -0.3670
 7274W        W 9474  27.927   1.199  22.269 -0.2006  0.1496  0.0856
 7275W        W 9475  24.463   7.858  23.587 -0.1059 -0.1310  0.1243
 7276W        W 9476  10.231   2.165  18.972 -0.0138  0.0496  0.0897
 7277W        W 9477   5.419   2.820   3.734  0.1029 -0.3495  0.1721
 7278W        W 9478  21.873   7.201  21.401  0.2866  0.3517  0.1023
 7279W        W 9479  26.533   2.849  16.506  0.0176 -0.2055 -0.1006
 7280W        W 9480  10.296   5.887  11.332  0.0980  0.1776  0.2259
 7281W        W 9481   8.928   3.852   9.217 -0.1879 -0.1440  0.0149
 7282W        W 9482  24.275   5.617  15.986 -0.0725 -0.1893  0.3533
 7283W        W 9483  20.898   3.620   3.565 -0.2039 -0.0921 -0.1616
 7284W        W 9484   0.734   3.998   5.066  0.0829  0.1477  0.1895
 7285W        W 9485   5.641   6.364  15.421  0.1458 -0.0047 -0.0114
 7286W        W 9486  23.623   1.237  18.368 -0.0138 -0.0230 -0.0185
 7287W        W 9487  22.025   7.533   7.613  0.1881  0.2266 -0.1601
 7288W        W 9488  30.599   3.186  24.920 -0.1425  0.2071  0.1218
 7289W        W 9489  14.208   0.397  15.710  0.2361 -0.1267 -0.0108
 7290W        W 9490  17.237   4.272   3.952 -0.0852 -0.3635  0.2670
 7291W        W 9491   2.695   5.614   6.261 -0.2229 -0.0575  0.0939
 7292W        W 9492   4.513   6.112   1.397  0.0200  0.1857  0.0350
 7293W        W 9493  21.354   4.617  22.952  0.0720  0.2944  0.3668
 7294W        W 9494   5.721   0.558   4.954  0.0596  0.0899  0.1695
 7295W        W 9495  17.114   6.085  21.373  0.0975 -0.1019  0.0774
 7296W        W 9496  28.261   2.463   2.906 -0.0709  0.2329 -0.3092
 7297W        W 9497  19.093   5.183   7.981 -0.3393 -0.0534  0.2297
 7298W        W 9498  31.079   0.201   4.044  0.0803 -0.0970  0.0559
 7299W        W 9499  27.069   2.332   0.757 -0.0733 -0.0264  0.3792
 7300W        W 9500  30.855   0.562  19.568  0.0476 -0.1328  0.0101
 7301W        W 9501  29.933   0.833  20.603  0.0614  0.1911 -0.1316
 7302W        W 9502   1.980   1.230   8.432 -0.1669  0.0597  0.0537
 7303W        W 9503   9.078   7.787  23.002  0.2405 -0.1175 -0.1466
 7304W        W 9504   4.688   6.612  20.520  0.3111  0.2388  0.1105
 7305W        W 9505   8.523   0.702  22.956  0.0684 -0.0351 -0.2679
 7306W        W 9506  16.037   3.143  10.507  0.0655  0.0792 -0.1108
 7307W        W 9507   7.174   4.673   2.466 -0.2144 -0.2015 -0.3514
 7308W        W 9508  24.225   3.162  24.850 -0.0308 -0.1958 -0.0668
 7309W        W 9509  28.090   3.568  24.540  0.0528 -0.0611 -0.0773
 7310W        W 9510  21.121   1.307  18.373  0.0778 -0.0902 -0.1541
 7311W        W 9511  31.375   1.740  14.829 -0.1936 -0.1048 -0.0292
 7312W        W 9512   9.986   6.898  20.558  0.0916 -0.2780 -0.2206
 7313W        W 9513   0.705   0.626   9.266 -0.1160  0.4069  0.3308
 7314W        W 9514  31.117   0.387  21.273 -0.1662  0.1945 -0.2697
 7315W        W 9515  28.447   1.194  18.682 -0.1661  0.1339  0.2171
 7316W        W 9516  11.301   2.996  18.490  0.0015 -0.1265  0.2518
 7317W        W 9517   1.588   6.715   8.626 -0.2079 -0.1469  0.1825
 7318W        W 9518  20.926   3.210   8.484  0.0604 -0.0309  0.0083
 7319W        W 9519  17.368   6.748  24.721  0.1129  0.1304 -0.0742
 7320W        W 9520  16.228   2.274  15.304 -0.1491 -0.1638 -0.1585
 7321W        W 9521  16.131   7.637   9.692 -0.1902  0.1515  0.5381
 7322W        W 9522  14.297   0.444  20.633 -0.0894  0.1041  0.0337
 7323W        W 9523  18.245   6.969  19.716  0.0159 -0.0761 -0.1969
 7324W        W 9524  13.156   0.760   5.796 -0.1208  0.1497  0.1379
 7325W        W 9525  11.810   2.670   8.362 -0.0501  0.0802 -0.0182
 7326W        W 9526  23.200   5.432  10.935 -0.1382 -0.0768  0.2100
 7327W        W 9527  10.629   7.077  24.865 -0.0109 -0.2392 -0.1767
 7328W        W 9528  17.445   3.098   9.348  0.0455 -0.0560  0.0139
 7329W        W 9529  15.420   2.546  18.171  0.0028 -0.1518 -0.1040
 7330W        W 9530  25.491   4.117  17.109 -0.0136 -0.1536  0.1576
 7331W        W 9531   6.812   0.933  23.065  0.0607  0.2002 -0.1423
 7332W        W 9532  26.428   5.177   6.915  0.2128  0.0330  0.1613
 7333W        W 9533  17.935   3.879  19.779 -0.2493  0.0684 -0.1289
 7334W        W 9534  18.966   5.062  22.984  0.2317 -0.1508 -0.0016
 7335W        W 9535  18.025   7.236  23.091  0.4171 -0.1406 -0.2494
 7336W        W 9536  26.041   6.987   0.723  0.0053  0.0831  0.0697
 7337W        W 9537   7.035   5.038   1.563 -0.3306  0.0534 -0.1620
 7338W        W 9538   7.925   7.398   4.852  0.3223 -0.5672  0.1491
 7339W        W 9539  12.347   1.422  11.505 -0.0310 -0.2672 -0.0218
 7340W        W 9540   4.403   0.329   3.422  0.0705  0.2222  0.1994
 7341W        W 9541  22.637   4.705   7.977 -0.0901  0.1519 -0.0207
 7342W        W 9542  28.447   5.428   2.900  0.2042 -0.1102 -0.0490
 7343W        W 9543  26.559   3.793  19.533  0.1587 -0.0931 -0.1054
 7344W        W 9544   4.734   5.614  23.057 -0.1156  0.4432 -0.3370
 7345W        W 9545   5.586   3.983  18.913 -0.4651 -0.3474 -0.0094
 7346W        W 9546  30.341   2.536   1.834  0.2621 -0.1557 -0.1376
 7347W        W 9547  24.122   0.254  25.541 -0.1874 -0.2630 -0.1484
 7348W        W 9548  10.978   6.476  10.010 -0.1033  0.1887  0.1529
 7349W        W 9549   7.833   1.203  20.932  0.3028  0.1384 -0.3471
 7350W        W 9550  21.906   4.616   9.204  0.1932 -0.0085  0.0820
 7351W        W 9551   0.656   1.538  18.434 -0.4064 -0.2793  0.0592
 7352W        W 9552  22.448   0.950  16.774 -0.1746 -0.1089 -0.2718
 7353W        W 9553   7.232   4.864   6.342  0.1948 -0.0762 -0.0334
 7354W        W 9554  23.351   0.929   1.773  0.2297 -0.0437  0.1579
 7355W        W 9555  21.635   4.986  23.269 -0.0539  0.0575 -0.1279
 7356W        W 9556   0.398   4.810   7.809  0.1293 -0.3731  0.1574
 7357W        W 9557  11.173   0.137   3.157 -0.2005 -0.2497 -0.1273
 7358W        W 9558  15.746   2.056  22.045 -0.1535 -0.0784  0.2709
 7359W        W 9559   7.910   3.780  10.579  0.3903  0.1441  0.0023
 7360W        W 9560  25.657   2.415   8.866  0.1979 -0.0764  0.1685
 7361W        W 9561  15.708   2.942  22.818 -0.1194 -0.0364  0.0201
 7362W        W 9562   2.165   5.644  17.687  0.1310 -0.0253 -0.0542
 7363W        W 9563   0.026   4.994   7.127  0.0278  0.0462 -0.2999
 7364W        W 9564  16.499   4.637   0.122  0.0138  0.4475 -0.1723
 7365W        W 9565  10.530   2.258   8.735  0.4388 -0.0941 -0.3184
 7366W        W 9566  23.310   0.337   7.842 -0.0530 -0.1995  0.0082
 7367W        W 9567  18.207   6.956  25.990 -0.1647 -0.1184  0.0769
 7368W        W 9568   5.690   5.601   8.052  0.0307 -0.0960 -0.0704
 7369W        W 9569   0.593   1.210  21.254 -0.0244 -0.0449  0.1646
 7370W        W 9570   9.053   4.602   3.883  0.0048  0.0251  0.1261
 7371W        W 9571  20.589   4.244   1.039  0.0708 -0.0885 -0.0987
 7372W        W 9572  26.467   4.638  22.869  0.2938 -0.1954 -0.1017
 7373W        W 9573  10.992   5.594  18.337  0.1890 -0.0081  0.1286
 7374W        W 9574  20.910   3.512   5.863 -0.2467  0.3048 -0.0519
 7375W        W 9575  25.311   4.621  20.000  0.1076  0.2005  0.3099
 7376W        W 9576  28.508   7.723  24.652  0.2062 -0.0446 -0.0328
 7377W        W 9577   6.382   2.410  17.374  0.0090 -0.1197 -0.0543
 7378W        W 9578  18.170   0.152   0.044 -0.2430 -0.0428  0.0621
 7379W        W 9579  21.319   1.119  16.312  0.3122  0.0743  0.1096
 7380W        W 9580  25.371   4.371  20.486 -0.0921 -0.3784  0.1227
 7381W        W 9581  16.272   5.903  23.475 -0.0428 -0.1711  0.2842
 7382W        W 9582  10.232   4.055  16.826 -0.1723 -0.2393  0.0052
 7383W        W 9583   8.319   3.732   7.028 -0.0192  0.1829  0.0639
 7384W        W 9584  16.961   6.851   6.079 -0.2577 -0.1432  0.0542
 7385W        W 9585   6.269   4.867  20.526 -0.0503 -0.1107 -0.3780
 7386W        W 9586  14.562   2.099   8.076  0.0035  0.1082 -0.0634
 7387W        W 9587  24.863   5.235   0.914  0.0322 -0.0460  0.1604
 7388W        W 9588   1.861   7.501  17.214  0.0324  0.0263  0.0713
 7389W        W 9589   0.803   2.805  25.156 -0.1917 -0.2980 -0.0639
 7390W        W 9590  18.716   7.322   0.534 -0.0455  0.2217  0.0572
 7391W        W 9591  23.318   2.587  25.959  0.1081  0.3128  0.2085
 7392W        W 9592  12.320   0.406  25.114 -0.0553 -0.0770 -0.1487
 7393W        W 9593  11.518   0.990  25.379  0.3544 -0.0965  0.0776
 7394W        W 9594  10.238   4.879  17.352  0.2460  0.1392 -0.2713
 7395W        W 9595  11.912   3.548  22.881 -0.2440 -0.0546 -0.0896
 7396W        W 9596  24.422   5.855   4.460  0.1128 -0.2802 -0.0407
 7397W        W 9597   1.895   6.276  20.111  0.0292  0.0157 -0.3281
 7398W        W 9598  25.907   2.211  23.333  0.0024  0.1406 -0.1426
 7399W        W 9599  21.293   6.657  18.833 -0.0563  0.0212  0.1562
 7400W        W 9600   1.074   1.783   2.781 -0.0270 -0.1082  0.1840
 7401W        W 9601  11.515   1.227  23.345 -0.0181 -0.1731  0.1584
 7402W        W 9602   1.790   0.816  24.477 -0.1458 -0.1428  0.0346
 7403W        W 9603  23.835   0.599  22.538  0.0679 -0.1120  0.2410
 7404W        W 9604   9.330   2.197   2.121  0.1547 -0.2485 -0.1319
 7405W        W 9605  14.100   5.826   9.288  0.1561 -0.3185 -0.1276
 7406W        W 9606  17.608   3.528  11.537 -0.1367  0.0528 -0.2116
 7407W        W 9607   1.298   2.838  18.024  0.3095  0.0018 -0.2222
 7408W        W 9608   1.548   1.344   4.618 -0.1503 -0.2013  0.0607
 7409W        W 9609  13.144   0.331  23.459 -0.3113  0.1274  0.3693
 7410W        W 9610  25.123   5.827  21.120  0.1089  0.1870  0.2922
 7411W        W 9611   6.058   3.084   2.098 -0.2064  0.2458  0.0720
 7412W        W 9612  10.621   1.789  20.907 -0.2384  0.1596 -0.0572
 7413W        W 9613  18.181   0.445  23.147 -0.0051  0.0343  0.1383
 7414W        W 9614   1.946   6.613   7.036  0.1382  0.2252 -0.1275
 7415W        W 9615   6.117   3.648   8.117 -0.1013 -0.1544  0.3574
 7416W        W 9616  29.472   2.710   6.654 -0.2645  0.0878 -0.2099
 7417W        W 9617   9.485   0.953  20.974  0.1285 -0.1931 -0.0774
 7418W        W 9618  22.240   6.764   8.157  0.0951  0.0197 -0.0129
 7419W        W 9619   6.847   2.260  23.632 -0.0614  0.3043 -0.1286
 7420W        W 9620   0.628   2.392   1.052 -0.1088  0.1244  0.0987
 7421W        W 9621  24.271   0.958   2.889  0.1621  0.1022 -0.2784
 7422W        W 9622  22.885   7.265   5.418 -0.3024  0.2952  0.1222
 7423W        W 9623  21.825   6.598   5.929  0.1910 -0.1661  0.1081
 7424W        W 9624  17.389   1.893  18.721  0.4325 -0.0947  0.0997
 7425W        W 9625  26.679   5.857  11.111  0.0338  0.0293  0.3613
 7426W        W 9626  28.495   2.096  25.422  0.1597  0.0101 -0.0793
 7427W        W 9627  16.936   5.395  10.705 -0.5503  0.0053 -0.0146
 7428W        W 9628  24.067   2.970  19.211  0.0067 -0.1173 -0.0717
 7429W        W 9629   5.500   1.395   1.594  0.1102 -0.4914 -0.2570
 7430W        W 9630  20.930   1.205   4.234 -0.0887 -0.0096 -0.3420
 7431W        W 9631   0.008   5.179  23.544 -0.1422  0.1181  0.1400
 7432W        W 9632   7.256   1.534   1.819 -0.0009 -0.1052  0.0967
 7433W        W 9633  11.610   6.889   2.671  0.1318  0.0186  0.1004
 7434W        W 9634   0.080   7.810  19.598  0.3439 -0.0766  0.0179
 7435W        W 9635   0.710   4.129  15.504  0.0766 -0.1399 -0.2344
 7436W        W 9636  26.862   3.589   1.316 -0.0090  0.0164  0.2083
 7437W        W 9637  12.662   6.931  19.200 -0.0181 -0.0439 -0.0449
 7438W        W 9638   7.557   5.088   1.661 -0.2066  0.0189  0.0099
 7439W        W 9639  15.568   3.031  17.948 -0.0156  0.0280  0.0796
 7440W        W 9640   4.536   1.348   0.211  0.1551  0.1089  0.2160
 7441W        W 9641  23.269   7.768  26.020 -0.0803  0.1865 -0.0080
 7442W        W 9642  21.253   3.293  19.028  0.0954  0.0506  0.1063
 7443W        W 9643  31.051   0.405   2.250 -0.1019  0.2013  0.0889
 7444W        W 9644  13.393   6.387  17.717 -0.1175 -0.2356  0.3979
 7445W        W 9645  25.965   6.507   9.270 -0.0265 -0.1233 -0.2977
 7446W        W 9646   5.232   5.082   9.376 -0.0125 -0.0756 -0.1549
 7447W        W 9647  20.198   3.818  10.571 -0.1320 -0.0621 -0.2659
 7448W        W 9648  28.715   2.871  25.511 -0.2451  0.4583 -0.2446
 7449W        W 9649   3.219   7.658   7.263 -0.0920 -0.2375 -0.1753
 7450W        W 9650  16.859   5.860  11.482 -0.1768  0.0768 -0.2482
 7451W        W 9651   6.695   7.407   1.827  0.0855 -0.0265 -0.0526
 7452W        W 9652  29.000   3.486  23.834  0.1749  0.4568  0.1500
 7453W        W 9653   8.154   3.638  15.566  0.1100 -0.2778  0.0439
 7454W        W 9654  10.488   1.252  23.219  0.0916 -0.0514 -0.0682
 7455W        W 9655   9.164   1.499   9.212 -0.0387 -0.0385 -0.1196
 7456W        W 9656  26.975   0.965   7.063  0.0723 -0.2546  0.1008
 7457W        W 9657  24.403   6.070  16.123 -0.2245 -0.2995  0.1406
 7458W        W 9658   5.996   1.215   1.551 -0.3263  0.1171 -0.2667
 7459W        W 9659  29.517   6.558  25.926 -0.0223  0.0379  0.0555
 7460W        W 9660  22.350   4.661   7.415  0.1741  0.0012  0.1043
 7461W        W 9661  28.759   1.154   2.534 -0.1723 -0.1764  0.0762
 7462W        W 9662   5.950   5.586  18.044 -0.5058 -0.1077 -0.1480
 7463W        W 9663   3.897   3.137   4.075  0.1852  0.3205 -0.1952
 7464W        W 9664  19.898   2.643  25.096  0.3971 -0.3069 -0.0324
 7465W        W 9665  20.391   7.662  15.809 -0.2071  0.0833 -0.0403
 7466W        W 9666  26.075   3.465   4.325 -0.2555  0.3513 -0.1197
 7467W        W 9667   2.515   3.013   4.673 -0.1707 -0.2934 -0.2292
 7468W        W 9668   2.209   3.792  16.349 -0.0772 -0.4687  0.1995
 7469W        W 9669  18.981   5.984   7.576 -0.2886  0.0697 -0.0627
 7470W        W 9670  12.180   3.132  24.597 -0.0183  0.0468 -0.0829
 7471W        W 9671   4.769   0.573  22.366  0.1986  0.4616  0.1419
 7472W        W 9672  19.750   2.126  16.746  0.0437  0.1650  0.0219
 7473W        W 9673   6.707   7.267  16.557  0.0418 -0.1135  0.0105
 7474W        W 9674   0.774   7.664   8.157  0.1748 -0.3050  0.0408
 7475W        W 9675  30.042   0.319  22.072 -0.0230 -0.0736 -0.0037
 7476W        W 9676  30.002   2.160   2.550  0.1511 -0.0053 -0.0763
 7477W        W 9677   4.482   1.161  23.582 -0.0488  0.0704  0.2347
 7478W        W 9678  31.358   5.263  25.692  0.1709 -0.1026 -0.0166
 7479W        W 9679  13.012   3.260  11.111  0.1992  0.4406 -0.2183
 7480W        W 9680  20.350   5.291   7.305 -0.3250 -0.2260 -0.0721
 7481W        W 9681  20.010   4.814   4.783  0.0161 -0.2566  0.2835
 7482W        W 9682  22.497   0.882   9.747  0.0915 -0.2911  0.3058
 7483W        W 9683  16.485   2.791  17.218 -0.0546  0.1113  0.0621
 7484W        W 9684  25.482   0.651   7.156  0.0680  0.0891 -0.0294
 7485W        W 9685  13.434   2.524  21.425  0.1310 -0.1622  0.0750
 7486W        W 9686   9.823   4.314   5.161 -0.3159 -0.3812  0.3454
 7487W        W 9687  20.944   3.237  16.674  0.1422 -0.1266 -0.2237
 7488W        W 9688   8.032   4.659   1.026 -0.2868  0.0205  0.1442
 7489W        W 9689   9.241   5.600   3.572 -0.1869  0.0033 -0.2817
 7490W        W 9690   5.958   5.349  25.674 -0.0303 -0.1538 -0.4744
 7491W        W 9691  10.897   4.483   0.236 -0.0681 -0.3811 -0.1415
 7492W        W 9692  20.857   2.736  24.168  0.1726  0.0198 -0.0654
 7493W        W 9693  27.289   6.484   5.218 -0.0800 -0.1290 -0.2869
 7494W        W 9694   2.035   3.852  26.079 -0.1129  0.0368 -0.2447
 7495W        W 9695  18.019   4.604  22.668  0.1831  0.1322 -0.1025
 7496W        W 9696  11.980   1.130  16.026 -0.0862  0.1205 -0.1276
 7497W        W 9697   9.404   6.044   7.643  0.0077 -0.0441 -0.1585
 7498W        W 9698  31.343   7.478   9.923 -0.2760  0.2814  0.0030
 7499W        W 9699  21.211   0.570  26.015  0.1192 -0.0187 -0.1395
 7500W        W 9700  24.957   5.472   1.392  0.0815 -0.1182 -0.1098
 7501W        W 9701   9.680   1.083  16.436 -0.3983 -0.0394  0.1441
 7502W        W 9702  22.891   4.639  17.426  0.0007 -0.1960  0.0589
 7503W        W 9703   0.502   6.145  20.127  0.0653 -0.0203  0.0004
 7504W        W 9704   2.382   6.496  20.082  0.2276  0.0432 -0.1391
 7505W        W 9705  20.785   0.521  10.111  0.0914  0.0407 -0.0665
 7506W        W 9706   5.051   3.016  20.424 -0.3247  0.0705  0.2364
 7507W        W 9707  22.437   2.210  20.189  0.2216  0.0419  0.0859
 7508W        W 9708  22.938   2.850  19.507  0.2243  0.1101 -0.1219
 7509W        W 9709   6.255   3.780  18.391  0.0621  0.0116  0.1274
 7510W        W 9710  25.663   7.512  10.582 -0.1652 -0.0426 -0.1927
 7511W        W 9711  21.635   0.076  18.091 -0.0002 -0.0063 -0.0034
 7512W        W 9712  29.862   4.867  15.803  0.1320 -0.1367  0.1462
 7513W        W 9713  22.123   5.009   9.428 -0.1263  0.0060 -0.0158
 7514W        W 9714  21.136   2.219  18.817  0.0350 -0.3223 -0.0400
 7515W        W 9715  25.447   5.590   9.866  0.2866  0.0947  0.0691
 7516W        W 9716   7.306   3.402   1.286  0.1884 -0.0315  0.2670
 7517W        W 9717  16.074   3.115   2.922  0.1191  0.0258 -0.1687
 7518W        W 9718   2.603   5.185   3.088  0.0324  0.0773 -0.1045
 7519W        W 9719  14.654   6.917   1.663 -0.1846 -0.0482  0.1021
 7520W        W 9720  13.019   2.785   2.485  0.0771  0.2342 -0.2432
 7521W        W 9721  30.858   1.324   7.435 -0.0554  0.1860 -0.2930
 7522W        W 9722  30.044   1.450  18.805  0.1397 -0.0556  0.2445
 7523W        W 9723  21.102   1.469  10.332  0.0753 -0.0961 -0.2819
 7524W        W 9724  11.675   1.893   7.012  0.4537  0.0639 -0.1398
 7525W        W 9725   7.590   2.431  18.508 -0.0144 -0.1016 -0.1095
 7526W        W 9726   0.158   1.443  22.095 -0.4366  0.1661  0.1365
 7527W        W 9727   2.900   5.616  23.732  0.0789  0.1553 -0.2931
 7528W        W 9728   1.139   2.257   2.799 -0.1626 -0.0221  0.0171
 7529W        W 9729  22.161   3.475   3.179  0.0807  0.1709 -0.0133
 7530W        W 9730   5.409   4.800  15.571 -0.1009 -0.0430  0.1736
 7531W        W 9731  23.687   7.137  22.632  0.3473 -0.1950  0.1095
 7532W        W 9732   7.893   1.856   0.805 -0.0521  0.0943 -0.1093
 7533W        W 9733  20.687   4.733   1.056 -0.1437 -0.0403 -0.0765
 7534W        W 9734  14.233   5.764  17.237  0.1236 -0.3246 -0.2950
 7535W        W 9735  24.420   4.924   6.830  0.2355  0.1186  0.1666
 7536W        W 9736   9.352   0.286   7.637  0.2553 -0.2999  0.1199
 7537W        W 9737   0.356   5.173  23.919  0.1900  0.3041 -0.0107
 7538W        W 9738  20.737   7.355  17.486  0.1875 -0.1896 -0.2345
 7539W        W 9739   2.311   2.803   6.052  0.0252 -0.1145 -0.1014
 7540W        W 9740  29.625   4.823   1.947 -0.3651  0.0824 -0.3358
 7541W        W 9741  21.765   3.252   1.992  0.0274 -0.0235  0.2015
 7542W        W 9742   8.512   1.895  20.063 -0.3592 -0.0399 -0.3018
 7543W        W 9743  21.461   2.600  17.274  0.0571  0.0454 -0.2330
 7544W        W 9744  13.559   4.013   7.510  0.1347 -0.0060 -0.0273
 7545W        W 9745   8.679   6.323  18.743  0.2208 -0.0237 -0.2219
 7546W        W 9746  22.973   3.443   4.896 -0.2513  0.1278  0.2241
 7547W        W 9747  11.289   2.034   4.789 -0.1346  0.0097 -0.5176
 7548W        W 9748   6.170   3.330   7.121 -0.2787 -0.0047  0.2552
 7549W        W 9749  22.154   0.300   7.140 -0.0757  0.4883  0.0757
 7550W        W 9750  20.825   0.494   1.526  0.1961 -0.4246  0.0419
 7551W        W 9751  11.181   7.088  25.906 -0.0102 -0.4691 -0.1150
 7552W        W 9752   0.611   1.704   9.973  0.2860  0.0226  0.0505
 7553W        W 9753  25.458   6.040  11.544  0.3536 -0.0418 -0.1521
 7554W        W 9754  16.801   5.567   2.055 -0.1380 -0.2760 -0.0933
 7555W        W 9755  15.316   4.972  23.300  0.3934 -0.0068 -0.2549
 7556W        W 9756  29.959   7.183   5.330  0.0339  0.0556  0.1886
 7557W        W 9757   6.451   1.470  18.368  0.2164  0.1264  0.0649
 7558W        W 9758  16.365   5.685   9.030 -0.1887 -0.0789 -0.0387
 7559W        W 9759  22.402   0.197   8.073 -0.2405 -0.0145 -0.0891
 7560W        W 9760   9.281   4.044   2.436  0.0105  0.0265  0.3698
 7561W        W 9761  14.720   1.897   0.029 -0.1286 -0.1201  0.1854
 7562W        W 9762  25.597   4.100  19.249  0.1334 -0.1149 -0.2188
 7563W        W 9763  16.090   4.527   7.964  0.1016 -0.1040  0.0499
 7564W        W 9764  20.537   1.140   4.681 -0.1204 -0.0445 -0.3171
 7565W        W 9765   9.189   0.842  24.044 -0.0882  0.3989 -0.0221
 7566W        W 9766  28.444   4.811  17.928 -0.0132  0.1829  0.1951
 7567W        W 9767   0.368   0.364  19.653  0.1785 -0.2834  0.1306
 7568W        W 9768  23.792   1.107  23.101  0.1919 -0.2570  0.2871
 7569W        W 9769  12.020   1.529   8.238 -0.0946  0.0804 -0.0377
 7570W        W 9770   5.753   1.403  16.391  0.3310 -0.2266 -0.0586
 7571W        W 9771   0.344   5.118  14.329  0.0888 -0.0801  0.0508
 7572W        W 9772  19.725   1.946   4.513  0.1978  0.0341  0.0524
 7573W        W 9773   2.141   7.622  15.324 -0.0538  0.1922  0.0777
 7574W        W 9774  19.166   3.403   8.851  0.3364 -0.2810  0.0380
 7575W        W 9775  21.512   2.398  15.817  0.0129  0.1036 -0.0686
 7576W        W 9776  11.278   7.186  23.347  0.2428 -0.0998 -0.5185
 7577W        W 9777  20.664   6.582   4.533 -0.2277  0.3181  0.1298
 7578W        W 9778  17.812   3.229   3.263 -0.1319 -0.0881  0.0026
 7579W        W 9779   2.807   7.182  14.702 -0.1189 -0.0450 -0.1753
 7580W        W 9780   9.701   0.387   6.164  0.2302 -0.1538  0.0495
 7581W        W 9781  25.942   7.362   4.541 -0.3795 -0.2429  0.0268
 7582W        W 9782  19.833   6.882  19.056  0.2811 -0.0609 -0.0001
 7583W        W 9783  14.991   6.974  18.797  0.1349  0.0402  0.1825
 7584W        W 9784  16.097   0.769   3.947 -0.3905  0.0938 -0.1808
 7585W        W 9785  10.431   0.922   7.281 -0.2431 -0.1154 -0.1634
 7586W        W 9786  21.234   0.974   2.556  0.1960  0.2057 -0.0872
 7587W        W 9787  10.313   1.389   1.251 -0.3346  0.1161 -0.2858
 7588W        W 9788  29.882   2.900   4.300 -0.2377 -0.0565  0.1357
 7589W        W 9789  22.365   2.676  16.809  0.0442 -0.0047 -0.0522
 7590W        W 9790   1.532   0.350  23.277 -0.0559  0.0463  0.2718
 7591W        W 9791   0.993   6.515   3.370 -0.1228  0.2439  0.0022
 7592W        W 9792  22.655   0.454  21.070 -0.0938 -0.0426 -0.0783
 7593W        W 9793  28.334   6.777  16.676  0.0294 -0.1834 -0.4248
 7594W        W 9794  13.445   1.237  25.935  0.1071 -0.0973 -0.0592
 7595W        W 9795  29.411   4.044  15.726  0.2078 -0.1835  0.0510
 7596W        W 9796  11.413   4.305  19.882 -0.1978  0.1650 -0.1156
 7597W        W 9797   9.636   7.420  10.883 -0.0437  0.0380  0.1560
 7598W        W 9798  30.791   2.726   3.230 -0.1236 -0.1846 -0.1858
 7599W        W 9799   0.478   4.571   3.797  0.0699 -0.0596  0.4233
 7600W        W 9800   1.722   4.184   2.746 -0.3003 -0.0657  0.2393
 7601W        W 9801  15.698   2.851  15.968  0.0509 -0.0428  0.1724
 7602W        W 9802  23.326   1.213   2.901  0.2373  0.2540 -0.1447
 7603W        W 9803  28.228   7.111   2.772  0.0262  0.3604  0.0569
 7604W        W 9804  28.669   2.761  23.598  0.0374 -0.1582 -0.0849
 7605W        W 9805   9.942   6.216  20.354 -0.1735  0.1301  0.1432
 7606W        W 9806  22.769   0.773  18.075 -0.0517 -0.0063 -0.1130
 7607W        W 9807  17.154   4.501  25.773 -0.0280 -0.3677 -0.1504
 7608W        W 9808  17.723   4.274  23.484 -0.1480 -0.0394 -0.1673
 7609W        W 9809  23.552   1.206  19.233  0.3575 -0.1470  0.1175
 7610W        W 9810  19.229   2.720  23.012 -0.0670 -0.2839  0.0993
 7611W        W 9811   9.699   3.351  19.894 -0.1902  0.1985  0.2568
 7612W        W 9812  12.885   1.126  25.813  0.0444 -0.0271  0.4084
 7613W        W 9813  11.880   7.820   7.246 -0.1560  0.0843 -0.1388
 7614W        W 9814   3.671   2.620  21.461  0.0167  0.2838 -0.0967
 7615W        W 9815  15.492   0.676   8.714  0.1763 -0.0084 -0.1257
 7616W        W 9816   4.346   4.576   6.670  0.3141 -0.3274  0.2264
 7617W        W 9817   2.538   1.147  16.990 -0.1966  0.0139 -0.0463
 7618W        W 9818  16.342   0.136  20.670  0.0265 -0.2776  0.2683
 7619W        W 9819  15.964   3.808  18.401  0.1004 -0.1886 -0.0642
 7620W        W 9820  29.355   0.534   7.822  0.0416  0.1001  0.0769
 7621W        W 9821  17.022   4.806  23.916 -0.4541  0.0956  0.2868
 7622W        W 9822   1.036   3.731  19.018  0.1159  0.1109 -0.1470
 7623W        W 9823   6.994   2.100   5.616 -0.0785  0.0456  0.1470
 7624W        W 9824  14.342   1.078  17.666  0.1647 -0.0920  0.1218
 7625W        W 9825   9.216   6.679  25.631  0.1420 -0.2747 -0.0796
 7626W        W 9826  30.461   7.284   2.943 -0.1752 -0.1930  0.0564
 7627W        W 9827  28.629   1.915  15.185  0.1498  0.3896  0.1954
 7628W        W 9828  12.431   3.167   6.024 -0.0926 -0.2564  0.3059
 7629W        W 9829  29.793   0.589   0.939 -0.0180 -0.1146  0.0047
 7630W        W 9830  23.249   1.684   2.661  0.2189 -0.3046  0.1804
 7631W        W 9831  27.711   7.796  22.399 -0.0475 -0.1063  0.2509
 7632W        W 9832  26.263   0.963   9.914  0.0280  0.2434 -0.1247
 7633W        W 9833   9.109   2.379   6.600  0.1484  0.2077  0.0942
 7634W        W 9834  13.539   2.261  18.240  0.1684 -0.0697 -0.2293
 7635W        W 9835  26.297   0.162   5.723  0.1507 -0.3895 -0.1202
 7636W        W 9836  24.657   5.619  22.429  0.2791 -0.0840  0.0507
 7637W        W 9837   3.696   3.901  25.127 -0.0919  0.2250  0.2482
 7638W        W 9838   4.305   4.449  20.557  0.0805  0.1992  0.1721
 7639W        W 9839  11.339   7.855   5.163 -0.1107  0.1426  0.2202
 7640W        W 9840  15.018   4.111  23.470 -0.0514 -0.0786 -0.0208
 7641W        W 9841  25.791   1.446   2.940  0.2635  0.0936 -0.0391
 7642W        W 9842   3.242   2.581  20.230 -0.0425 -0.3120  0.0882
 7643W        W 9843   3.198   2.237  15.183  0.0554 -0.1185 -0.1924
 7644W        W 9844  31.282   7.263   6.141 -0.0121  0.4167  0.0920
 7645W        W 9845   0.529   5.201   1.604  0.1927 -0.1024 -0.0507
 7646W        W 9846  20.413   3.098  10.149  0.3568 -0.3644  0.1588
 7647W        W 9847  16.221   3.289  10.014 -0.0909 -0.2818  0.1471
 7648W        W 9848  10.093   0.633  19.818  0.0948  0.0981  0.0316
 7649W        W 9849  20.771   6.307   7.842 -0.1890  0.0553 -0.0649
 7650W        W 9850   2.767   3.953  14.848  0.1822  0.1090 -0.1892
 7651W        W 9851  24.260   6.564  15.999 -0.0808  0.2518  0.3174
 7652W        W 9852  31.405   4.547   1.612  0.1664 -0.0439  0.0160
 7653W        W 9853   5.158   0.216  19.711  0.0043 -0.1483 -0.0614
 7654W        W 9854  10.434   6.700  10.719  0.0731  0.1415 -0.2390
 7655W        W 9855  20.521   7.374  23.075 -0.2832 -0.0856 -0.0037
 7656W        W 9856  28.157   3.546  15.689  0.3471 -0.0878 -0.1486
 7657W        W 9857  31.305   5.298   5.410  0.0677  0.1792 -0.2349
 7658W        W 9858  23.169   2.078   2.305 -0.0478 -0.0095 -0.2357
 7659W        W 9859  10.524   6.763   5.518  0.0883 -0.0548 -0.1849
 7660W        W 9860  14.887   0.199   6.184 -0.0116  0.0305  0.0019
 7661W        W 9861  25.926   1.527   2.102  0.0581  0.2141 -0.1439
 7662W        W 9862  16.361   1.004  25.036  0.1729  0.0279 -0.0922
 7663W        W 9863   3.094   0.757  22.733  0.1244 -0.0154 -0.0942
 7664W        W 9864  15.056   2.388  20.951  0.2453 -0.0421  0.1907
 7665W        W 9865   5.176   2.057   2.880 -0.0288 -0.3424  0.1508
 7666W        W 9866  13.580   7.764  17.554 -0.0910 -0.0105 -0.1228
 7667W        W 9867   6.333   3.123  20.945 -0.1520 -0.0440  0.4205
 7668W        W 9868  24.746   4.633  15.352 -0.0502  0.1038 -0.0320
 7669W        W 9869  29.673   4.984   3.663  0.0649 -0.1557  0.1447
 7670W        W 9870  14.613   0.173   0.473  0.2236 -0.2685  0.2210
 7671W        W 9871   2.122   5.925  10.551  0.3012 -0.1710  0.4271
 7672W        W 9872   3.860   5.277   4.152 -0.0251 -0.1002 -0.0950
 7673W        W 9873   2.394   7.507   4.354  0.1581 -0.0071 -0.2053
 7674W        W 9874   4.100   0.048   0.967 -0.1972  0.1227  0.2874
 7675W        W 9875   0.839   0.249   7.416 -0.2789 -0.2019 -0.2509
 7676W        W 9876  12.219   7.528  25.088 -0.1293 -0.3140 -0.0459
 7677W        W 9877  21.224   3.089  10.119 -0.0002  0.1976  0.0576
 7678W        W 9878  20.209   1.715   9.747 -0.4401  0.2930 -0.0787
 7679W        W 9879  13.197   6.893   4.947 -0.1854  0.1403  0.0594
 7680W        W 9880   7.550   3.593   1.712  0.1079  0.2566  0.1843
 7681W        W 9881   7.442   0.597   8.273  0.0836 -0.3276  0.3246
 7682W        W 9882  22.398   1.874  19.482  0.2508  0.0105  0.0991
 7683W        W 9883  26.494   3.192  18.905 -0.1997  0.0693 -0.1607
 7684W        W 9884   6.187   0.292  24.095 -0.3645 -0.0337  0.2033
 7685W        W 9885  30.012   4.825   3.160  0.1732  0.5000 -0.0888
 7686W        W 9886  11.909   6.976  19.650  0.3466  0.1062  0.0418
 7687W        W 9887  12.015   1.756  25.448  0.0480  0.1471  0.2336
 7688W        W 9888  28.298   6.520  10.498 -0.1746 -0.2461 -0.2533
 7689W        W 9889  25.115   3.653  21.020 -0.2498 -0.0103 -0.0218
 7690W        W 9890   8.253   2.431  21.272 -0.0236 -0.0843 -0.1874
 7691W        W 9891   9.322   5.495  20.265  0.0178  0.3084  0.1358
 7692W        W 9892  30.548   4.636   9.063  0.0761 -0.0139 -0.0737
 7693W        W 9893  19.894   5.644   6.364  0.1165  0.0149 -0.1950
 7694W        W 9894  17.687   4.726  21.075  0.0275  0.5492  0.0944
 7695W        W 9895  14.691   1.336   5.890 -0.0952  0.3231  0.1538
 7696W        W 9896   2.906   2.735  18.437 -0.0640  0.1911 -0.2781
 7697W        W 9897  15.944   4.361   2.829 -0.3864  0.0054 -0.3442
 7698W        W 9898   2.700   2.188  15.295  0.0115  0.1659 -0.0362
 7699W        W 9899  17.723   4.396  19.838 -0.2192  0.0962  0.0210
 7700W        W 9900  15.799   5.912  24.221 -0.1740 -0.0705  0.0564
 7701W        W 9901   8.285   0.264   7.561 -0.3615 -0.1959 -0.2233
 7702W        W 9902  26.400   1.661  18.611 -0.2688 -0.3480 -0.0305
 7703W        W 9903  20.993   4.127   3.536 -0.1115 -0.1780 -0.0447
 7704W        W 9904  13.922   0.917   0.683 -0.1340 -0.2897 -0.2806
 7705W        W 9905  19.265   0.302   5.181 -0.1947  0.1166  0.0653
 7706W        W 9906   7.554   3.384  10.570 -0.1030 -0.1495  0.2962
 7707W        W 9907  25.364   7.130  18.422 -0.1584 -0.0202  0.1466
 7708W        W 9908   2.199   6.174  21.489 -0.0232 -0.2720  0.1329
 7709W        W 9909  10.501   0.707  10.665  0.1050 -0.2119 -0.0721
 7710W        W 9910   6.129   1.317  23.894 -0.0369  0.3372  0.0176
 7711W        W 9911  10.169   6.361   7.958 -0.1464  0.1288  0.0708
 7712W        W 9912  23.658   4.732   2.785  0.1796 -0.0381  0.1801
 7713W        W 9913  30.120   5.006  22.525 -0.1511 -0.3321 -0.2417
 7714W        W 9914  21.239   6.562   0.518 -0.2366 -0.3769 -0.3861
 7715W        W 9915  14.957   2.341   3.536  0.1350  0.0404  0.1333
 7716W        W 9916   5.659   4.365   0.198  0.2983 -0.1327  0.0740
 7717W        W 9917   9.513   6.154   2.878  0.1145 -0.1661  0.3047
 7718W        W 9918  28.811   0.290  16.581 -0.1400 -0.0062 -0.1905
 7719W        W 9919  31.330   3.093  16.695 -0.0588  0.0075 -0.0964
 7720W        W 9920  20.183   2.362  24.387 -0.1698  0.2292 -0.1520
 7721W        W 9921  26.210   2.788  26.032 -0.2401 -0.0515  0.2478
 7722W        W 9922   2.516   5.217  18.618 -0.1756 -0.2346 -0.0058
 7723W        W 9923   9.573   5.396   8.716  0.0746  0.2041 -0.2929
 7724W        W 9924  25.442   1.987  17.613  0.0354  0.1712 -0.0060
 7725W        W 9925  25.325   6.010   6.350  0.1213 -0.0997 -0.1813
 7726W        W 9926  26.391   4.757  19.594  0.3148 -0.1326  0.2463
 7727W        W 9927  31.025   0.378  24.607 -0.1955 -0.0479  0.1703
 7728W        W 9928  30.349   4.428   7.357 -0.3074  0.1826 -0.5088
 7729W        W 9929  16.455   1.559  20.401  0.0365 -0.0089 -0.1796
 7730W        W 9930   0.409   5.123   3.071  0.0804 -0.0105  0.0338
 7731W        W 9931  13.104   3.782  19.411 -0.2134  0.0708  0.1324
 7732W        W 9932  26.910   2.478   9.379  0.0752  0.0060  0.3438
 7733W        W 9933  22.339   2.816   4.404 -0.0505 -0.0121  0.0539
 7734W        W 9934  20.606   4.947   7.078  0.0024 -0.2918  0.1387
 7735W        W 9935  29.906   2.258  24.022 -0.1540 -0.1556 -0.0993
 7736W        W 9936   0.610   2.249   4.499  0.3044  0.0857  0.0502
 7737W        W 9937   0.013   0.718  25.125 -0.2127 -0.2114 -0.4552
 7738W        W 9938   4.166   1.968   6.043 -0.0583 -0.0392 -0.1073
 7739W        W 9939   9.221   3.679  15.640  0.1485  0.0884 -0.1750
 7740W        W 9940  10.118   7.411   0.681  0.2354  0.1698  0.0398
 7741W        W 9941   5.090   6.039   3.440  0.3284 -0.1788  0.0173
 7742W        W 9942  27.015   6.635  18.894 -0.0200 -0.0966  0.1939
 7743W        W 9943  14.968   7.014  15.773 -0.0793  0.1068  0.0795
 7744W        W 9944  18.041   0.341   4.912 -0.3352 -0.2015  0.3002
 7745W        W 9945  10.132   5.527   1.019  0.2298 -0.0408 -0.0582
 7746W        W 9946  11.001   3.461   9.721  0.0439  0.1685  0.3973
 7747W        W 9947  27.928   4.075  20.816  0.0627  0.0320 -0.3146
 7748W        W 9948  29.153   7.187  20.664  0.0201  0.0133  0.0582
 7749W        W 9949   4.612   2.592   4.483 -0.1517  0.0086 -0.3599
 7750W        W 9950   6.903   0.481  20.178  0.0251  0.1199  0.1890
 7751W        W 9951  20.233   1.342  10.114 -0.2031 -0.1161 -0.2066
 7752W        W 9952  27.543   2.745  10.920 -0.0421 -0.1110 -0.0431
 7753W        W 9953   5.303   5.582   9.810  0.1790 -0.0049 -0.1568
 7754W        W 9954  17.714   1.615   0.298 -0.1705  0.1725  0.0883
 7755W        W 9955  29.147   5.814   9.638  0.2069  0.0560 -0.1423
 7756W        W 9956  10.560   6.248   9.261 -0.0345  0.0157 -0.0702
 7757W        W 9957  28.576   1.342  21.006 -0.0374 -0.2074  0.2327
 7758W        W 9958  25.092   3.925   0.007 -0.2662 -0.2469  0.1177
 7759W        W 9959   8.537   4.928  10.630  0.1810 -0.4218 -0.0810
 7760W        W 9960   2.620   4.034   5.076  0.0610  0.1433 -0.3092
 7761W        W 9961  15.055   0.251  23.492  0.2396 -0.1106  0.1049
 7762W        W 9962  11.734   2.566  16.913 -0.0951 -0.0986 -0.1824
 7763W        W 9963  14.178   5.749   9.770  0.0915 -0.1045  0.0267
 7764W        W 9964   9.508   5.394   5.094 -0.2776  0.0574 -0.1259
 7765W        W 9965  27.095   4.859   2.841  0.1808 -0.3698  0.0836
 7766W        W 9966  31.409   5.681   0.521  0.0041  0.0994  0.1577
 7767W        W 9967  17.127   4.863   6.570  0.1256  0.1505 -0.0222
 7768W        W 9968  30.867   5.213  21.594 -0.0899  0.3081 -0.3164
 7769W        W 9969  24.324   6.861  10.101 -0.0315 -0.2353 -0.1519
 7770W        W 9970  11.684   0.212   3.177 -0.0205 -0.1318 -0.0052
 7771W        W 9971  14.069   3.922  22.012  0.0838 -0.0909  0.2899
 7772W        W 9972  20.954   4.675   8.803 -0.2319  0.0717 -0.0121
 7773W        W 9973  15.319   2.644  22.715  0.0033 -0.1694  0.0693
 7774W        W 9974  13.489   2.045  23.860 -0.0314  0.0913  0.1350
 7775W        W 9975  30.961   6.944   6.336 -0.0431 -0.1777  0.0480
 7776W        W 9976  24.510   5.372  24.212 -0.3531 -0.0879  0.0394
 7777W        W 9977   1.156   4.737   3.255 -0.0786  0.0773 -0.0280
 7778W        W 9978   9.732   2.281  24.540  0.2287 -0.1229 -0.2332
 7779W        W 9979  18.057   2.396  15.477  0.0647  0.1029 -0.1834
 7780W        W 9980  26.417   0.652   8.941 -0.1650  0.0542 -0.2494
 7781W        W 9981   0.597   6.423  21.526  0.2681  0.2818 -0.0695
 7782W        W 9982   8.937   3.823  20.158 -0.2315 -0.0286  0.0890
 7783W        W 9983   5.068   6.950  19.061 -0.1825  0.1898 -0.1254
 7784W        W 9984   1.401   7.683   5.421  0.1109  0.1039  0.0305
 7785W        W 9985   7.145   2.762   7.658 -0.1029  0.2157  0.3286
 7786W        W 9986   0.167   4.536  16.635  0.0654  0.0769 -0.0424
 7787W        W 9987  25.974   5.396   3.269 -0.1348 -0.0366 -0.2593
 7788W        W 9988  14.676   1.079   0.193 -0.1241  0.2981  0.0565
 7789W        W 9989  25.174   1.581   6.246 -0.3195  0.0112 -0.0623
 7790W        W 9990  20.730   0.133  18.598 -0.0226  0.0164  0.1623
 7791W        W 9991  12.637   4.786  17.149  0.1734 -0.0515  0.1466
 7792W        W 9992  11.024   5.857   9.213  0.2598  0.0216  0.1140
 7793W        W 9993  18.990   3.058  25.303  0.4344 -0.3077 -0.2071
 7794W        W 9994   2.425   2.405  23.387  0.1174  0.0220  0.0569
 7795W        W 9995  21.563   0.941  17.670  0.1123  0.1164 -0.0827
 7796W        W 9996  20.593   2.322   6.575 -0.2591 -0.1827 -0.1512
 7797W        W 9997  23.629   6.795  20.411 -0.0260 -0.0461 -0.0508
 7798W        W 9998  29.680   3.359  16.861 -0.0452 -0.1530  0.2899
 7799W        W 9999  24.441   0.259  19.459  0.1524 -0.0043  0.0398
 7800W        W10000  30.697   7.303   5.974 -0.0770 -0.1625  0.0699
 7801W        W10001   1.327   6.724  21.107 -0.2638  0.0594 -0.0065
 7802W        W10002  12.880   5.772   5.511  0.2429  0.0403  0.1513
 7803W        W10003  21.542   1.770   0.054  0.0352 -0.1572 -0.0632
 7804W        W10004  14.687   4.587   7.417  0.1103  0.1225 -0.0583
 7805W        W10005  10.290   7.121   7.817 -0.0741  0.0601 -0.2063
 7806W        W10006  30.602   0.728  20.110  0.0485 -0.0919  0.0982
 7807W        W10007  14.829   0.455   6.594  0.0870 -0.0884 -0.0399
 7808W        W10008   5.189   0.295   5.813  0.0729  0.1466 -0.5696
 7809W        W10009  10.792   2.213   9.201  0.0764 -0.1265  0.3294
 7810W        W10010  14.940   3.580   6.258 -0.1655 -0.0643 -0.2058
 7811W        W10011  19.729   5.596  22.719  0.2454  0.0812 -0.0067
 7812W        W10012   2.330   1.359  18.060  0.0864 -0.1957 -0.2791
 7813W        W10013   6.834   6.013  24.878 -0.1092  0.0531 -0.0165
 7814W        W10014   1.432   7.293   1.939 -0.0406  0.1343 -0.2990
 7815W        W10015  10.030   3.733  23.020  0.2345  0.3102  0.0385
 7816W        W10016  12.658   0.545  20.136  0.4146 -0.0345 -0.0529
 7817W        W10017  17.362   1.260   2.156  0.1662  0.1017  0.1878
 7818W        W10018  20.266   7.845   8.102  0.1140 -0.0146 -0.1229
 7819W        W10019   5.608   3.645  24.222 -0.0131  0.1199  0.3333
 7820W        W10020   2.321   4.498  24.851  0.0887  0.2094  0.0336
 7821W        W10021  22.017   0.537   4.883 -0.0030 -0.1322 -0.0834
 7822W        W10022   8.171   5.746  20.639 -0.1902  0.0469  0.7167
 7823W        W10023  24.784   2.882  19.607  0.1636 -0.0064 -0.0132
 7824W        W10024  20.912   7.754  10.600  0.0201  0.1887  0.0082
 7825W        W10025   3.918   3.309  21.977 -0.2183 -0.1612  0.3152
 7826W        W10026  26.464   6.817   9.025 -0.0934 -0.3783 -0.0157
 7827W        W10027   6.366   1.835  18.836  0.1251 -0.1814 -0.1188
 7828W        W10028  21.622   0.186  21.563  0.2274  0.1041 -0.0168
 7829W        W10029   0.551   3.509  18.369  0.0268 -0.1136  0.1871
 7830W        W10030   0.528   4.462   9.531 -0.0202  0.3405  0.0638
 7831W        W10031  28.766   3.562  10.148 -0.2720 -0.2708  0.2202
 7832W        W10032  31.152   1.973  17.518  0.1005 -0.2282 -0.1424
 7833W        W10033  14.798   4.798  17.602  0.0204 -0.0814  0.0840
 7834W        W10034   0.960   5.379   7.455  0.0408 -0.1341  0.2410
 7835W        W10035   0.055   2.242  18.974 -0.0641  0.0646  0.1244
 7836W        W10036  14.442   5.589  22.440 -0.0131 -0.1131  0.1017
 7837W        W10037  24.855   4.557  21.113  0.1401  0.2172 -0.0346
 7838W        W10038  26.175   5.829  21.861 -0.0552  0.0524 -0.1721
 7839W        W10039  16.702   3.999  21.452 -0.3410 -0.0293 -0.1829
 7840W        W10040  24.379   2.669   9.540  0.2460 -0.0791 -0.0497
 7841W        W10041  13.988   2.816   7.026 -0.0325 -0.2893 -0.1905
 7842W        W10042  25.754   3.883  25.503  0.0086 -0.1764 -0.0043
 7843W        W10043   4.790   0.042   8.357 -0.1874 -0.1659 -0.1277
 7844W        W10044  11.724   0.968  20.236 -0.1582  0.0065 -0.2464
 7845W        W10045   0.088   7.544  17.555 -0.0684  0.0451 -0.0606
 7846W        W10046  17.709   6.531  16.577  0.5182 -0.2043  0.0608
 7847W        W10047  17.455   3.695   9.035 -0.1507  0.0116  0.2253
 7848W        W10048  30.724   2.784  25.773  0.0957  0.1587 -0.3135
 7849W        W10049  21.171   5.644   7.137  0.1665  0.0693 -0.0553
 7850W        W10050  30.139   2.755  19.244  0.1316 -0.2241 -0.0718
 7851W        W10051   4.817   5.553   8.122 -0.1986  0.1519 -0.2111
 7852W        W10052  15.184   7.648  23.226 -0.1315 -0.1749  0.0973
 7853W        W10053  24.249   4.838  18.485  0.0446  0.0416  0.2804
 7854W        W10054  27.421   1.826  19.540 -0.0386  0.0333 -0.1784
 7855W        W10055  28.522   4.379  16.644  0.0647 -0.2131  0.1575
 7856W        W10056   0.463   5.623  22.748  0.1172  0.2304 -0.2293
 7857W        W10057   0.719   4.618   0.219 -0.1829  0.1420 -0.1034
 7858W        W10058  25.839   7.575  24.297  0.0514 -0.0436 -0.0126
 7859W        W10059   7.060   3.283   0.372 -0.1077 -0.1446 -0.0995
 7860W        W10060  22.974   2.778   1.232  0.0599 -0.1565 -0.1535
 7861W        W10061   6.631   2.618  16.174  0.2396 -0.2010 -0.0035
 7862W        W10062  20.172   0.525  25.164 -0.0684  0.0835 -0.2148
 7863W        W10063  10.074   3.801   2.808  0.0534 -0.0451 -0.1351
 7864W        W10064   1.850   7.430  22.096 -0.0411  0.0999  0.1413
 7865W        W10065   8.065   5.236   3.780 -0.0764 -0.1094 -0.0830
 7866W        W10066   5.289   7.495  24.612  0.1147  0.0670  0.0514
 7867W        W10067  10.313   2.898   7.386  0.1834 -0.0471  0.0158
 7868W        W10068  12.195   7.266   9.492 -0.0002  0.0227  0.1808
 7869W        W10069  19.277   3.490   7.584  0.3230  0.1128  0.0383
 7870W        W10070   0.029   2.516   9.607 -0.0808 -0.1860 -0.0768
 7871W        W10071   1.888   4.402   8.920 -0.1206  0.0365  0.1817
 7872W        W10072  15.713   4.715   4.166 -0.3419 -0.0182 -0.0236
 7873W        W10073  10.673   6.848   8.086 -0.1052  0.0025 -0.2593
 7874W        W10074  22.662   7.655  10.453  0.0925  0.2781 -0.1119
 7875W        W10075  18.906   7.819   2.220 -0.2105 -0.0574  0.0128
 7876W        W10076  18.038   7.768  22.325  0.0914 -0.0835 -0.4657
 7877W        W10077  28.581   1.221   0.042  0.1714 -0.0539  0.2053
 7878W        W10078   6.221   0.142   8.923  0.0027 -0.0240  0.0545
 7879W        W10079  12.246   6.580   6.801  0.1111  0.0411  0.3677
 7880W        W10080  29.078   3.967  15.192 -0.1584 -0.1738 -0.0362
 7881W        W10081   2.493   7.852  19.794  0.0979 -0.1717 -0.2960
 7882W        W10082  16.746   4.359   8.533 -0.2513 -0.4165  0.1116
 7883W        W10083   6.395   1.731   6.466  0.1322  0.1236 -0.1004
 7884W        W10084  12.475   2.352   3.901  0.0421  0.0345  0.0426
 7885W        W10085   7.419   5.772  23.178 -0.2854  0.2325 -0.0275
 7886W        W10086  11.960   6.225  23.090  0.0433 -0.3317  0.1489
 7887W        W10087  10.545   2.628  23.478  0.1513  0.0183  0.0968
 7888W        W10088  26.461   1.400   4.796  0.0690 -0.1714  0.0033
 7889W        W10089  23.513   3.735   9.134  0.0428  0.2236 -0.0678
 7890W        W10090  11.011   6.275   7.585  0.3017  0.0690 -0.0982
 7891W        W10091  23.349   6.577   0.270 -0.0204  0.3801 -0.1670
 7892W        W10092   0.886   6.590   5.279  0.0452 -0.2092  0.1155
 7893W        W10093  18.764   3.621   5.561 -0.0792  0.1187  0.1406
 7894W        W10094  21.833   7.847  17.063  0.2796 -0.0600 -0.0183
 7895W        W10095  11.569   0.773   1.786 -0.0938 -0.0820  0.2627
 7896W        W10096  12.323   5.346  18.608 -0.2034  0.0434 -0.2098
 7897W        W10097   8.706   6.571   3.793 -0.0933  0.1663 -0.2570
 7898W        W10098  20.926   5.645   0.111  0.3161  0.1505 -0.0342
 7899W        W10099   6.525   6.561   9.125 -0.1492  0.2058 -0.1095
 7900W        W10100   4.584   0.119  21.572  0.1226  0.0643  0.2235
 7901W        W10101   0.300   2.618   6.400  0.3416 -0.1114 -0.0781
 7902W        W10102   0.729   3.684  20.236 -0.0203  0.1412  0.1817
 7903W        W10103  13.358   6.750  21.074  0.1775  0.1829  0.0734
 7904W        W10104  10.792   1.520   2.310 -0.1563  0.1222  0.0045
 7905W        W10105  30.985   2.333   7.073  0.0261  0.0054 -0.1582
 7906W        W10106  21.893   3.879   4.388 -0.0670  0.1674  0.1296
 7907W        W10107  12.361   6.494  21.992 -0.3808 -0.0788  0.1116
 7908W        W10108  13.924   3.624  19.666  0.2613  0.3800  0.2753
 7909W        W10109  10.320   6.907  17.858  0.3082 -0.0474  0.0928
 7910W        W10110  28.314   3.717  18.361  0.1541 -0.2103 -0.0618
 7911W        W10111   2.623   5.523  14.809  0.3389  0.2035 -0.0473
 7912W        W10112  29.929   1.299  23.133 -0.2817  0.2207 -0.0805
 7913W        W10113  29.997   6.218   8.614 -0.1247  0.2513  0.0725
 7914W        W10114  21.976   5.297  23.060 -0.0648  0.0177 -0.0271
 7915W        W10115  16.326   6.088  11.243  0.0625  0.0827  0.2092
 7916W        W10116   7.294   3.725  16.436  0.0767 -0.0214  0.0296
 7917W        W10117  13.816   0.746   7.871 -0.0523 -0.1379 -0.0332
 7918W        W10118   9.910   4.253  17.937 -0.0683  0.0197  0.4267
 7919W        W10119  31.238   0.787  22.599 -0.1215  0.1253 -0.4327
 7920W        W10120  24.575   2.233  18.326 -0.2542  0.0687  0.1334
 7921W        W10121  21.341   4.657   3.995  0.0611  0.2143  0.1319
 7922W        W10122   3.849   4.890  22.155 -0.1102 -0.1612 -0.0458
 7923W        W10123  12.313   5.364  24.233 -0.3060 -0.1103  0.0420
 7924W        W10124  23.711   3.827  15.659  0.2458  0.1014 -0.1586
 7925W        W10125  28.034   1.149   8.055  0.1707  0.0188 -0.3006
 7926W        W10126  22.464   4.674  24.704 -0.0026  0.1604  0.0277
 7927W        W10127   9.418   1.558  11.375 -0.1476 -0.1201  0.1158
 7928W        W10128  29.279   4.017  18.164 -0.0929 -0.1710 -0.0635
 7929W        W10129  15.615   5.425   1.975 -0.3118  0.1214 -0.0596
 7930W        W10130  15.242   6.886   8.883  0.2503  0.2229 -0.1383
 7931W        W10131   3.630   5.801  25.462 -0.0318  0.0573 -0.2500
 7932W        W10132  12.437   4.576   7.122  0.0360 -0.2905 -0.0410
 7933W        W10133  22.337   1.795  20.528  0.0501 -0.0731 -0.1670
 7934W        W10134   9.674   4.565   0.562 -0.0782 -0.3003 -0.0994
 7935W        W10135  10.394   3.276  16.962 -0.0581  0.0996  0.1307
 7936W        W10136  24.768   6.128  23.129 -0.1014  0.3974 -0.1701
 7937W        W10137  28.285   7.036   0.202  0.0855 -0.0340  0.1730
 7938W        W10138  27.755   5.266   0.664  0.1836  0.0761  0.0996
 7939W        W10139  13.253   5.070   4.678 -0.0339 -0.3675 -0.1345
 7940W        W10140  12.726   7.587  21.486 -0.1461  0.1792 -0.0544
 7941W        W10141  25.966   0.269   8.575  0.0346  0.3001 -0.5086
 7942W        W10142  15.672   2.585  24.198 -0.0043  0.2693 -0.3542
 7943W        W10143  11.760   5.092  16.466  0.0300 -0.1443  0.0660
 7944W        W10144   1.142   0.355   9.373 -0.4309 -0.1077 -0.1217
 7945W        W10145  21.372   5.413   9.306 -0.0524  0.2743 -0.2355
 7946W        W10146  25.284   0.568   3.147  0.1010 -0.1324  0.1051
 7947W        W10147  16.060   0.389  21.184 -0.1956  0.1508 -0.0636
 7948W        W10148  21.495   5.956  15.944  0.1574 -0.2348 -0.0747
 7949W        W10149  26.970   4.668   1.045 -0.1403  0.1464  0.2665
 7950W        W10150   5.194   4.495  25.483 -0.0220 -0.0829  0.1627
 7951W        W10151   0.980   3.268  20.422 -0.1013  0.2052  0.0672
 7952W        W10152  14.614   1.328  15.869  0.3178 -0.0891  0.0892
 7953W        W10153  25.244   0.841  22.981 -0.2797 -0.2855  0.0784
 7954W        W10154  16.253   5.131  24.600 -0.0659  0.2133 -0.2890
 7955W        W10155  29.081   6.991   4.300  0.1724 -0.1095  0.1280
 7956W        W10156  10.632   6.795  20.090  0.3097  0.1742 -0.1332
 7957W        W10157  22.516   7.346   7.441  0.3541  0.2075  0.1014
 7958W        W10158  31.054   5.951  18.369  0.2568 -0.4433 -0.0328
 7959W        W10159  25.883   2.912  20.593 -0.1887  0.2903  0.0070
 7960W        W10160  21.702   7.085   4.926  0.2085  0.0385  0.0758
 7961W        W10161  30.310   1.074   8.714 -0.3365 -0.0477 -0.0584
 7962W        W10162  17.203   6.857   8.140  0.0242 -0.0061  0.0933
 7963W        W10163  24.898   0.261  15.925 -0.1784  0.0422 -0.0018
 7964W        W10164   2.846   4.050  22.623  0.0482  0.1540  0.1375
 7965W        W10165   6.195   3.966  21.235 -0.1461  0.2606 -0.1093
 7966W        W10166  12.734   5.629  21.843 -0.0930 -0.0938 -0.0948
 7967W        W10167  13.332   5.222   9.060  0.0703 -0.3431  0.0422
 7968W        W10168  11.683   1.374   7.058 -0.1406  0.1870  0.1877
 7969W        W10169  18.285   0.603  17.290 -0.0934 -0.1132 -0.0034
 7970W        W10170  10.878   7.137   6.475 -0.0697 -0.1778  0.1916
 7971W        W10171   7.649   1.549   3.769 -0.1071  0.2371 -0.0279
 7972W        W10172   6.633   3.726   8.234 -0.0424  0.1169  0.0431
 7973W        W10173   5.615   0.059   8.842 -0.0942  0.2800  0.2010
 7974W        W10174  17.102   6.730   6.801 -0.0186  0.1483  0.0912
 7975W        W10175  26.490   3.228   8.473  0.2904 -0.0746  0.6154
 7976W        W10176  16.213   6.040  15.252 -0.1637 -0.0123 -0.1196
 7977W        W10177   2.030   5.300   4.766  0.1695 -0.1838  0.0490
 7978W        W10178   8.140   2.705  23.434 -0.1038  0.1112 -0.2926
 7979W        W10179   0.117   1.507  21.557 -0.0037  0.1456 -0.2486
 7980W        W10180  28.599   5.068   0.446 -0.3585  0.0504 -0.1347
 7981W        W10181   6.858   0.392  19.255  0.1153  0.3178 -0.1825
 7982W        W10182  21.823   1.777   4.170  0.2161 -0.0340  0.1119
 7983W        W10183  30.193   3.998  22.576 -0.0153  0.1066  0.1645
 7984W        W10184  27.314   7.517   9.242 -0.1751 -0.1658  0.1426
 7985W        W10185  27.287   3.794  24.937  0.2814  0.0882  0.2961
 7986W        W10186  11.090   6.500  25.094 -0.3634  0.0767  0.0849
 7987W        W10187   0.543   7.024  19.220 -0.2055  0.3210  0.0997
 7988W        W10188  12.554   0.529  24.684  0.1121  0.3264  0.0668
 7989W        W10189   2.157   7.628   1.325 -0.4773  0.3753  0.1876
 7990W        W10190  23.052   1.477  18.422  0.0444 -0.1995 -0.1790
 7991W        W10191  13.555   2.352  22.951 -0.4259 -0.3115 -0.1225
 7992W        W10192  25.582   5.442  14.856  0.1707 -0.0568 -0.1866
 7993W        W10193   4.993   2.818  22.122 -0.0442 -0.1145 -0.1286
 7994W        W10194  26.612   7.244  10.776 -0.0023 -0.0131 -0.1126
 7995W        W10195  26.266   3.467   1.552 -0.0335 -0.0507 -0.0680
 7996W        W10196   3.071   6.763   0.257 -0.0319  0.1010  0.1797
 7997W        W10197  14.718   4.147   5.507  0.0110  0.2455 -0.1477
 7998W        W10198  12.423   6.331   3.333 -0.3326 -0.1129 -0.0044
 7999W        W10199   8.301   2.810   1.874 -0.0381 -0.0553  0.1208
 8000W        W10200   5.693   4.817  21.558  0.0324  0.2127 -0.0563
 8001W        W10201  16.071   5.237   1.144  0.2330 -0.1353 -0.2475
 8002W        W10202  25.451   3.561  18.727  0.2072 -0.0398 -0.0744
 8003W        W10203  22.232   7.788   8.592  0.0151  0.1948  0.2238
 8004W        W10204  20.643   6.234   3.113  0.1760 -0.1375  0.3099
 8005W        W10205  19.716   5.126  19.645  0.1678 -0.0698  0.0187
 8006W        W10206  10.541   2.679  24.764 -0.2146  0.1337  0.3386
 8007W        W10207  17.635   1.784   8.097 -0.1925 -0.0022 -0.1563
 8008W        W10208   8.966   0.453  22.191 -0.1174  0.1251 -0.3548
 8009W        W10209  28.536   5.475   2.317 -0.0612  0.1307 -0.2176
 8010W        W10210  28.341   4.691  25.192 -0.0772 -0.3848  0.0663
 8011W        W10211  10.226   3.917  24.079  0.2871  0.1998 -0.0199
 8012W        W10212   6.882   3.009   1.776 -0.2144 -0.0601 -0.2918
 8013W        W10213   3.303   5.585   2.416 -0.1669  0.0895  0.1436
 8014W        W10214  27.124   2.451  20.987  0.0449 -0.0043 -0.1320
 8015W        W10215  18.481   2.676   5.449  0.0411 -0.0694  0.1375
 8016W        W10216  30.804   5.180  25.899 -0.0893  0.1131 -0.1532
 8017W        W10217   0.114   3.706   4.895 -0.0854 -0.0850 -0.1716
 8018W        W10218   2.777   3.473   8.444  0.0524 -0.0515  0.2128
 8019W        W10219   2.346   4.295  17.135 -0.0380 -0.0230  0.4436
 8020W        W10220  28.581   5.518   5.224 -0.0894 -0.1067 -0.2022
 8021W        W10221   3.977   4.402  10.334  0.1067 -0.0977 -0.0791
 8022W        W10222  16.015   1.992   1.128  0.1516 -0.0371  0.1760
 8023W        W10223   7.759   4.636  10.788  0.1447 -0.1626 -0.0685
 8024W        W10224  28.959   7.690   2.293  0.1660  0.1325 -0.0137
 8025W        W10225  28.793   0.318   6.617  0.2800 -0.0217 -0.1236
 8026W        W10226  29.334   4.851   6.802  0.1261 -0.1204  0.3366
 8027W        W10227  23.277   7.656   6.297 -0.1080  0.2133 -0.1864
 8028W        W10228   9.739   0.954   1.929  0.0425 -0.1829 -0.1418
 8029W        W10229  18.480   4.954   4.653  0.2160  0.2166 -0.1414
 8030W        W10230  23.777   0.457   9.945  0.4411  0.2147 -0.0188
 8031W        W10231   1.301   4.806   3.774  0.1607 -0.0263  0.3521
 8032W        W10232   8.273   3.559   2.484 -0.0924 -0.0913 -0.0250
 8033W        W10233   0.126   7.835  21.994  0.2146 -0.0034 -0.0331
 8034W        W10234   5.889   1.242  15.797  0.1186  0.2749  0.0157
 8035W        W10235  12.553   5.277  19.109 -0.0646  0.2219  0.0491
 8036W        W10236  26.013   4.086  21.198 -0.1616 -0.5194  0.3555
 8037W        W10237  29.985   5.826  26.049  0.0593  0.0321  0.3440
 8038W        W10238  23.022   6.591  21.653  0.1279 -0.0487  0.3009
 8039W        W10239  16.390   1.447  23.290  0.0386 -0.0341 -0.2157
 8040W        W10240   6.409   2.564   8.129  0.1081 -0.0136  0.3412
 8041W        W10241  11.090   6.745   0.800  0.2106  0.2884 -0.1805
 8042W        W10242  23.314   2.209  22.415 -0.1938 -0.0084 -0.1799
 8043W        W10243  22.507   2.850  22.671  0.1022 -0.3275  0.0138
 8044W        W10244  26.558   2.321  23.429 -0.3308 -0.0120  0.1129
 8045W        W10245   9.220   4.295   0.706 -0.0603  0.0850 -0.0338
 8046W        W10246  15.052   0.102   8.317 -0.2221  0.2230  0.1411
 8047W        W10247   4.688   1.892   1.493  0.0951  0.0998 -0.2700
 8048W        W10248  24.800   5.731  16.213 -0.1159  0.1956 -0.1927
 8049W        W10249   5.185   2.946  16.444  0.1448 -0.2716 -0.0556
 8050W        W10250   8.651   5.838   6.468 -0.1600  0.0263 -0.0156
 8051W        W10251  13.038   0.504   0.923 -0.1613 -0.0020 -0.2046
 8052W        W10252  12.899   4.325  20.448  0.0345 -0.0252  0.1841
 8053W        W10253   3.165   7.670  16.305 -0.2258  0.4693 -0.3816
 8054W        W10254  17.869   5.782   8.217  0.2060 -0.4405  0.0816
 8055W        W10255  28.714   3.546  18.621  0.1069  0.0611  0.1442
 8056W        W10256  19.413   3.502  19.273  0.1283 -0.1511 -0.0594
 8057W        W10257  17.368   7.339  10.367 -0.2396  0.2153 -0.3067
 8058W        W10258   5.926   4.309  20.274 -0.0362 -0.2357  0.0001
 8059W        W10259   6.985   0.850  25.132 -0.0656  0.0165 -0.3724
 8060W        W10260   6.865   4.061   0.786  0.1873  0.2295 -0.0815
 8061W        W10261  16.413   1.620   6.414 -0.0720  0.0105  0.2337
 8062W        W10262  23.459   1.711  18.483 -0.3430 -0.1323 -0.2798
 8063W        W10263   7.500   1.648   7.026 -0.2347  0.0880  0.2333
 8064W        W10264  21.093   2.443   5.705  0.1684 -0.0416 -0.1111
 8065W        W10265  18.317   5.479   1.806 -0.0464  0.1035 -0.0705
 8066W        W10266   3.956   0.116  17.793  0.0075  0.0143  0.2566
 8067W        W10267   9.957   0.542  20.324  0.1159  0.0869  0.0098
 8068W        W10268  10.956   1.998   6.652 -0.3085 -0.0117 -0.0300
 8069W        W10269  23.520   0.336  25.832 -0.1397  0.3135 -0.2245
 8070W        W10270  30.454   2.904  23.834  0.1929  0.2215  0.2630
 8071W        W10271  30.961   4.981  19.558 -0.2763 -0.0922 -0.0471
 8072W        W10272  31.077   5.289   7.025 -0.1622  0.2665 -0.0000
 8073W        W10273  21.316   5.486  16.063  0.0687 -0.2843  0.1421
 8074W        W10274   3.676   6.831  25.196 -0.1252 -0.0563  0.0836
 8075W        W10275  14.824   4.560  20.341  0.2608 -0.2480  0.0377
 8076W        W10276   5.303   3.225  24.311 -0.1351  0.1202  0.1761
 8077W        W10277   7.732   5.062  20.156  0.0957 -0.2193  0.1701
 8078W        W10278  14.681   1.786  24.689 -0.1131  0.0574 -0.1981
 8079W        W10279  12.326   6.816   9.579 -0.2665 -0.1093 -0.4128
 8080W        W10280  16.378   6.853   7.934 -0.1519 -0.0040 -0.0078
 8081W        W10281  16.567   1.752  21.749  0.0208  0.1161  0.1857
 8082W        W10282  10.962   1.150  16.221 -0.2699 -0.1734  0.1832
 8083W        W10283   5.086   4.909   8.931 -0.0652 -0.1974  0.0314
 8084W        W10284  16.510   7.559   3.988 -0.0285  0.0038  0.2307
 8085W        W10285   1.592   3.304  23.919 -0.0359  0.1753 -0.4596
 8086W        W10286  22.338   4.344  21.847  0.1746 -0.0402  0.3095
 8087W        W10287  30.611   6.414  25.677 -0.1093  0.1533  0.2120
 8088W        W10288   5.268   5.265  16.332 -0.2654  0.1071 -0.3759
 8089W        W10289  25.240   6.896   9.858 -0.0720  0.0429  0.0924
 8090W        W10290   5.064   0.363   9.405  0.0140 -0.0802  0.0179
 8091W        W10291  29.603   1.761   6.246  0.1888 -0.1593  0.2367
 8092W        W10292  19.138   0.703  24.396  0.2356 -0.1374  0.0962
 8093W        W10293  13.141   7.744   1.327  0.2269  0.1353  0.0401
 8094W        W10294  29.739   0.126  20.217 -0.4677  0.0632 -0.2450
 8095W        W10295  30.728   7.071   7.772 -0.1016 -0.2309  0.0312
 8096W        W10296   5.191   0.725   5.555  0.0421  0.1309 -0.0537
 8097W        W10297  20.852   7.015  23.865 -0.1852 -0.1301 -0.1586
 8098W        W10298   6.560   7.859   3.346  0.1348  0.3694  0.2264
 8099W        W10299   0.495   6.530   0.820  0.0191  0.2252 -0.2891
 8100W        W10300   6.529   7.745  18.362  0.1044 -0.0205  0.1372
 8101W        W10301   9.068   6.347  22.058 -0.1793  0.0364 -0.0920
 8102W        W10302  11.323   5.172   2.971  0.0663  0.0313  0.0418
 8103W        W10303  25.558   3.623   9.357 -0.3257 -0.1954  0.4049
 8104W        W10304   3.878   0.093  22.310  0.1408 -0.2377 -0.1233
 8105W        W10305  30.616   1.684  25.915 -0.1424 -0.0813 -0.3759
 8106W        W10306  13.988   6.766  17.342  0.0869  0.0765  0.0612
 8107W        W10307   7.200   0.300  10.257 -0.0226 -0.3958 -0.1320
 8108W        W10308  24.481   4.664  19.731  0.2563  0.0413 -0.2024
 8109W        W10309  21.655   2.105  17.373 -0.1823 -0.1548  0.2327
 8110W        W10310   8.471   5.026  20.186 -0.1313 -0.1559  0.1935
 8111W        W10311   5.132   0.003   5.162 -0.0685 -0.1725 -0.1719
 8112W        W10312   5.470   0.528  22.863  0.0868 -0.0669 -0.2558
 8113W        W10313  25.491   2.889   6.333 -0.0716 -0.1797 -0.3549
 8114W        W10314  31.100   7.805   5.439  0.0595 -0.1205 -0.0454
 8115W        W10315   2.642   1.884   3.946 -0.1593 -0.3460 -0.0194
 8116W        W10316   6.790   1.831  20.502 -0.2263  0.0040 -0.0543
 8117W        W10317  19.219   7.635   9.153 -0.0318 -0.1346 -0.3281
 8118W        W10318  16.966   5.415  19.061  0.0092 -0.2455 -0.0339
 8119W        W10319   3.745   6.774   5.356  0.0848  0.0251 -0.0406
 8120W        W10320   5.718   1.094  20.451 -0.0122  0.0836 -0.1112
 8121W        W10321  28.458   3.275   9.868 -0.1098 -0.6186  0.0978
 8122W        W10322  31.185   4.462  25.357  0.3088  0.0311 -0.1444
 8123W        W10323  19.078   7.019   0.344 -0.0222 -0.0876 -0.2558
 8124W        W10324   5.413   1.482   0.202  0.1216 -0.4442  0.0038
 8125W        W10325   0.527   6.130  17.503 -0.1918  0.0103  0.1007
 8126W        W10326  12.695   5.775   1.049  0.0572  0.3959 -0.2095
 8127W        W10327  28.728   2.561   1.370 -0.2063  0.1563 -0.1333
 8128W        W10328  16.231   0.591   4.388 -0.0657 -0.0261  0.0310
 8129W        W10329  17.335   7.783   1.252  0.0415 -0.3649 -0.2542
 8130W        W10330   8.460   4.290  19.643 -0.0952 -0.1330 -0.1398
 8131W        W10331  18.320   7.637  10.329 -0.0833  0.1608  0.1702
 8132W        W10332  14.397   6.627  21.843  0.0802 -0.1249  0.0660
 8133W        W10333  28.671   2.713  22.275  0.1034 -0.0003 -0.0675
 8134W        W10334   9.420   4.000  17.869  0.1469 -0.0403  0.0280
 8135W        W10335  10.880   5.347   6.620  0.0089  0.2141  0.1083
 8136W        W10336  24.021   4.850   3.089  0.2424 -0.1516  0.1908
 8137W        W10337  12.477   1.173   2.584 -0.0975  0.0866 -0.1777
 8138W        W10338   0.902   3.454   6.470 -0.0225  0.1205  0.4444
 8139W        W10339  12.100   6.531  17.363  0.0084 -0.1651  0.0872
 8140W        W10340  26.537   2.454  21.750  0.1917 -0.1113 -0.1219
 8141W        W10341  19.005   7.854   6.784 -0.1297  0.1671 -0.0744
 8142W        W10342   5.189   0.264  22.534  0.0762  0.1608  0.1259
 8143W        W10343   1.387   0.912  26.075  0.1330 -0.0050  0.1053
 8144W        W10344  29.356   0.396  10.573 -0.3501 -0.5201 -0.1478
 8145W        W10345  21.725   6.076  26.063 -0.1429 -0.0084  0.1892
 8146W        W10346   4.816   7.751  17.546  0.0475 -0.2551 -0.0806
 8147W        W10347   1.569   7.437  22.757 -0.1171  0.2848 -0.3084
 8148W        W10348  27.379   3.213  16.841  0.0066 -0.0369 -0.1412
 8149W        W10349  24.475   5.145   3.266  0.2564  0.0500  0.1810
 8150W        W10350  20.682   0.874  25.149  0.1541  0.0393  0.1450
 8151W        W10351  15.872   4.254   4.178 -0.4338  0.0540 -0.0783
 8152W        W10352  12.688   2.963  23.786 -0.0183 -0.2991 -0.2366
 8153W        W10353  14.737   1.107   7.153  0.1785  0.0020 -0.1498
 8154W        W10354  20.639   7.099   1.296 -0.2117  0.3221 -0.0406
 8155W        W10355   4.771   4.769   0.641  0.0310  0.1821  0.7241
 8156W        W10356   5.159   0.541  16.136  0.4638  0.0534 -0.1810
 8157W        W10357   5.118   6.315   8.305 -0.0650 -0.1327  0.0852
 8158W        W10358  14.056   1.264  18.051 -0.1356  0.1142  0.1920
 8159W        W10359  13.431   4.143   3.594 -0.1608 -0.2085 -0.1885
 8160W        W10360   8.034   6.401   5.258  0.3535  0.2856 -0.2339
 8161W        W10361  17.705   0.296   6.071 -0.0458  0.1420  0.0486
 8162W        W10362   2.943   2.591   4.691 -0.0475 -0.2677  0.1028
 8163W        W10363  23.288   4.224   3.384 -0.0446 -0.1956 -0.1777
 8164W        W10364   7.815   7.682  26.002 -0.2042 -0.0498  0.0892
 8165W        W10365  14.188   1.279   8.455  0.1681  0.1225 -0.6504
 8166W        W10366  31.148   4.661   4.253  0.1734  0.0147  0.0450
 8167W        W10367  25.898   5.703   7.174 -0.0164 -0.1537  0.0675
 8168W        W10368  27.911   5.284  25.714 -0.1428 -0.1257  0.0785
 8169W        W10369   5.475   3.150   5.144  0.3821  0.1702 -0.1236
 8170W        W10370  16.480   2.353   0.462  0.0392 -0.1116 -0.0977
 8171W        W10371  14.034   4.646  11.057 -0.2652 -0.0556 -0.3104
 8172W        W10372  24.822   7.822  19.821  0.0495  0.1783  0.0868
 8173W        W10373  29.331   3.569   6.078  0.2224  0.0279 -0.1482
 8174W        W10374  13.274   2.202   8.930  0.1199  0.0242  0.1723
 8175W        W10375  11.805   0.619   9.940  0.0685  0.2402 -0.0333
 8176W        W10376   4.650   3.470  15.986  0.2233 -0.1622  0.0325
 8177W        W10377   0.422   2.601  23.534  0.4037  0.0225  0.2610
 8178W        W10378  22.316   5.567   6.800 -0.2186  0.2478 -0.2772
 8179W        W10379  15.882   4.770  15.827  0.0721  0.3957 -0.2717
 8180W        W10380  24.799   3.055  15.900  0.0730  0.1628  0.1429
 8181W        W10381  21.453   7.369  22.630  0.0076 -0.0306  0.0985
 8182W        W10382  16.840   6.219   5.187  0.0613  0.3064 -0.2747
 8183W        W10383  23.809   3.362  10.697  0.0030 -0.0454 -0.2741
 8184W        W10384  25.775   6.132   2.308  0.1117 -0.1338 -0.1070
 8185W        W10385  20.792   6.082   5.527  0.1602  0.0393  0.0673
 8186W        W10386  23.950   5.256  24.093 -0.0144 -0.2991 -0.2453
 8187W        W10387   3.815   4.712   5.961 -0.0674  0.1637 -0.1007
 8188W        W10388  22.516   6.431  21.507 -0.0368 -0.0087  0.2482
 8189W        W10389  20.193   4.616  10.980  0.0918  0.1182 -0.2857
 8190W        W10390   1.668   2.008  14.419 -0.1883  0.0466 -0.4107
 8191W        W10391  16.234   2.470  17.643  0.1648 -0.1531  0.3469
 8192W        W10392  30.672   3.305  22.115 -0.1085 -0.0891 -0.1356
 8193W        W10393  24.439   0.352   3.953 -0.2739  0.0723  0.1228
 8194W        W10394  12.887   1.660  20.900 -0.0944  0.1135 -0.1078
 8195W        W10395   5.524   6.223   4.689  0.0229  0.1858  0.1463
 8196W        W10396  30.902   1.902  21.189 -0.0265  0.2724 -0.0876
 8197W        W10397  16.755   1.549  20.914  0.4133  0.0703 -0.0107
 8198W        W10398   1.343   2.032   7.674 -0.0288  0.3173  0.0386
 8199W        W10399   3.755   2.125   3.153 -0.1130 -0.2351  0.0556
 8200W        W10400  29.558   2.267   2.805 -0.3377  0.2179  0.0051
 8201W        W10401  16.276   1.410  19.931  0.0168 -0.1918 -0.1994
 8202W        W10402  18.155   7.860  24.014 -0.0649  0.2578 -0.0522
 8203W        W10403  21.922   5.306   9.918  0.2844  0.1610  0.1443
 8204W        W10404   1.950   1.205   4.964  0.1928 -0.4333  0.2045
 8205W        W10405  14.723   7.776  23.289  0.1582 -0.0380  0.0865
 8206W        W10406  16.978   4.491   8.111 -0.2077  0.1219  0.0769
 8207W        W10407  23.774   1.965  24.761 -0.1390  0.0996  0.0352
 8208W        W10408  22.790   0.397  11.067 -0.2958  0.0033  0.2173
 8209W        W10409  19.068   6.737  17.468 -0.2097  0.0786 -0.1613
 8210W        W10410   9.452   5.328  16.786  0.0658 -0.3805 -0.0405
 8211W        W10411   9.986   0.953   0.090 -0.2568  0.1056 -0.0868
 8212W        W10412   8.135   7.587  18.799 -0.0559 -0.1781  0.1919
 8213W        W10413   3.054   1.342   4.615  0.0561  0.0022 -0.1583
 8214W        W10414  23.062   4.269   8.381 -0.0527  0.1452 -0.2222
 8215W        W10415  30.950   6.766   2.201  0.4414  0.0100  0.2097
 8216W        W10416  19.514   5.730   9.619  0.1527 -0.0610  0.0600
 8217W        W10417  14.451   1.129  25.811 -0.0722 -0.4132  0.0853
 8218W        W10418   2.683   7.283   3.945 -0.1718 -0.0938  0.0668
 8219W        W10419  10.810   0.528  23.874 -0.1746  0.2835 -0.0232
 8220W        W10420   9.246   7.168  16.924 -0.0350  0.2524 -0.1138
 8221W        W10421  17.529   5.674  20.856  0.0847  0.2867 -0.0223
 8222W        W10422  30.254   6.425  23.241  0.0202  0.0779  0.2275
 8223W        W10423  11.612   7.786  16.997 -0.1753  0.1644 -0.0407
 8224W        W10424  10.505   2.422  22.712 -0.1177  0.0504  0.0149
 8225W        W10425  26.134   6.495  25.643  0.1370  0.0221 -0.0037
 8226W        W10426   1.278   7.073  15.608  0.0892  0.1895 -0.0879
 8227W        W10427  16.787   2.250   0.068  0.1152 -0.0181  0.0532
 8228W        W10428  23.363   0.498  21.867 -0.3573  0.2327 -0.0787
 8229W        W10429  19.774   2.276  15.470  0.2237  0.1672 -0.0310
 8230W        W10430  29.175   6.754   0.946  0.1238  0.1321 -0.2660
 8231W        W10431  16.587   3.680  10.704  0.1539  0.0333 -0.2287
 8232W        W10432  30.921   5.959  23.668  0.0166 -0.0090 -0.0909
 8233W        W10433  23.841   3.447  20.984 -0.0530 -0.2181  0.0073
 8234W        W10434   4.295   0.523   6.153  0.1728 -0.1735 -0.0189
 8235W        W10435  14.799   3.403  10.483  0.1856 -0.0154 -0.0660
 8236W        W10436  25.761   7.504   8.204  0.0880 -0.2113  0.0916
 8237W        W10437  19.640   4.549  23.054 -0.2523 -0.0256  0.2168
 8238W        W10438  26.487   0.703   3.998 -0.2311 -0.0576 -0.1450
 8239W        W10439  13.171   7.662   8.640 -0.1297 -0.1834  0.0434
 8240W        W10440   5.839   4.435   8.904  0.1207 -0.1726 -0.1826
 8241W        W10441  18.134   4.750   4.318 -0.4874  0.0992 -0.2903
 8242W        W10442  27.617   6.584   9.259  0.1086  0.1897 -0.1701
 8243W        W10443   8.919   4.303  24.979  0.1923  0.1680  0.2595
 8244W        W10444  28.142   1.576  21.479 -0.0209 -0.0823  0.1798
 8245W        W10445  30.245   6.399  16.021 -0.2118  0.2072 -0.1324
 8246W        W10446  12.310   0.823  16.776  0.1952  0.1512 -0.2093
 8247W        W10447  14.266   6.287   2.229  0.0507 -0.1376  0.1231
 8248W        W10448  15.021   6.988  22.657 -0.1511  0.0222  0.0009
 8249W        W10449   5.375   6.750  18.759 -0.2741  0.1532  0.0005
 8250W        W10450  10.049   5.504   6.706  0.0665  0.0047 -0.1735
 8251W        W10451   4.714   3.177  21.280 -0.0041  0.3670  0.0631
 8252W        W10452  21.617   6.567  17.603  0.0793  0.1797  0.2771
 8253W        W10453   0.669   4.392  19.868 -0.1803  0.1113  0.3165
 8254W        W10454   6.542   3.094  23.158  0.1242  0.2364  0.0987
 8255W        W10455   0.956   1.055  25.075  0.2578  0.1091 -0.2032
 8256W        W10456   4.842   5.371   6.959 -0.1043  0.4737  0.0554
 8257W        W10457  16.843   2.361  22.738 -0.0316 -0.1825 -0.3127
 8258W        W10458  17.298   1.779   4.106  0.0177 -0.1118  0.0277
 8259W        W10459  17.933   0.169  20.622 -0.4487  0.0911  0.0527
 8260W        W10460  27.834   2.452  25.720 -0.0125  0.0101 -0.0228
 8261W        W10461  18.706   0.081  18.455 -0.0526  0.1674  0.1150
 8262W        W10462  14.429   3.223  20.151 -0.2527 -0.1902 -0.3539
 8263W        W10463  20.451   4.338  20.131 -0.0132 -0.0870  0.0591
 8264W        W10464  23.324   6.376   9.570  0.1410  0.2156  0.2221
 8265W        W10465  27.307   2.096  15.514  0.3726 -0.1085 -0.1083
 8266W        W10466  18.078   1.465   0.762  0.0503 -0.2674  0.1265
 8267W        W10467  27.780   3.174  24.528 -0.0626  0.1186 -0.1294
 8268W        W10468  29.780   2.640  26.061  0.0585  0.1918  0.1128
 8269W        W10469  17.830   4.924  22.347  0.0361 -0.5203  0.1644
 8270W        W10470   0.961   2.354  17.140  0.1139 -0.2556  0.0888
 8271W        W10471  22.233   4.709   8.423 -0.0159 -0.2307 -0.1327
 8272W        W10472   0.144   2.346  25.564  0.1092  0.0715 -0.3155
 8273W        W10473  11.319   7.380  25.313  0.1754 -0.1476  0.0141
 8274W        W10474  23.132   3.722   0.574 -0.0759  0.1639 -0.2109
 8275W        W10475   3.977   4.640  25.708  0.4655 -0.1389  0.1780
 8276W        W10476  22.082   3.395  24.543  0.1966 -0.1706  0.0234
 8277W        W10477  10.928   0.333  10.750 -0.3881  0.1940  0.1193
 8278W        W10478  16.513   4.274   8.104 -0.3048  0.0012 -0.0047
 8279W        W10479  20.910   0.306   7.537 -0.1913 -0.2782  0.1599
 8280W        W10480  29.924   7.151   3.938 -0.0147  0.2402 -0.1789
 8281W        W10481  31.147   3.389  15.091  0.0663 -0.1371 -0.2532
 8282W        W10482   7.705   6.316   8.667  0.0129 -0.3032 -0.1236
 8283W        W10483   2.884   2.050  21.223 -0.1488 -0.0495  0.2398
 8284W        W10484   5.253   0.768  19.780  0.0581  0.1386 -0.0259
 8285W        W10485  23.685   2.814  16.524 -0.4071 -0.1857  0.1791
 8286W        W10486  28.156   4.272   4.264 -0.2603 -0.1833 -0.0404
 8287W        W10487  13.786   6.274  25.546  0.1446 -0.1039 -0.1079
 8288W        W10488  24.356   6.926   7.123  0.0847  0.3206  0.0620
 8289W        W10489  24.342   2.449  22.612 -0.2237  0.3487 -0.4156
 8290W        W10490   6.880   6.045  21.647 -0.1998  0.1023 -0.0053
 8291W        W10491  30.776   1.642  17.619 -0.1733 -0.1258 -0.0896
 8292W        W10492  19.893   3.678  24.495 -0.0203 -0.1816 -0.0591
 8293W        W10493  27.602   0.721  25.859  0.2783 -0.0751  0.2028
 8294W        W10494   1.399   1.477  16.635  0.0689  0.1366  0.3126
 8295W        W10495  24.486   0.083  16.863 -0.0454 -0.2455 -0.0280
 8296W        W10496  30.811   0.476  14.680 -0.1629 -0.1762 -0.1807
 8297W        W10497  28.516   0.519  18.592 -0.1906  0.1631  0.3602
 8298W        W10498  23.157   3.203  22.295  0.1888  0.2751  0.2369
 8299W        W10499   4.270   1.530   3.658 -0.0947  0.2495  0.0445
 8300W        W10500  16.087   5.917   7.101  0.0546  0.1166 -0.1753
 8301W        W10501  27.975   3.414   0.420 -0.0390 -0.2427  0.2169
 8302W        W10502   8.414   7.795  16.552  0.0896 -0.0448 -0.0211
 8303W        W10503   0.416   2.867   2.623  0.1150 -0.1286  0.1895
 8304W        W10504  16.678   1.210  19.799  0.0075  0.0260  0.1505
 8305W        W10505  28.388   0.290   1.629 -0.0777  0.1225  0.2041
 8306W        W10506   2.394   4.238  22.848  0.1963 -0.1614 -0.0501
 8307W        W10507  29.782   5.258  16.262  0.2363  0.0171 -0.4227
 8308W        W10508  14.767   6.809   3.728 -0.0385  0.1918 -0.0894
 8309W        W10509  22.799   6.538   7.370  0.2157 -0.0135 -0.0833
 8310W        W10510   4.424   1.844   5.597 -0.0397 -0.1075  0.0659
 8311W        W10511   3.077   2.796   5.671 -0.1311 -0.2350 -0.1746
 8312W        W10512   0.894   1.565  14.481  0.0711 -0.2723  0.0314
 8313W        W10513  21.090   6.365  21.316 -0.0220 -0.0217  0.1756
 8314W        W10514  29.104   4.294  24.293 -0.3370 -0.0984  0.0665
 8315W        W10515  11.284   2.508   4.078  0.0972 -0.2277 -0.0416
 8316W        W10516   8.725   3.701  17.743 -0.2316 -0.4121 -0.0849
 8317W        W10517  12.040   7.368  10.738  0.1345  0.0704 -0.2675
 8318W        W10518  20.070   1.050  17.949  0.2650 -0.1005  0.0929
 8319W        W10519  17.825   1.137   2.630 -0.0658 -0.1093 -0.2215
 8320W        W10520  13.212   1.749   7.269 -0.1205  0.1813 -0.0508
 8321W        W10521  25.849   1.674   8.118  0.0644 -0.1097  0.2652
 8322W        W10522  30.742   7.136  15.989 -0.0852  0.2106 -0.0614
 8323W        W10523  11.259   6.787  17.865 -0.2916  0.1037 -0.2849
 8324W        W10524  28.368   6.591   7.402 -0.0421  0.2047  0.0060
 8325W        W10525   9.304   3.540  16.300  0.2289  0.2480  0.1834
 8326W        W10526  27.900   3.774  23.847 -0.3303 -0.1056 -0.1957
 8327W        W10527  18.032   3.824   1.952  0.3169  0.0245  0.0451
 8328W        W10528  27.386   4.856  25.262  0.2479  0.0742  0.1731
 8329W        W10529   7.850   3.357  11.152  0.0932 -0.2398 -0.0208
 8330W        W10530  25.194   5.935   9.487  0.0961  0.0565 -0.1968
 8331W        W10531  29.587   3.880   5.719 -0.3294  0.0268 -0.1046
 8332W        W10532  10.540   0.133   6.732  0.0967  0.3020 -0.3517
 8333W        W10533   6.519   5.309  25.622  0.0715 -0.0811 -0.1798
 8334W        W10534   5.715   2.716  21.196 -0.1344  0.0424 -0.1401
 8335W        W10535  12.955   1.845  15.500 -0.0070  0.1218 -0.0568
 8336W        W10536   3.207   2.798  23.774 -0.0308 -0.1687 -0.0900
 8337W        W10537  24.651   3.407  17.326  0.2202  0.3541  0.2671
 8338W        W10538  23.596   3.583  16.909 -0.0858  0.2360 -0.0869
 8339W        W10539   3.191   3.499   2.741  0.0837  0.3260  0.1031
 8340W        W10540  28.793   2.197   4.471  0.2460 -0.0799  0.0354
 8341W        W10541  10.253   5.513   9.791  0.0814  0.2011  0.3116
 8342W        W10542  17.929   5.125   4.104  0.4972  0.0273 -0.0816
 8343W        W10543  10.802   5.321   7.351  0.0497 -0.0341  0.2111
 8344W        W10544  15.501   5.684   9.405  0.0499  0.0724  0.1195
 8345W        W10545   8.910   7.685  20.142 -0.0533 -0.1974 -0.1870
 8346W        W10546  16.838   6.438   1.720 -0.0842  0.3722  0.1907
 8347W        W10547  21.357   0.286   6.798  0.0050 -0.0908 -0.0480
 8348W        W10548   7.211   1.907  23.734  0.2343 -0.0929  0.0375
 8349W        W10549   4.523   6.045  25.627  0.1904 -0.2478  0.0117
 8350W        W10550   7.016   7.166  20.120 -0.1222  0.1606  0.1397
 8351W        W10551  31.219   1.906  10.972  0.2513  0.1801 -0.1511
 8352W        W10552  31.185   7.038  16.831  0.1148 -0.1118  0.1340
 8353W        W10553  23.367   0.431  22.791 -0.2295 -0.1382  0.1014
 8354W        W10554  17.356   7.632  14.835 -0.0956 -0.1423  0.1280
 8355W        W10555  25.538   1.958  18.129  0.0700  0.3123  0.0851
 8356W        W10556  13.773   5.868   8.274  0.2994 -0.1605  0.1840
 8357W        W10557  28.136   7.456  11.012 -0.2695  0.1919  0.1994
 8358W        W10558  16.714   2.353   4.337  0.0752  0.2448  0.0672
 8359W        W10559  26.682   0.881  18.044  0.3391  0.0403  0.0832
 8360W        W10560  23.300   0.688   0.990  0.1405 -0.1189 -0.1514
 8361W        W10561   0.058   6.319   5.547  0.0669 -0.1874  0.0024
 8362W        W10562  29.085   4.938   0.624  0.1988 -0.0299  0.2444
 8363W        W10563   7.802   5.231  17.574 -0.1068 -0.0093 -0.1582
 8364W        W10564  23.534   2.340   8.007  0.1583  0.2281  0.1731
 8365W        W10565  14.005   0.625   3.672  0.1460 -0.2403  0.0747
 8366W        W10566  23.503   5.389  18.623  0.1298 -0.0345 -0.1523
 8367W        W10567   8.039   6.368  25.010 -0.2338 -0.1202  0.1493
 8368W        W10568  19.848   6.938  15.722  0.0718  0.0006 -0.0831
 8369W        W10569  20.391   2.249   2.234 -0.0029  0.1085 -0.1445
 8370W        W10570  23.836   2.871  25.024 -0.0443  0.1061  0.1952
 8371W        W10571  30.683   4.418  17.788  0.2336  0.0372  0.1748
 8372W        W10572   3.607   3.008  15.262  0.1009 -0.3911 -0.1046
 8373W        W10573  23.961   7.185  20.423 -0.1712  0.1986 -0.2736
 8374W        W10574  10.791   5.166  23.108 -0.1069  0.0366 -0.3330
 8375W        W10575  15.795   4.937   1.816  0.1588 -0.0072  0.1600
 8376W        W10576  10.682   5.903   8.866 -0.2026 -0.0257  0.2769
 8377W        W10577  19.297   4.316  17.716  0.0663 -0.3493 -0.2324
 8378W        W10578   8.913   3.027  26.047  0.2966 -0.3312 -0.0671
 8379W        W10579  22.811   6.516   3.591 -0.2064  0.1088  0.1539
 8380W        W10580   8.892   5.870   1.726 -0.1167  0.1625  0.3193
 8381W        W10581  15.940   3.599   8.328 -0.1372  0.0718  0.0173
 8382W        W10582  26.143   3.158   0.917 -0.0332 -0.0816 -0.1809
 8383W        W10583   7.277   5.725  19.232 -0.0452 -0.1188 -0.0191
 8384W        W10584   0.114   2.195  18.372  0.0013 -0.1286  0.0863
 8385W        W10585   7.700   3.376   3.170 -0.0449  0.0647 -0.0978
 8386W        W10586  29.690   3.898  16.598  0.2562 -0.0566 -0.0109
 8387W        W10587  23.756   6.292  24.993  0.0762  0.2489  0.0460
 8388W        W10588  25.581   7.101   0.032 -0.1589 -0.2514 -0.2847
 8389W        W10589   3.600   5.686  24.087 -0.0912 -0.1490  0.3545
 8390W        W10590  25.570   5.071  15.395  0.0220  0.0346  0.1141
 8391W        W10591  20.581   7.670   9.624  0.0161 -0.0337 -0.1382
 8392W        W10592   7.206   4.911  18.264 -0.2931 -0.0012 -0.2020
 8393W        W10593  26.551   2.064   6.550 -0.0042  0.1908 -0.1891
 8394W        W10594  26.467   6.458   0.553  0.2570  0.0237  0.0185
 8395W        W10595  30.498   5.950  25.973  0.0753  0.2156  0.2290
 8396W        W10596  13.507   4.625  21.101 -0.0445  0.0959  0.2484
 8397W        W10597  13.061   2.662  26.046 -0.0371  0.0862 -0.0796
 8398W        W10598  19.019   7.786  18.906 -0.0796  0.3578  0.0258
 8399W        W10599   6.531   5.620  25.223  0.4362  0.2049  0.1048
 8400W        W10600  18.667   0.035   9.297  0.2669  0.1004 -0.1237
 8401W        W10601   3.887   1.775   4.461  0.0590 -0.0553 -0.1599
 8402W        W10602   7.313   2.717  22.632 -0.0650 -0.0926 -0.3511
 8403W        W10603  27.502   1.650  22.576 -0.0355  0.0315 -0.0332
 8404W        W10604  20.553   3.715  24.475  0.2442 -0.3716 -0.0592
 8405W        W10605  17.706   6.952  24.316  0.1878 -0.3734  0.2443
 8406W        W10606  22.536   3.187   6.655 -0.1402  0.0981  0.1773
 8407W        W10607  19.528   6.321   2.761 -0.0440  0.1254 -0.4021
 8408W        W10608  28.787   1.146  24.564 -0.0318  0.0195 -0.1028
 8409W        W10609  17.107   4.223  25.336 -0.0644  0.0612 -0.0004
 8410W        W10610   9.313   2.207  10.080  0.0556 -0.1090  0.0594
 8411W        W10611  29.028   0.475   0.270  0.0745  0.1015 -0.0146
 8412W        W10612   8.063   7.146   6.583  0.1895 -0.3648 -0.0401
 8413W        W10613  26.709   4.952  17.058  0.1252 -0.3196 -0.1083
 8414W        W10614  19.308   5.280  16.396 -0.4470  0.1183  0.3215
 8415W        W10615  27.599   2.386  18.051  0.1589  0.1508 -0.0040
 8416W        W10616  19.140   3.938   4.240 -0.2161 -0.2116 -0.3641
 8417W        W10617   6.925   6.235   0.408 -0.2732  0.2325 -0.1485
 8418W        W10618  25.745   1.217  17.070 -0.2467 -0.1114  0.0502
 8419W        W10619  19.783   5.945  10.371 -0.3510  0.1420 -0.2167
 8420W        W10620  22.673   0.462   2.948  0.0214 -0.3252 -0.1215
 8421W        W10621  17.977   5.208   1.526 -0.0837 -0.3372  0.1837
 8422W        W10622  26.022   4.335   0.403  0.0889 -0.0577  0.2141
 8423W        W10623   4.894   4.027   5.032  0.0508  0.1689  0.0819
 8424W        W10624  28.687   7.079   3.053 -0.1523  0.1388  0.0166
 8425W        W10625  11.192   2.528  24.664 -0.1144 -0.2299  0.2265
 8426W        W10626   1.397   2.719  17.034 -0.0176 -0.0475  0.0730
 8427W        W10627  19.468   1.777  11.483 -0.2120  0.0542  0.1526
 8428W        W10628  21.350   3.138  17.489  0.0665  0.0405  0.0554
 8429W        W10629  26.458   2.616  18.817  0.1054  0.1367 -0.0105
 8430W        W10630   3.882   1.023  20.805  0.1257  0.0527 -0.2062
 8431W        W10631   0.314   0.217   2.918 -0.2701 -0.2145 -0.2375
 8432W        W10632  11.542   6.281   1.900 -0.1454 -0.1473  0.0048
 8433W        W10633   7.825   0.867   6.792  0.1981 -0.1795  0.0152
 8434W        W10634   7.972   4.361   4.930 -0.0817  0.2839  0.0293
 8435W        W10635   8.201   0.389  15.638  0.0874  0.2722 -0.0393
 8436W        W10636  28.996   1.379  10.776 -0.1123  0.0998 -0.0395
 8437W        W10637   1.043   0.254   5.464  0.1389  0.3908  0.1986
 8438W        W10638  19.917   7.469  21.213 -0.0924 -0.2070  0.0539
 8439W        W10639   9.951   3.105  22.076 -0.0839 -0.4196 -0.0128
 8440W        W10640  31.183   4.727  20.353 -0.0193 -0.3117 -0.0162
 8441W        W10641   0.126   0.159   1.420  0.1479 -0.0867  0.0442
 8442W        W10642   1.163   5.659   4.937 -0.0079 -0.1125  0.1441
 8443W        W10643  17.992   3.560  18.278 -0.1538  0.0229 -0.3057
 8444W        W10644  10.366   7.551   1.072  0.0568  0.1349 -0.3353
 8445W        W10645  26.748   4.010   2.683  0.0637 -0.0141  0.0211
 8446W        W10646  24.843   0.310  23.724  0.0239  0.0418  0.1380
 8447W        W10647  27.266   5.817  20.822 -0.0896  0.1228 -0.1772
 8448W        W10648  18.959   6.731  18.818  0.0650  0.1586 -0.0242
 8449W        W10649  15.210   5.099  11.465  0.1857  0.4259 -0.1559
 8450W        W10650  14.685   0.486  15.571 -0.0237  0.0622 -0.2160
 8451W        W10651   2.264   0.521  19.582  0.0650  0.0697  0.2669
 8452W        W10652   6.886   3.521   1.632 -0.0023 -0.1204 -0.1640
 8453W        W10653  24.219   4.921  10.679  0.1711  0.0484  0.2543
 8454W        W10654  26.493   3.360   9.681  0.1843 -0.3008 -0.2206
 8455W        W10655  23.667   5.660  23.871  0.1716  0.0984 -0.1355
 8456W        W10656   2.202   2.220  18.413  0.3673 -0.0944 -0.1888
 8457W        W10657   5.006   2.330  22.212 -0.2382  0.0399  0.1439
 8458W        W10658   0.908   5.179   3.145 -0.1728  0.0530  0.3458
 8459W        W10659   4.271   5.821  21.667 -0.0330  0.0744 -0.0895
 8460W        W10660   5.705   0.384  22.428  0.2325  0.0808  0.2018
 8461W        W10661  21.393   6.162  10.482  0.0382  0.0285 -0.1851
 8462W        W10662  17.544   0.568  20.845  0.1951  0.1560  0.1995
 8463W        W10663   6.163   5.046  22.317 -0.1258 -0.1875  0.2647
 8464W        W10664  18.190   4.248   3.797  0.2648  0.0848 -0.0495
 8465W        W10665  24.103   6.457  22.186  0.1212  0.1133 -0.1170
 8466W        W10666   6.736   6.168  14.826 -0.0719  0.0823  0.0619
 8467W        W10667   2.217   2.782   6.943  0.1150  0.0194 -0.3113
 8468W        W10668   7.654   6.682  24.897  0.0010 -0.1797 -0.0459
 8469W        W10669   5.073   5.179  19.079  0.1096 -0.0382 -0.0233
 8470W        W10670  18.071   6.756   7.001  0.1079  0.2539  0.0938
 8471W        W10671  10.225   1.815  22.511  0.0651 -0.0335 -0.0395
 8472W        W10672  18.104   3.426   0.380 -0.2824  0.1963  0.0781
 8473W        W10673   9.273   1.931  23.668 -0.0104 -0.2129  0.1672
 8474W        W10674  25.685   1.489  20.726 -0.0140 -0.2241 -0.1092
 8475W        W10675  20.012   4.234  18.547  0.0968  0.1540  0.0264
 8476W        W10676  10.794   3.385   8.080  0.0748 -0.2382  0.2043
 8477W        W10677  13.194   0.268   8.921 -0.2291 -0.1168 -0.2100
 8478W        W10678  16.346   0.335  22.050 -0.0086 -0.2457  0.0005
 8479W        W10679  23.838   0.651  21.803 -0.1163 -0.2987 -0.0545
 8480W        W10680   5.939   6.504  19.570  0.0418 -0.0272  0.1360
 8481W        W10681   9.096   1.525   6.086  0.2402 -0.2753  0.0375
 8482W        W10682   2.088   7.490  19.200  0.0652  0.1392 -0.2506
 8483W        W10683  19.386   3.768   9.201  0.0081  0.1669 -0.1344
 8484W        W10684   4.921   6.096   5.890 -0.0618 -0.2021 -0.1114
 8485W        W10685  17.183   2.685  10.217 -0.1201 -0.0792 -0.0404
 8486W        W10686  24.431   4.978  19.304  0.1904 -0.1733 -0.1058
 8487W        W10687  29.044   7.099   8.895 -0.2014  0.1238 -0.0326
 8488W        W10688   2.999   0.835   1.396 -0.1574 -0.1543 -0.1839
 8489W        W10689  26.329   2.712   7.557  0.0427 -0.2936  0.2464
 8490W        W10690   2.410   2.505   5.160  0.2351  0.0409  0.1456
 8491W        W10691  29.834   2.109  16.794  0.2302  0.0578 -0.1040
 8492W        W10692  10.777   3.019  23.716 -0.2366  0.0160 -0.0699
 8493W        W10693   6.725   3.576   9.143 -0.1876  0.1359  0.1674
 8494W        W10694  17.175   1.154  24.020 -0.2027  0.3066 -0.2901
 8495W        W10695  18.212   4.677  16.531  0.0047  0.1107  0.0811
 8496W        W10696   4.208   7.515  20.185 -0.2484 -0.0464  0.0535
 8497W        W10697  31.163   6.326   4.640 -0.3638 -0.1665  0.1890
 8498W        W10698  16.650   6.180  23.321  0.0216  0.0681  0.0673
 8499W        W10699  26.953   6.899  16.882  0.0828  0.3635 -0.1488
 8500W        W10700   5.322   5.653  14.629  0.0451  0.2857  0.1112
 8501W        W10701   5.555   6.541   9.888  0.0066  0.3551 -0.1223
 8502W        W10702  10.859   2.325  17.001  0.2496  0.2240 -0.1002
 8503W        W10703  19.874   6.838   2.182  0.0996  0.0258  0.0625
 8504W        W10704   5.235   1.592   2.063 -0.0260  0.1889 -0.1948
 8505W        W10705  19.770   6.847  22.643 -0.0619  0.3055  0.2336
 8506W        W10706  23.758   1.997   4.422 -0.1395 -0.1049 -0.2019
 8507W        W10707  23.260   6.228   4.659  0.0501  0.2191 -0.0807
 8508W        W10708  15.387   6.776   2.059  0.0210  0.1180  0.1540
 8509W        W10709   7.069   2.222   6.130 -0.0617 -0.2596  0.1060
 8510W        W10710  10.017   7.148   8.308  0.0563  0.2721  0.1496
 8511W        W10711  17.814   7.388   0.572 -0.0396 -0.1199 -0.0089
 8512W        W10712  24.691   3.757  16.981  0.0729  0.0480  0.1397
 8513W        W10713  15.821   0.183   1.846 -0.2130  0.0718  0.0621
 8514W        W10714   7.793   2.050  10.609 -0.0169  0.1732 -0.1163
 8515W        W10715  30.849   1.974  24.984  0.3304  0.0267  0.4333
 8516W        W10716   4.632   5.929  18.912  0.1976 -0.1103  0.1566
 8517W        W10717   7.398   5.369   3.057  0.3328  0.2228  0.1110
 8518W        W10718  26.213   3.631  23.315  0.0325  0.0065 -0.2144
 8519W        W10719  30.841   7.342   1.198 -0.1141 -0.0787 -0.0747
 8520W        W10720  17.107   7.323   9.567 -0.1215  0.0230 -0.2410
 8521W        W10721   4.760   3.963  16.065 -0.1041 -0.1101 -0.0884
 8522W        W10722   1.660   0.535  18.394  0.4231 -0.2082  0.2157
 8523W        W10723   7.756   6.966   7.303 -0.2145 -0.1701  0.2062
 8524W        W10724  17.488   2.525   5.515  0.1013  0.0336  0.0473
 8525W        W10725  10.160   3.393  10.044  0.0848 -0.1297 -0.2117
 8526W        W10726  24.060   0.556  15.336  0.0625  0.1152  0.3300
 8527W        W10727   4.335   7.714   4.236  0.0663  0.0965  0.2937
 8528W        W10728  22.302   4.797  25.996  0.0359 -0.0536 -0.1092
 8529W        W10729   6.752   3.484  18.449  0.0190 -0.2990  0.0127
 8530W        W10730  31.134   5.471  23.849  0.0198 -0.1888  0.1345
 8531W        W10731   2.787   7.386  17.658 -0.0883  0.0770  0.4212
 8532W        W10732   8.998   1.004   6.147  0.1584  0.0544 -0.1102
 8533W        W10733  23.977   1.570   1.727 -0.2287 -0.1519 -0.4487
 8534W        W10734  26.249   1.864  23.525  0.3798 -0.2661  0.2060
 8535W        W10735   6.646   4.049  22.578 -0.1514 -0.1507  0.2061
 8536W        W10736   3.776   2.654  14.531 -0.2921  0.1094  0.0334
 8537W        W10737  29.682   5.431  23.905  0.0298  0.0839  0.2190
 8538W        W10738   9.037   5.925  24.379  0.3108 -0.0114  0.1937
 8539W        W10739  13.337   1.218  10.962 -0.0808  0.1071 -0.1400
 8540W        W10740   4.010   4.931  24.812 -0.2582 -0.2280  0.0040
 8541W        W10741   1.533   7.772   9.667 -0.1897 -0.0807  0.0391
 8542W        W10742   7.044   0.696   3.498 -0.1602 -0.0064 -0.0678
 8543W        W10743  11.507   7.435   8.580 -0.2204  0.1585 -0.1634
 8544W        W10744  21.274   2.670  23.429 -0.1671 -0.0512  0.2989
 8545W        W10745   7.878   6.280  24.122 -0.0271 -0.3192 -0.1670
 8546W        W10746   2.612   6.372   7.196 -0.4835  0.2529  0.3447
 8547W        W10747  26.374   3.907  20.359  0.2400  0.0841 -0.1860
 8548W        W10748   1.300   1.582   6.927 -0.2695  0.1112  0.1822
 8549W        W10749   5.509   5.550  24.065 -0.1960  0.0190 -0.0281
 8550W        W10750   9.852   3.763   1.268 -0.1838 -0.2865 -0.0870
 8551W        W10751  15.481   2.599  25.172 -0.0935 -0.1564 -0.2164
 8552W        W10752  31.418   1.510   6.058 -0.1468 -0.1020  0.0697
 8553W        W10753  29.460   1.895  22.167 -0.2184  0.1877 -0.2278
 8554W        W10754  24.978   0.124  20.838 -0.1186  0.3530  0.1696
 8555W        W10755  30.589   0.300   9.978 -0.2770  0.0849  0.1043
 8556W        W10756  12.463   3.665  10.842  0.0030  0.0180  0.2013
 8557W        W10757   0.162   2.926  19.923 -0.3023  0.0533 -0.1817
 8558W        W10758  28.013   2.637   9.562  0.3279 -0.0404  0.1674
 8559W        W10759   8.967   6.572  19.674  0.2962 -0.3989  0.2319
 8560W        W10760  28.477   0.739   6.533  0.0986 -0.0314 -0.2555
 8561W        W10761  18.187   4.448  10.120  0.1293 -0.1122 -0.1439
 8562W        W10762   3.388   7.403  19.502 -0.0040  0.0017 -0.1344
 8563W        W10763  18.884   0.946  24.746 -0.0062 -0.2606  0.0392
 8564W        W10764  15.659   0.864   0.078 -0.0808  0.0965 -0.4051
 8565W        W10765   8.973   5.840   4.456  0.1994 -0.2465 -0.1091
 8566W        W10766  24.045   5.771   6.781 -0.1222 -0.0161  0.0325
 8567W        W10767   1.488   6.491  15.949  0.0134 -0.1220  0.0756
 8568W        W10768  24.693   2.866   8.561  0.2552  0.1439 -0.1500
 8569W        W10769  16.940   2.707  20.691 -0.2463 -0.4335  0.2162
 8570W        W10770   5.619   7.598   3.266  0.0999 -0.2737  0.3222
 8571W        W10771  31.122   0.636  23.846  0.1014 -0.0875  0.0101
 8572W        W10772   3.266   7.444  22.007  0.1814 -0.0438  0.0475
 8573W        W10773  30.805   4.111   5.502  0.1145  0.0342 -0.2120
 8574W        W10774  30.917   2.296   9.358  0.0755  0.1337  0.2225
 8575W        W10775  19.841   0.353   7.582  0.0363 -0.1228  0.4716
 8576W        W10776  24.560   6.080  25.454  0.2193 -0.0259  0.1373
 8577W        W10777  23.668   5.272  25.319  0.2621 -0.0646 -0.1050
 8578W        W10778  27.003   7.743  16.394 -0.0716 -0.1917 -0.0289
 8579W        W10779  28.775   2.489  17.838  0.1202 -0.1254 -0.0785
 8580W        W10780   9.388   0.869   8.741 -0.2741  0.4236 -0.0945
 8581W        W10781  23.504   1.396   1.670  0.0628 -0.0606  0.0854
 8582W        W10782  13.480   5.474  17.239 -0.2499 -0.3184  0.0128
 8583W        W10783   4.865   3.844   6.996  0.0379  0.0846  0.1522
 8584W        W10784  23.308   4.920   6.530  0.3913 -0.1453 -0.3088
 8585W        W10785  25.807   1.886   8.709 -0.3561 -0.1662  0.3158
 8586W        W10786  22.753   2.433   3.617 -0.1121  0.0861 -0.2387
 8587W        W10787  28.250   0.388   8.925  0.3547 -0.1952  0.1613
 8588W        W10788   7.572   1.468   7.798  0.2187  0.1368 -0.0462
 8589W        W10789  18.526   3.498  26.030 -0.1765  0.0969  0.1515
 8590W        W10790   8.442   5.538  10.654 -0.2101 -0.2277 -0.1949
 8591W        W10791  11.018   3.413  16.249  0.1020  0.1008  0.3189
 8592W        W10792   8.228   3.886   7.496  0.1461 -0.1801  0.1564
 8593W        W10793  30.460   4.979   4.993 -0.1032  0.3278 -0.1245
 8594W        W10794  14.030   6.286   6.029 -0.2159 -0.1373  0.1551
 8595W        W10795   6.362   1.489  10.337 -0.1445 -0.0676 -0.1685
 8596W        W10796  15.091   0.427  20.983 -0.0644  0.1882  0.0832
 8597W        W10797  24.514   0.647  22.514 -0.2483  0.0936  0.0019
 8598W        W10798  13.292   0.825   1.337 -0.0459  0.1216 -0.1684
 8599W        W10799  22.698   1.518  19.737  0.0932  0.2324  0.2544
 8600W        W10800   4.697   1.227  16.188 -0.0928  0.2095 -0.3111
 8601W        W10801  14.113   0.130   9.620  0.0246  0.2629 -0.0280
 8602W        W10802  20.376   5.631  25.398 -0.0061  0.0364  0.1215
 8603W        W10803  14.937   5.212  18.025 -0.2208 -0.0929  0.0337
 8604W        W10804   3.315   2.659   7.615 -0.0107  0.0447  0.0678
 8605W        W10805  24.742   4.859  20.156 -0.4306  0.1088  0.1163
 8606W        W10806  24.740   7.230   1.701  0.4053 -0.1231  0.1885
 8607W        W10807  10.126   6.198   2.165  0.0841 -0.0382 -0.0946
 8608W        W10808  10.264   0.714  23.494 -0.1158 -0.1959 -0.0800
 8609W        W10809  27.329   2.500  24.014  0.1005 -0.1629  0.1146
 8610W        W10810  22.353   3.626  20.999 -0.0675 -0.0551  0.0170
 8611W        W10811   7.083   2.608   5.770  0.1405 -0.2704 -0.1525
 8612W        W10812   7.576   4.240   2.242  0.2757 -0.1456 -0.1502
 8613W        W10813   5.320   6.389  25.953 -0.0036 -0.0214  0.0350
 8614W        W10814   1.379   1.390   0.372  0.1517 -0.1990 -0.1253
 8615W        W10815  15.676   3.754   4.884  0.0730 -0.0570 -0.0953
 8616W        W10816  13.660   6.162  19.888 -0.1002  0.2705 -0.0363
 8617W        W10817   6.484   1.634  15.314  0.0159  0.0660 -0.0935
 8618W        W10818  26.643   7.827   8.031  0.1320 -0.0100 -0.0664
 8619W        W10819   3.191   4.861  23.161  0.2160  0.1364  0.0912
 8620W        W10820  25.871   3.506   0.504 -0.0773  0.2672 -0.0987
 8621W        W10821  17.190   0.394  17.139  0.0633 -0.2655  0.2597
 8622W        W10822  17.883   1.830  10.902  0.0147 -0.1035 -0.1567
 8623W        W10823   1.308   1.206  10.572 -0.1017 -0.2456 -0.1129
 8624W        W10824   5.858   4.060  18.427  0.0396  0.0853 -0.2259
 8625W        W10825  12.495   2.557   9.493 -0.0274  0.1703 -0.0931
 8626W        W10826   3.620   4.967   8.284 -0.0485 -0.1825  0.2369
 8627W        W10827  24.332   3.420   1.555 -0.0118 -0.0258 -0.0154
 8628W        W10828  13.790   1.684  24.470  0.0348  0.0685 -0.2658
 8629W        W10829   6.781   0.694   1.448  0.0802 -0.0028  0.1307
 8630W        W10830  24.067   6.203  16.476 -0.0261 -0.0562 -0.2728
 8631W        W10831  15.608   2.147  19.620  0.2547  0.1616  0.2066
 8632W        W10832   3.620   0.250   1.150 -0.1587 -0.2753 -0.0166
 8633W        W10833  28.230   0.533  24.264 -0.3110  0.0030  0.1965
 8634W        W10834  17.341   7.417  10.847  0.2227 -0.3414 -0.0356
 8635W        W10835  18.073   6.865   1.206 -0.1328 -0.1867 -0.0547
 8636W        W10836  11.296   5.479  20.592 -0.2550  0.1575  0.0131
 8637W        W10837  12.604   7.200  15.468 -0.2030  0.1775 -0.0632
 8638W        W10838  11.865   7.145  24.065 -0.2485  0.2014  0.0988
 8639W        W10839   1.229   7.783  17.830  0.0181  0.0312 -0.2973
 8640W        W10840  17.836   4.598  23.096 -0.1399 -0.0923 -0.3631
 8641W        W10841  15.968   2.924   9.649  0.1955 -0.1315 -0.1963
 8642W        W10842  12.759   2.214  22.068  0.1783 -0.0551 -0.2010
 8643W        W10843  11.307   2.276   0.679  0.1570  0.0981 -0.1247
 8644W        W10844  17.651   5.360   8.877  0.2162 -0.1332 -0.0174
 8645W        W10845   1.615   6.428  17.318  0.0168  0.1162 -0.1613
 8646W        W10846  22.216   7.647  15.880  0.1772  0.0685 -0.2262
 8647W        W10847  24.003   2.315  22.930 -0.0725 -0.1511 -0.0801
 8648W        W10848  19.328   4.826   3.892  0.1127  0.2531  0.2357
 8649W        W10849   2.070   2.134   3.073  0.1131  0.0056  0.2641
 8650W        W10850  15.707   0.503  19.363  0.0064 -0.0900 -0.2014
 8651W        W10851  31.327   7.764  21.004 -0.0664  0.0378 -0.1616
 8652W        W10852  19.158   4.525   8.675  0.2213  0.2962  0.0823
 8653W        W10853  30.237   3.867   5.522  0.0708  0.2226  0.2146
 8654W        W10854  15.291   2.217  19.031 -0.2199  0.2543 -0.0627
 8655W        W10855  20.333   1.173   8.406  0.1429  0.2346  0.2532
 8656W        W10856  15.998   3.205   8.663 -0.0268 -0.1889 -0.1047
 8657W        W10857   6.394   0.565   4.835  0.0962  0.0106  0.1404
 8658W        W10858   7.898   7.218   2.360  0.0122  0.0047  0.0347
 8659W        W10859  26.664   4.766   4.206 -0.1428  0.1782 -0.0081
 8660W        W10860  21.382   6.014   6.755  0.1069 -0.2073 -0.2323
 8661W        W10861  26.580   7.179  24.979 -0.0928  0.2812 -0.2927
 8662W        W10862  18.554   5.519  11.061 -0.1128  0.0749  0.1916
 8663W        W10863  24.447   1.640   7.735  0.2541  0.1761 -0.3538
 8664W        W10864   9.325   5.635  18.645  0.1769  0.0366  0.4054
 8665W        W10865   4.954   2.883   0.019 -0.0055 -0.0951  0.0505
 8666W        W10866  28.998   7.793  24.838  0.2952  0.2097  0.0426
 8667W        W10867  22.934   1.325   1.734  0.1650 -0.2188  0.1116
 8668W        W10868  28.848   7.855   7.613  0.1809  0.0195  0.1666
 8669W        W10869  12.256   2.437   3.089 -0.0820  0.2518 -0.0149
 8670W        W10870  11.879   7.393   6.946  0.0179  0.2532 -0.1670
 8671W        W10871  17.995   5.680  25.224  0.1700  0.0069 -0.0920
 8672W        W10872  25.091   5.032  21.986  0.2108  0.1492 -0.2647
 8673W        W10873   0.108   4.164  18.807 -0.1602  0.0820  0.2916
 8674W        W10874   3.573   0.539   9.755  0.0371 -0.3359 -0.0019
 8675W        W10875  30.160   2.588  21.894  0.0624  0.1661 -0.3079
 8676W        W10876   1.033   1.221   3.521  0.0485  0.0759  0.0667
 8677W        W10877   6.083   6.811  17.368  0.0608  0.2529 -0.2711
 8678W        W10878  20.980   2.240   6.809 -0.1190 -0.0198 -0.0687
 8679W        W10879  15.903   3.694   3.334  0.1708 -0.1447  0.1082
 8680W        W10880  21.275   3.181  22.873  0.0152  0.1690 -0.1278
 8681W        W10881  10.305   7.675  17.373  0.3062 -0.2549 -0.1017
 8682W        W10882  12.422   3.201  10.589 -0.1340 -0.1567  0.0090
 8683W        W10883   7.861   5.911  21.778 -0.0353  0.1433 -0.0680
 8684W        W10884  23.689   1.683  21.681  0.0198  0.2439  0.0793
 8685W        W10885  12.741   5.430  17.886  0.1579  0.2893  0.0755
 8686W        W10886   0.588   2.536  15.443  0.3340 -0.2658  0.1210
 8687W        W10887  22.425   2.398  22.910  0.2227 -0.1119  0.1446
 8688W        W10888  25.525   0.299  26.041 -0.0749  0.1803 -0.0764
 8689W        W10889  11.526   7.690   5.603  0.2981  0.2458 -0.0705
 8690W        W10890   1.892   5.777  18.849  0.3585  0.3590 -0.0474
 8691W        W10891  30.760   7.498  19.317 -0.0030  0.2949 -0.1356
 8692W        W10892   8.817   7.200   4.871 -0.2477  0.1673  0.0064
 8693W        W10893  18.613   4.206  11.179 -0.0678 -0.2402 -0.2549
 8694W        W10894  12.145   0.775  26.027 -0.2627 -0.2320  0.1753
 8695W        W10895  10.242   2.111  15.772 -0.1645 -0.0664  0.3174
 8696W        W10896  28.411   5.655  22.254  0.2893  0.2158 -0.0112
 8697W        W10897  22.464   1.447   0.893  0.1372  0.2160 -0.0569
 8698W        W10898   6.182   0.123   9.472  0.1475  0.0368  0.1264
 8699W        W10899   2.122   2.590  18.091  0.0612  0.3464 -0.1271
 8700W        W10900  30.212   4.596  10.416  0.0704 -0.0229 -0.2885
 8701W        W10901  18.780   6.825  24.721  0.0899 -0.1622  0.2669
 8702W        W10902  22.059   6.763  17.775 -0.2508 -0.0487 -0.1768
 8703W        W10903  27.519   1.634   3.868  0.2957 -0.1589  0.0151
 8704W        W10904  15.684   2.184  16.531  0.0953  0.0229 -0.0598
 8705W        W10905  16.233   6.402  23.085  0.0588 -0.0121  0.1701
 8706W        W10906  17.609   1.558  23.317 -0.1672 -0.0613  0.3326
 8707W        W10907  26.189   1.342  24.454  0.0901 -0.0470  0.0859
 8708W        W10908   4.900   7.633   4.445  0.0159 -0.1793 -0.0304
 8709W        W10909  21.881   0.910  10.442  0.1623 -0.1542  0.0634
 8710W        W10910  13.507   3.048  26.026  0.1821 -0.0092 -0.1396
 8711W        W10911  26.896   3.036   7.917 -0.1544  0.0841 -0.1742
 8712W        W10912  12.539   7.299  17.554 -0.2651  0.0295 -0.0103
 8713W        W10913  25.279   6.081  24.267 -0.1190  0.0048 -0.1997
 8714W        W10914  23.119   4.815   2.514  0.1408  0.0994  0.0707
 8715W        W10915  29.943   7.277  18.474 -0.3073 -0.2177  0.4687
 8716W        W10916  21.285   5.865   2.501 -0.3046 -0.0139 -0.1869
 8717W        W10917  28.379   1.844  22.238 -0.0559  0.4394 -0.1387
 8718W        W10918  22.922   2.954  20.992  0.0987 -0.1052 -0.1306
 8719W        W10919  27.892   7.042  23.725  0.2093  0.2286  0.0194
 8720W        W10920   2.522   3.404  10.448 -0.3301 -0.1438 -0.1346
 8721W        W10921  26.550   6.044  21.611 -0.1335  0.1509  0.1326
 8722W        W10922  18.549   7.532   3.117 -0.1270 -0.4111  0.0466
 8723W        W10923   6.493   5.676   9.742  0.0713 -0.0350  0.0364
 8724W        W10924  27.504   7.790  25.908  0.0108  0.0696 -0.0300
 8725W        W10925   6.766   6.653  20.118 -0.1333  0.0107  0.0368
 8726W        W10926   7.459   6.122  18.948  0.0982  0.4488 -0.1944
 8727W        W10927  25.985   6.900   2.818  0.1596  0.1110 -0.0420
 8728W        W10928  13.788   2.684  16.612  0.1661  0.0204 -0.1206
 8729W        W10929  25.244   0.527  20.649 -0.1731  0.1110 -0.2397
 8730W        W10930  31.220   3.246  19.685  0.0900  0.1020 -0.2069
 8731W        W10931   6.969   5.278   4.730  0.0420 -0.1091 -0.2220
 8732W        W10932  21.636   2.564  18.147  0.2016 -0.0294 -0.1622
 8733W        W10933  17.727   6.598   8.609 -0.1220 -0.2780  0.0629
 8734W        W10934  31.310   7.780  15.651 -0.1935  0.0762  0.1391
 8735W        W10935  19.792   2.544  20.629  0.1854  0.1412 -0.0369
 8736W        W10936   2.170   3.754  21.866  0.1500 -0.1857 -0.0458
 8737W        W10937  28.573   1.404  15.186 -0.1752 -0.0665  0.2072
 8738W        W10938  24.024   4.395  20.425 -0.0951  0.0741 -0.3129
 8739W        W10939   1.659   7.754   8.192 -0.1822  0.1091  0.0756
 8740W        W10940  26.683   7.292  21.151 -0.2212 -0.2192  0.1554
 8741W        W10941  29.858   6.033   6.762  0.0895  0.1223 -0.0076
 8742W        W10942   5.970   2.427   7.926  0.0014 -0.2180 -0.0091
 8743W        W10943  20.358   7.627  10.834 -0.0417  0.0403  0.0522
 8744W        W10944  18.102   5.830   8.774 -0.4405  0.0483  0.0511
 8745W        W10945  13.436   4.422  18.291  0.0640 -0.1510  0.2108
 8746W        W10946   0.977   0.636   9.738  0.0878 -0.1578  0.0041
 8747W        W10947  25.080   5.285  25.697 -0.1326 -0.2081  0.0723
 8748W        W10948  24.578   2.128   1.611 -0.1639  0.0356  0.0353
 8749W        W10949  26.388   0.326  25.949  0.1104 -0.3053 -0.1545
 8750W        W10950   2.188   1.900  18.839  0.0563  0.0618  0.2184
 8751W        W10951  20.122   2.260   8.828  0.2621 -0.0576 -0.0168
 8752W        W10952  21.203   2.076  15.630 -0.1375 -0.0502  0.1728
 8753W        W10953  26.256   2.826  10.827 -0.0342 -0.0041  0.0738
 8754W        W10954   8.692   5.394  25.939 -0.1528  0.0912  0.2693
 8755W        W10955   6.937   5.775   4.580 -0.3370 -0.1492  0.1603
 8756W        W10956  27.104   2.825   5.801  0.1938  0.0326 -0.0524
 8757W        W10957  21.325   7.683   1.210 -0.0746  0.1248  0.0049
 8758W        W10958  22.750   2.560  23.663 -0.0279  0.1111  0.1693
 8759W        W10959  14.099   3.979   6.134 -0.2779  0.0980 -0.0657
 8760W        W10960   0.466   3.087   1.233 -0.0324 -0.0087  0.1454
 8761W        W10961  13.024   0.387  23.991  0.0239  0.0058  0.0545
 8762W        W10962  23.488   4.442   3.837 -0.1289 -0.2609 -0.1153
 8763W        W10963  24.552   2.990  21.910  0.2147  0.3858 -0.3563
 8764W        W10964  15.072   6.007  16.075 -0.0840  0.1505 -0.2461
 8765W        W10965  18.985   7.210   1.063 -0.2150 -0.1083 -0.2124
 8766W        W10966  16.043   4.241   8.387 -0.0650 -0.0702  0.1780
 8767W        W10967   3.194   0.451   6.058  0.4908 -0.0004 -0.0293
 8768W        W10968  18.233   2.201   3.443 -0.1539 -0.0752  0.0061
 8769W        W10969  24.905   7.335  22.280 -0.1972 -0.0048  0.1686
 8770W        W10970  30.692   4.345  10.464  0.0725  0.1478  0.1995
 8771W        W10971  20.625   5.439  23.528  0.2676 -0.0266  0.1083
 8772W        W10972   2.548   7.187   9.032  0.0620  0.4918 -0.1171
 8773W        W10973  21.943   0.712   3.110  0.0697  0.4519 -0.0828
 8774W        W10974  10.588   4.155  10.231  0.2545  0.0805 -0.1062
 8775W        W10975  16.475   5.340  18.819  0.3103 -0.1679  0.1700
 8776W        W10976   3.074   4.251   5.231 -0.0514 -0.0263  0.2534
 8777W        W10977  11.559   3.097  19.193  0.1334 -0.1537  0.1473
 8778W        W10978  24.434   6.436   9.885 -0.2285 -0.2908 -0.1212
 8779W        W10979  19.413   5.829  17.301  0.0921 -0.1917  0.1853
 8780W        W10980   0.347   5.127   5.164  0.2673  0.0846 -0.1182
 8781W        W10981   9.744   4.563   9.189  0.1340 -0.0727  0.0388
 8782W        W10982  23.966   3.026   7.602  0.2085 -0.0703 -0.0159
 8783W        W10983  18.695   3.048   6.956 -0.0863 -0.0401  0.0608
 8784W        W10984  24.864   7.487  23.485 -0.1654  0.2857  0.1919
 8785W        W10985   2.205   5.585  24.629  0.0891  0.0167  0.2835
 8786W        W10986  12.143   3.213   2.408  0.1059  0.2258  0.1572
 8787W        W10987  18.226   0.925  22.514 -0.1482 -0.1175 -0.2930
 8788W        W10988  23.938   1.038  17.379 -0.1535  0.1282 -0.4828
 8789W        W10989   1.982   5.014  20.113 -0.2355 -0.1745  0.2637
 8790W        W10990  13.130   0.797  23.211  0.0818 -0.0108  0.3262
 8791W        W10991   8.555   7.723  17.066 -0.1945  0.1390  0.1326
 8792W        W10992  15.649   5.232   3.697  0.0318  0.2331 -0.0253
 8793W        W10993  13.505   1.312   6.436  0.2895  0.0862 -0.1446
 8794W        W10994  17.403   6.047   0.369  0.0611 -0.2259  0.0518
 8795W        W10995  22.415   1.388  19.157 -0.2523  0.1395  0.0731
 8796W        W10996  15.111   2.631  24.390 -0.0074  0.3697  0.0230
 8797W        W10997  19.519   4.064   8.232 -0.0649  0.2322 -0.0550
 8798W        W10998  17.361   3.950   9.886 -0.0684 -0.2082  0.1376
 8799W        W10999  16.726   2.972   7.471  0.1684  0.1091 -0.1025
 8800W        W11000   2.940   1.165  22.448 -0.2308 -0.2052 -0.0817
 8801W        W11001  26.235   4.600   5.482  0.0927 -0.0192  0.1091
 8802W        W11002  11.609   2.757  17.542  0.1695  0.0908 -0.0637
 8803W        W11003  13.172   2.385   7.950 -0.1890  0.2260  0.1040
 8804W        W11004  30.435   5.195  17.843 -0.1936  0.4477  0.0829
 8805W        W11005  20.234   0.612  10.778  0.3046 -0.4145 -0.1261
 8806W        W11006  13.682   1.075  25.491  0.1751 -0.3090 -0.2165
 8807W        W11007  15.480   7.765  22.251  0.0244 -0.2336 -0.3365
 8808W        W11008  28.363   3.829   4.047 -0.0500  0.0914 -0.1445
 8809W        W11009  12.428   4.581  10.111  0.2791  0.1806 -0.1900
 8810W        W11010   6.685   1.939  22.738  0.0615  0.2054  0.1485
 8811W        W11011  27.690   2.887  19.197 -0.1082  0.1083 -0.2158
 8812W        W11012  28.525   5.730   9.863  0.2899  0.1844  0.0904
 8813W        W11013   9.230   4.418  23.618 -0.1413  0.2932  0.2916
 8814W        W11014  27.469   6.027  10.580 -0.3242 -0.0264  0.0206
 8815W        W11015   4.622   0.858   9.130 -0.0876  0.3220 -0.2676
 8816W        W11016  15.353   5.906   2.074 -0.0890 -0.2715  0.1337
 8817W        W11017  27.527   2.910  17.237  0.0455  0.1139  0.1181
 8818W        W11018  26.849   2.221  24.273 -0.0649  0.0276  0.1400
 8819W        W11019  18.536   1.424   1.000 -0.0172 -0.2086 -0.0152
 8820W        W11020  18.457   5.489   3.816 -0.0605  0.3567 -0.0041
 8821W        W11021  10.716   5.801   1.654  0.4062 -0.2816 -0.0237
 8822W        W11022  23.607   2.526  21.654 -0.1251  0.3667  0.1139
 8823W        W11023  25.207   6.642  18.802  0.1717 -0.3075 -0.1330
 8824W        W11024   6.108   0.999   1.109  0.0305 -0.1431  0.3202
 8825W        W11025   3.094   4.019  24.532  0.0607 -0.0583 -0.1894
 8826W        W11026   1.625   0.698   9.470  0.0823 -0.3917  0.0851
 8827W        W11027  25.971   1.042  16.255 -0.2997 -0.2584  0.2225
 8828W        W11028  21.737   3.475  10.345 -0.0091 -0.3625 -0.0170
 8829W        W11029   1.473   4.513   9.212  0.2300 -0.0116  0.0481
 8830W        W11030  31.049   5.155  10.319 -0.1894  0.1824 -0.0629
 8831W        W11031   4.269   4.321   4.675 -0.1695 -0.1334 -0.1680
 8832W        W11032  14.171   0.616  10.013 -0.1989  0.3058 -0.0936
 8833W        W11033   8.761   3.319  16.190 -0.3186  0.0700 -0.2822
 8834W        W11034   1.012   6.521  18.919 -0.2346 -0.2955  0.0183
 8835W        W11035  28.282   6.644  17.441  0.1316 -0.1341 -0.3369
 8836W        W11036  21.580   3.661  17.934 -0.0123  0.1580  0.1712
 8837W        W11037  11.236   2.326   9.793  0.1943  0.0919 -0.1889
 8838W        W11038  22.164   7.822  25.668  0.1345 -0.2050 -0.1704
 8839W        W11039  23.065   6.757  20.069 -0.1614 -0.1914 -0.0434
 8840W        W11040  11.050   4.186  16.655  0.5078 -0.0431 -0.0885
 8841W        W11041   4.914   3.373   2.292 -0.2070 -0.3790 -0.0984
 8842W        W11042   7.859   3.075  21.316 -0.2247  0.1088  0.0651
 8843W        W11043   3.501   6.190   0.516 -0.0716 -0.1113 -0.0392
 8844W        W11044  19.255   3.554  23.049  0.0079  0.1377  0.0529
 8845W        W11045  16.150   6.276  19.312 -0.1175 -0.2612 -0.1481
 8846W        W11046  25.096   5.418  25.050  0.0744 -0.0941 -0.1135
 8847W        W11047  25.395   0.269  18.299 -0.0290  0.1105  0.1087
 8848W        W11048  13.258   1.704   3.811  0.0048 -0.0258 -0.1415
 8849W        W11049   8.548   0.111  21.417 -0.0350 -0.1614 -0.1259
 8850W        W11050  30.949   1.414  24.321  0.0266  0.1742  0.2658
 8851W        W11051   0.429   4.399  24.109 -0.4468  0.2878 -0.2353
 8852W        W11052  10.136   0.010  25.905 -0.1749  0.0226 -0.2601
 8853W        W11053   3.260   0.133  10.167  0.0539 -0.2567 -0.3136
 8854W        W11054  10.014   1.422   4.438  0.1963  0.2459  0.1037
 8855W        W11055  23.333   5.724  10.019 -0.1686  0.1900 -0.3041
 8856W        W11056   8.689   6.090  21.239  0.0256 -0.0168  0.0074
 8857W        W11057   5.540   5.863   8.990  0.0451 -0.3815  0.0314
 8858W        W11058  31.112   0.391  20.223  0.1679  0.1662 -0.2489
 8859W        W11059   7.158   1.905  20.107 -0.2259 -0.0670 -0.1360
 8860W        W11060   0.035   4.731  23.817 -0.1542 -0.2130 -0.0179
 8861W        W11061  17.703   3.829   6.903  0.0435  0.0401 -0.1269
 8862W        W11062  19.924   4.638  21.984  0.1547  0.2896 -0.1144
 8863W        W11063  20.820   4.485  18.710 -0.4031  0.2002  0.3002
 8864W        W11064  10.835   0.428  15.589  0.0061 -0.1549  0.0840
 8865W        W11065  26.207   3.068   9.401  0.0038 -0.0257 -0.0102
 8866W        W11066  20.721   1.369   3.833 -0.3174 -0.1010 -0.2362
 8867W        W11067  12.388   4.315   4.103  0.3121  0.2298 -0.1387
 8868W        W11068  20.599   1.536  25.907 -0.3246 -0.1922 -0.0691
 8869W        W11069   7.942   1.765  25.691  0.0816  0.1526 -0.0658
 8870W        W11070   6.953   4.863  19.639  0.0689 -0.1053 -0.2922
 8871W        W11071  22.739   4.027   4.088 -0.1626 -0.0836  0.0287
 8872W        W11072  21.772   3.092   8.496 -0.3396 -0.0451  0.3773
 8873W        W11073  11.399   6.297   9.737 -0.0637 -0.3082  0.0780
 8874W        W11074   3.015   3.375  25.256  0.1894  0.1458 -0.0069
 8875W        W11075  27.477   7.818  17.126  0.2026  0.1520 -0.3296
 8876W        W11076  10.004   1.259   5.300  0.1330 -0.1071  0.0636
 8877W        W11077  25.908   7.849   2.596 -0.2953 -0.1682  0.1472
 8878W        W11078   7.912   3.370  19.451  0.0107 -0.1741  0.0852
 8879W        W11079  23.478   5.504  20.499  0.0527  0.1655  0.0695
 8880W        W11080  25.398   4.444  24.636  0.2365  0.2732  0.1580
 8881W        W11081  10.188   6.904   9.716  0.1591 -0.1680  0.3034
 8882W        W11082  12.288   4.786  25.164 -0.1006  0.3332  0.2239
 8883W        W11083   6.657   6.163  20.873  0.0031  0.0231 -0.0244
 8884W        W11084  16.814   6.152   9.587  0.1532 -0.0286 -0.1545
 8885W        W11085  25.819   3.636   1.222 -0.0171  0.1361  0.1933
 8886W        W11086   6.758   7.481  21.191  0.3894 -0.0553  0.0917
 8887W        W11087   9.859   6.658   9.029 -0.2103 -0.3013  0.0295
 8888W        W11088  11.462   5.028   0.822 -0.0570 -0.0322  0.3064
 8889W        W11089  28.648   1.437   7.353 -0.0911  0.1105  0.1130
 8890W        W11090  10.026   0.864  25.681 -0.0465  0.0234  0.1900
 8891W        W11091  27.994   3.494   5.996 -0.1766 -0.1961 -0.1553
 8892W        W11092  26.218   3.644   3.327 -0.0308  0.3028  0.0464
 8893W        W11093  19.167   2.320   9.854  0.0936 -0.0541 -0.1679
 8894W        W11094   2.482   6.572   4.725  0.2448 -0.1270 -0.5640
 8895W        W11095  31.212   4.764  16.960 -0.0594  0.1029  0.0780
 8896W        W11096  16.024   1.756  24.066  0.0110 -0.0727 -0.1575
 8897W        W11097   2.668   3.083   8.734 -0.2971 -0.0363 -0.2612
 8898W        W11098  19.066   3.780  23.456 -0.0819 -0.1604  0.0887
 8899W        W11099   5.325   3.766  17.456  0.1385 -0.0816 -0.1555
 8900W        W11100  23.362   3.221   4.592 -0.1276  0.1238 -0.0633
 8901W        W11101  19.062   2.001   1.896 -0.0531 -0.0965  0.0463
 8902W        W11102  17.532   7.411  20.811  0.1600 -0.0694  0.3360
 8903W        W11103  24.455   4.605   8.367  0.1905 -0.1356 -0.0891
 8904W        W11104  24.680   4.688  16.297 -0.1030 -0.0413 -0.3033
 8905W        W11105   9.659   7.622  25.601  0.4487  0.0184  0.1537
 8906W        W11106  21.167   0.701  15.338 -0.2972  0.1994 -0.0436
 8907W        W11107  21.643   3.902  16.520 -0.0479 -0.1201 -0.1124
 8908W        W11108  14.249   0.247  25.246  0.1580 -0.1600  0.0662
 8909W        W11109  13.036   2.907   4.611 -0.1199 -0.1653  0.0382
 8910W        W11110  11.438   0.231  21.626 -0.0012  0.1301  0.1177
 8911W        W11111  16.781   3.649   3.381  0.1428 -0.0152 -0.1542
 8912W        W11112  30.294   6.454   0.879  0.1698  0.1575  0.2025
 8913W        W11113  29.229   1.199  19.604  0.2709 -0.1943  0.2572
 8914W        W11114  30.215   1.731   7.873 -0.1367  0.2139 -0.0198
 8915W        W11115  17.083   5.389  11.187 -0.0268 -0.3324 -0.0822
 8916W        W11116  13.540   4.061  25.153 -0.0365 -0.0595 -0.2853
 8917W        W11117  13.292   2.550   1.145 -0.1315 -0.0576  0.2076
 8918W        W11118   2.731   2.398   5.771 -0.1401  0.2445 -0.3195
 8919W        W11119  21.560   0.452   7.392 -0.0264 -0.0877 -0.1012
 8920W        W11120  11.085   0.946  19.810 -0.1651 -0.0291 -0.1215
 8921W        W11121  24.484   3.067  10.492 -0.1357 -0.1964  0.2022
 8922W        W11122  27.212   5.665  22.806 -0.0725  0.0580 -0.1557
 8923W        W11123  18.294   7.135  22.294  0.1021 -0.1140  0.0822
 8924W        W11124  29.698   6.288  10.199 -0.0667  0.4182  0.0672
 8925W        W11125  25.054   2.775  26.079 -0.1182  0.3558 -0.1324
 8926W        W11126  20.078   6.194  25.834 -0.2366 -0.2940  0.2643
 8927W        W11127  23.614   5.000  16.861 -0.1142 -0.2134 -0.3861
 8928W        W11128  23.452   5.269   6.892 -0.0630  0.1331 -0.0597
 8929W        W11129  28.774   0.243   1.208  0.1546 -0.1103  0.0692
 8930W        W11130  22.732   4.039   0.338 -0.0824 -0.0619  0.0689
 8931W        W11131  28.066   5.847  15.335  0.1692 -0.2308  0.0838
 8932W        W11132  25.883   3.354  19.866 -0.2921 -0.1082 -0.1782
 8933W        W11133   5.423   6.868  19.439  0.0583 -0.1989  0.1367
 8934W        W11134  20.637   3.581   6.282  0.2858 -0.2568  0.0317
 8935W        W11135  10.303   3.672   8.467 -0.1978 -0.2474  0.0164
 8936W        W11136  13.576   7.241   7.379  0.1162  0.0278 -0.3258
 8937W        W11137  26.832   7.557  25.600 -0.0576  0.0910 -0.5530
 8938W        W11138  24.268   0.598  22.072  0.2598  0.0527 -0.2102
 8939W        W11139  28.714   1.624  24.766  0.1147 -0.2533 -0.1040
 8940W        W11140   1.980   2.298   6.820 -0.4087 -0.1175 -0.1993
 8941W        W11141   9.801   2.867  15.272  0.0544  0.1283 -0.0974
 8942W        W11142  18.116   2.497  20.854  0.4507 -0.3056 -0.0028
 8943W        W11143   5.156   3.032  17.770  0.2950  0.1536  0.0665
 8944W        W11144  30.914   0.005  22.905 -0.0639 -0.1700  0.2248
 8945W        W11145   2.332   3.917  16.816  0.3273  0.0331  0.0311
 8946W        W11146  15.988   6.754  24.405 -0.0436  0.2751 -0.0626
 8947W        W11147   6.725   7.604  25.129  0.3029 -0.0998  0.1742
 8948W        W11148   9.694   7.231  25.139  0.0457 -0.0082  0.1179
 8949W        W11149  26.049   5.888  22.845  0.1846 -0.1627 -0.0015
 8950W        W11150  10.026   6.948  23.548 -0.0380 -0.2845 -0.1517
 8951W        W11151   5.619   3.848   1.837 -0.2186 -0.0441 -0.2564
 8952W        W11152   0.012   2.430  19.976  0.0654 -0.1512 -0.1088
 8953W        W11153  29.970   4.547  19.798 -0.0139  0.1099 -0.0834
 8954W        W11154  30.842   6.144  22.234  0.1802  0.0675  0.2653
 8955W        W11155  29.881   1.589   1.588 -0.1752 -0.0357  0.0405
 8956W        W11156  13.618   7.742   0.428 -0.2874 -0.0319 -0.1608
 8957W        W11157  31.125   1.287  17.790 -0.0915  0.0291  0.0832
 8958W        W11158   3.482   2.258   9.253 -0.1411  0.2256 -0.1014
 8959W        W11159  14.906   0.568   2.566  0.2237 -0.0221  0.1001
 8960W        W11160   3.619   1.407   5.518  0.0215  0.1107  0.3415
 8961W        W11161  25.348   6.190   8.288  0.4141 -0.1176  0.0547
 8962W        W11162  15.361   5.059   8.172  0.1646  0.0054 -0.0004
 8963W        W11163   3.059   2.029   4.638  0.2261  0.0332 -0.0327
 8964W        W11164  28.937   0.583  19.220 -0.0125 -0.1376  0.3545
 8965W        W11165  20.949   0.799  21.701  0.1202 -0.3816 -0.2598
 8966W        W11166  27.887   1.001   0.699  0.0319 -0.3058  0.1279
 8967W        W11167  17.549   4.938  22.764  0.1788  0.0144 -0.0198
 8968W        W11168  11.697   3.287   5.292 -0.0915  0.0325  0.2647
 8969W        W11169  29.687   5.765   5.823  0.1637 -0.1779 -0.1289
 8970W        W11170  29.530   4.657  19.932 -0.1984  0.1187 -0.2431
 8971W        W11171  25.777   7.665   7.224 -0.1647 -0.0962 -0.0829
 8972W        W11172  18.190   6.177  22.938 -0.1867  0.2278  0.1769
 8973W        W11173  18.344   6.889   3.264 -0.2036  0.3542  0.0254
 8974W        W11174  11.809   5.620  22.355 -0.2887  0.1006 -0.0063
 8975W        W11175   4.868   3.278   3.143  0.1381  0.1720  0.0572
 8976W        W11176   6.290   2.273   8.636 -0.2379 -0.0478 -0.2913
 8977W        W11177  13.652   1.331  21.965 -0.0625 -0.0883 -0.2894
 8978W        W11178  30.358   4.222   5.193  0.1856  0.0672 -0.1445
 8979W        W11179  22.234   6.561  18.214  0.1550 -0.1549 -0.0984
 8980W        W11180   2.587   6.745  18.978 -0.0359 -0.0270 -0.1413
 8981W        W11181   6.393   3.945   7.810 -0.2739  0.0921 -0.0191
 8982W        W11182  26.670   3.642   0.224 -0.0218 -0.1003  0.0401
 8983W        W11183  13.675   1.678  20.228 -0.0788 -0.3317  0.1036
 8984W        W11184  18.587   7.845   2.668 -0.0307 -0.1174 -0.0772
 8985W        W11185  26.152   5.009  21.056  0.0534 -0.1603 -0.0592
 8986W        W11186  17.392   7.309   9.025  0.1780 -0.1177  0.4562
 8987W        W11187   2.661   6.552  17.630 -0.0842 -0.3045 -0.1359
 8988W        W11188   1.955   2.299  19.571 -0.0517 -0.1795  0.0552
 8989W        W11189  11.355   0.767  21.655  0.0613  0.3139 -0.0440
 8990W        W11190  24.217   3.014   8.358  0.1942  0.3283 -0.0105
 8991W        W11191  12.079   1.044  22.736  0.1395  0.0350  0.1180
 8992W        W11192  30.454   0.017  22.155  0.1139  0.2380 -0.4854
 8993W        W11193   5.513   5.570  22.599 -0.1101 -0.2540 -0.2355
 8994W        W11194  30.381   0.068  25.041 -0.2014  0.1035  0.2625
 8995W        W11195  18.973   4.290   5.586  0.0483 -0.3065  0.0267
 8996W        W11196  21.594   4.886   6.210  0.0177 -0.2346 -0.0648
 8997W        W11197  23.959   6.953   4.571  0.0563  0.1169 -0.0151
 8998W        W11198  19.972   2.543   0.464  0.0262 -0.0419 -0.1519
 8999W        W11199  14.737   4.283  10.378  0.1884  0.2477  0.1253
 9000W        W11200  24.441   5.854   5.555 -0.1590 -0.1810  0.2216
 9001W        W11201  24.296   1.171  19.174 -0.0298 -0.0044  0.1404
 9002W        W11202  12.632   4.538   6.091  0.0739 -0.0314 -0.0266
 9003W        W11203   0.034   1.037  21.275  0.1009 -0.0453 -0.0282
 9004W        W11204  29.628   5.825  10.385 -0.1158  0.0267 -0.1612
 9005W        W11205   2.057   2.208   4.958  0.0407  0.0088 -0.1088
 9006W        W11206  31.433   6.179  21.035 -0.1048 -0.1529  0.0533
 9007W        W11207  21.647   2.127  18.390  0.1135  0.3708  0.0662
 9008W        W11208  25.154   6.957   1.004 -0.3788 -0.1023 -0.0459
 9009W        W11209   6.811   7.783  16.562  0.0626  0.1314 -0.0562
 9010W        W11210  29.765   6.372  23.416  0.0588 -0.1777 -0.1275
 9011W        W11211  22.563   5.037  16.470  0.0794  0.0327 -0.0545
 9012W        W11212   8.650   5.096  19.252 -0.3032  0.0107  0.3829
 9013W        W11213   9.055   0.722  20.835  0.1054  0.0967  0.0442
 9014W        W11214  14.327   2.488   9.375 -0.3027  0.2238  0.2123
 9015W        W11215  28.642   1.463   1.727 -0.0593  0.1077  0.2936
 9016W        W11216  14.706   1.946   3.809 -0.0680 -0.1215  0.1112
 9017W        W11217   4.957   2.373  21.684  0.0366  0.1545 -0.2030
 9018W        W11218  27.427   1.986   9.285  0.1245  0.0531  0.0102
 9019W        W11219   5.174   6.642   4.708 -0.2844  0.0045 -0.1174
 9020W        W11220   9.636   2.778   0.761 -0.1489 -0.0865  0.2916
 9021W        W11221  19.389   7.079  17.887  0.0536  0.1454  0.0928
 9022W        W11222  21.970   1.890  21.845  0.1339 -0.1110 -0.1939
 9023W        W11223   5.319   2.860  23.887 -0.0008 -0.3261  0.2417
 9024W        W11224   3.639   2.535   5.539  0.2034 -0.0626  0.2811
 9025W        W11225  22.507   1.436   1.906  0.3695  0.1063 -0.1218
 9026W        W11226  10.947   5.635   4.529 -0.0209 -0.1629  0.1686
 9027W        W11227  24.038   2.092   7.031  0.2514  0.2368 -0.0323
 9028W        W11228   1.664   5.461  21.039 -0.0397 -0.1278  0.4797
 9029W        W11229  10.290   1.475  22.855 -0.0292 -0.2234 -0.1704
 9030W        W11230  13.746   3.427  19.229 -0.0865 -0.2218 -0.4579
 9031W        W11231   3.385   5.880   0.890 -0.2636  0.2612  0.1245
 9032W        W11232  15.484   1.236  10.262 -0.0416 -0.1618  0.4943
 9033W        W11233   0.061   1.534  23.981 -0.1052  0.0081  0.0553
 9034W        W11234  23.457   3.525   4.199 -0.1180 -0.2963 -0.1169
 9035W        W11235   9.518   6.338  15.898 -0.0938  0.2030 -0.1485
 9036W        W11236   1.171   0.176   6.148 -0.2102  0.1444  0.1924
 9037W        W11237  10.914   4.444  19.693 -0.0117 -0.3868  0.1160
 9038W        W11238  15.862   7.559  22.561  0.0557  0.1623  0.0396
 9039W        W11239  16.983   5.755   6.744  0.1009 -0.0835 -0.0210
 9040W        W11240  26.518   0.288  19.214  0.1040  0.2568 -0.1761
 9041W        W11241  18.312   4.802  25.245 -0.1112  0.1680  0.1244
 9042W        W11242   7.814   5.596  20.887 -0.0745  0.3382  0.2047
 9043W        W11243  26.364   7.688  25.779  0.1856 -0.2608  0.1547
 9044W        W11244  24.413   4.910   5.968 -0.1063 -0.1822 -0.1247
 9045W        W11245  23.633   4.298  15.848  0.3112 -0.3768 -0.1100
 9046W        W11246  23.790   7.837   2.521 -0.0872  0.2553 -0.3717
 9047W        W11247  17.894   1.849  18.728  0.1799 -0.1877 -0.1923
 9048W        W11248  27.503   4.483   1.321  0.1424  0.1126  0.1698
 9049W        W11249  16.677   5.818  25.317 -0.0754  0.1177  0.2149
 9050W        W11250  19.880   5.878  19.170 -0.0392 -0.2850 -0.0401
 9051W        W11251   5.488   3.813  21.415 -0.0309 -0.1048 -0.3375
 9052W        W11252   9.572   5.932  25.125  0.2963 -0.1191  0.2454
 9053W        W11253  10.867   3.104  19.282  0.0622  0.0097  0.0990
 9054W        W11254  17.806   6.735  17.037 -0.3286 -0.3010  0.1887
 9055W        W11255  23.467   4.924  16.027 -0.0951 -0.0157  0.1565
 9056W        W11256  24.865   0.499   7.070 -0.1360 -0.0782 -0.3167
 9057W        W11257  12.202   3.148  15.069 -0.0606 -0.4390  0.2397
 9058W        W11258  27.563   5.560  20.506 -0.0670  0.2784  0.1207
 9059W        W11259   1.001   4.351   5.327  0.2160 -0.3271  0.4336
 9060W        W11260   9.576   4.492  19.961 -0.2259  0.1301  0.1754
 9061W        W11261  14.961   1.700  10.974  0.3463  0.0491  0.1517
 9062W        W11262  21.224   5.872  21.235  0.1973  0.2589 -0.1280
 9063W        W11263  15.519   6.567   4.163  0.0149 -0.1616 -0.0682
 9064W        W11264  24.740   0.936  23.556  0.1191  0.0472 -0.1791
 9065W        W11265   7.935   4.650  23.895  0.1131 -0.0520 -0.0858
 9066W        W11266  24.649   5.442  24.759 -0.1645 -0.0708  0.0204
 9067W        W11267  24.764   0.497   4.826 -0.0108  0.2408  0.1453
 9068W        W11268   9.029   1.032  22.143  0.2384  0.1881  0.0541
 9069W        W11269  29.424   2.784  10.325 -0.1552  0.0532  0.0934
 9070W        W11270  26.712   4.219   1.300  0.0771 -0.3234  0.0465
 9071W        W11271   5.283   1.960   0.133  0.1913 -0.1454 -0.3378
 9072W        W11272   4.523   0.746   3.149  0.0096  0.0411 -0.4321
 9073W        W11273  15.005   5.530  24.531 -0.1720 -0.0348  0.2838
 9074W        W11274  17.424   0.706   1.409  0.0403 -0.1208  0.0582
 9075W        W11275  14.912   7.128  18.319  0.1678  0.0284 -0.0199
 9076W        W11276   7.060   0.469  25.627  0.1994 -0.1726 -0.2938
 9077W        W11277  12.638   1.161  18.987 -0.2088 -0.2193 -0.1549
 9078W        W11278   3.614   0.596  19.957  0.3023 -0.0326 -0.1973
 9079W        W11279   1.380   0.981   0.949 -0.1231 -0.2503  0.1085
 9080W        W11280  15.595   3.015   2.138  0.2552 -0.0204  0.0458
 9081W        W11281  13.348   2.665  15.218 -0.1065 -0.2415 -0.0103
 9082W        W11282  18.443   1.296  19.902 -0.0962 -0.0039 -0.0607
 9083W        W11283  21.953   7.041  10.513  0.2179  0.0390  0.0490
 9084W        W11284  23.503   6.722  18.311  0.1411 -0.1605 -0.1448
 9085W        W11285   0.593   7.638   3.216  0.0321 -0.2828  0.0534
 9086W        W11286   4.111   4.816  23.422  0.0597 -0.0679  0.2203
 9087W        W11287  28.398   7.845  18.623  0.1168 -0.0020  0.0607
 9088W        W11288   4.441   4.119  22.064 -0.0220  0.1509  0.2768
 9089W        W11289   9.477   1.227  24.852 -0.1696 -0.0336 -0.1655
 9090W        W11290   8.495   4.603  24.155  0.1677 -0.2054  0.0031
 9091W        W11291  14.740   5.569  17.083 -0.2003  0.3392  0.0828
 9092W        W11292  30.232   4.978  17.428 -0.1745 -0.2581 -0.0935
 9093W        W11293  13.136   6.749   7.921 -0.3427  0.0239 -0.0485
 9094W        W11294  26.900   0.423  21.423  0.1561  0.0153 -0.4245
 9095W        W11295  22.819   1.373   3.574 -0.2147 -0.2462  0.2134
 9096W        W11296  23.172   5.603   5.474 -0.3767  0.0296  0.1092
 9097W        W11297  28.741   1.682  15.593  0.0425  0.1464 -0.1488
 9098W        W11298   2.791   4.671   6.618 -0.0496 -0.1572  0.1313
 9099W        W11299  27.746   3.580   4.941  0.0192 -0.1478 -0.2576
 9100W        W11300   6.582   0.103   7.224  0.0046  0.0857 -0.0064
 9101W        W11301  29.839   5.871   9.961  0.2712  0.2161  0.1827
 9102W        W11302   0.450   2.021  18.715 -0.1593 -0.0285 -0.0429
 9103W        W11303  22.534   0.913  20.464 -0.0676 -0.0140 -0.1746
 9104W        W11304   1.825   5.125  15.898 -0.3749  0.0747 -0.1718
 9105W        W11305   7.279   7.273  16.308  0.2127 -0.1353 -0.0077
 9106W        W11306  14.955   5.185   6.726  0.0871 -0.0200 -0.2224
 9107W        W11307  26.992   5.520   5.297  0.1133 -0.1386  0.3033
 9108W        W11308  16.338   6.063  25.098 -0.0147  0.1864  0.1080
 9109W        W11309  31.341   0.202   0.576 -0.0767  0.1238  0.0730
 9110W        W11310   4.283   3.195  21.649 -0.1304 -0.1327  0.1669
 9111W        W11311   5.671   6.709  20.773  0.0055  0.0772  0.2682
 9112W        W11312   1.945   7.665   4.091 -0.1066 -0.3513 -0.0771
 9113W        W11313  11.202   5.272  15.713 -0.2287  0.1534 -0.2112
 9114W        W11314  18.348   0.844  20.288  0.0565  0.1027 -0.0672
 9115W        W11315   2.226   6.529  23.748  0.0022 -0.2243 -0.1225
 9116W        W11316  28.175   6.960  20.383  0.1163  0.0730  0.0327
 9117W        W11317  25.186   4.238   8.849 -0.1875  0.1018 -0.0376
 9118W        W11318   9.170   2.566   2.932  0.2446  0.2530  0.0033
 9119W        W11319  26.392   4.399   0.916 -0.0035 -0.0897 -0.0765
 9120W        W11320  13.205   6.778   3.157 -0.2046 -0.1042  0.0285
 9121W        W11321   7.529   6.402  25.981  0.1104 -0.1583 -0.3132
 9122W        W11322  14.076   7.489  16.368  0.0383 -0.1379  0.0915
 9123W        W11323  24.970   5.764  15.651 -0.0359  0.1184  0.1904
 9124W        W11324  13.640   5.986   9.165  0.0745  0.0742 -0.2967
 9125W        W11325  24.661   4.266   7.600  0.2447  0.0061  0.1070
 9126W        W11326  17.994   3.518  16.669 -0.2430  0.0754  0.1464
 9127W        W11327   1.830   3.060   2.648  0.1316 -0.1184 -0.3330
 9128W        W11328   1.588   3.206   3.749  0.1661  0.0008 -0.1270
 9129W        W11329  23.865   0.040  15.586 -0.0373  0.0771  0.2105
 9130W        W11330  23.725   4.714  16.452  0.0486 -0.0046 -0.3267
 9131W        W11331  29.779   4.311  15.943 -0.0504 -0.2025 -0.0442
 9132W        W11332  15.401   7.349   3.142 -0.2484  0.2418  0.3387
 9133W        W11333   5.428   0.244   1.772  0.1461 -0.2132  0.1712
 9134W        W11334  12.946   6.633  11.111  0.0963 -0.1047  0.3640
 9135W        W11335  23.084   0.498  25.286 -0.0147 -0.0437  0.2557
 9136W        W11336  14.814   3.787  21.412 -0.2291  0.0168 -0.0153
 9137W        W11337  23.141   6.691  22.124 -0.4024 -0.0547  0.2471
 9138W        W11338  14.280   3.790   8.993 -0.1685 -0.1269 -0.0421
 9139W        W11339   3.499   1.342   3.475 -0.2162  0.1369  0.0847
 9140W        W11340  12.716   1.285  22.042  0.0908  0.2080 -0.0123
 9141W        W11341   0.264   4.521  22.358  0.0338 -0.1292  0.0286
 9142W        W11342  17.474   1.047  16.714 -0.1611 -0.1034  0.1368
 9143W        W11343   6.806   7.426   3.461 -0.1972 -0.0429  0.0395
 9144W        W11344   0.058   3.205   7.728  0.2162  0.1647  0.0104
 9145W        W11345   8.319   7.071   4.765  0.1029 -0.1417  0.2941
 9146W        W11346  17.271   5.454   4.539 -0.0881 -0.0344  0.2283
 9147W        W11347  17.733   4.270   4.150 -0.1045 -0.0116 -0.4582
 9148W        W11348  14.703   7.492  23.677  0.3330 -0.0436 -0.3168
 9149W        W11349  21.344   2.801  24.274 -0.3444 -0.0807  0.1673
 9150W        W11350  15.189   2.818  15.901 -0.1392  0.0921 -0.1586
 9151W        W11351  26.364   0.584  22.595 -0.0814  0.1056 -0.1978
 9152W        W11352   3.399   3.624  20.603  0.2048  0.0747  0.2893
 9153W        W11353  28.081   2.943   3.042 -0.1357 -0.0470  0.2478
 9154W        W11354  21.892   0.303  25.383 -0.2441  0.1306  0.0375
 9155W        W11355  17.751   3.214  22.544  0.0433  0.0176  0.0502
 9156W        W11356  19.569   5.962  18.795  0.1924  0.0711 -0.2012
 9157W        W11357  25.979   4.776   1.663 -0.1649 -0.1889  0.1392
 9158W        W11358   1.861   5.073   6.229  0.1708 -0.0441  0.0935
 9159W        W11359   7.813   3.633   5.417 -0.2216 -0.0265  0.0193
 9160W        W11360  23.124   2.705   4.039  0.0975  0.0099 -0.0664
 9161W        W11361  21.543   1.077  19.116  0.1147 -0.1029 -0.4377
 9162W        W11362  20.251   6.036   6.326  0.0413  0.2403  0.0734
 9163W        W11363   5.538   6.264  25.507  0.0678 -0.0496  0.0329
 9164W        W11364  27.235   6.373   6.947  0.2229 -0.1345  0.0220
 9165W        W11365  25.874   5.453  22.016  0.3602  0.1224  0.1502
 9166W        W11366  17.115   3.493   9.828  0.1684  0.0644  0.3525
 9167W        W11367  11.147   0.633  16.432  0.0887 -0.0185  0.0932
 9168W        W11368  21.562   4.910  22.209  0.1814  0.0198 -0.0720
 9169W        W11369  15.509   2.025  16.117 -0.0682  0.3194 -0.1627
 9170W        W11370   3.303   1.473   8.644 -0.0566 -0.2402 -0.1737
 9171W        W11371  30.973   3.524   4.886  0.1052 -0.0511  0.3435
 9172W        W11372   1.033   4.249  15.068 -0.3698 -0.0090  0.1978
 9173W        W11373  30.963   4.129   2.873  0.0783 -0.0427 -0.2300
 9174W        W11374  31.319   5.656   4.151 -0.1876 -0.1152  0.2244
 9175W        W11375  16.121   7.678   4.542  0.0326  0.2632  0.1633
 9176W        W11376   8.070   6.716   4.029  0.0163 -0.1204 -0.1937
 9177W        W11377   7.966   4.829   5.104  0.0693  0.1114 -0.0063
 9178W        W11378  20.412   1.518  16.585  0.0265  0.1655  0.0891
 9179W        W11379   8.717   0.347  16.759  0.1289 -0.0429  0.0090
 9180W        W11380   8.403   1.746  17.645  0.4616 -0.1394  0.2178
 9181W        W11381  14.961   7.003   1.255  0.0582 -0.2771 -0.1329
 9182W        W11382  11.523   0.862   0.770  0.1100  0.0539  0.3852
 9183W        W11383   1.681   7.698  19.359  0.5075 -0.0435  0.2046
 9184W        W11384  31.215   1.087  24.022  0.0341 -0.0655 -0.0044
 9185W        W11385  19.569   4.112   0.226 -0.0544  0.1862  0.1632
 9186W        W11386  20.729   7.309   6.026  0.1081 -0.0071  0.1092
 9187W        W11387  19.168   5.520  22.760  0.1950  0.1950  0.0166
 9188W        W11388  21.669   4.847   7.220  0.0075  0.3947 -0.0066
 9189W        W11389  11.451   2.923   3.115 -0.2153  0.0490  0.2812
 9190W        W11390  22.340   1.069  23.106 -0.0729 -0.2128  0.1949
 9191W        W11391   0.296   6.746   9.925 -0.1780  0.0769 -0.0842
 9192W        W11392  23.585   7.021  18.735  0.0227  0.1784 -0.0222
 9193W        W11393  27.223   0.373  15.190  0.0412  0.1267 -0.1284
 9194W        W11394  30.496   5.727   6.111  0.0597 -0.0831  0.1650
 9195W        W11395  30.450   2.276   2.436 -0.2778  0.2435 -0.1671
 9196W        W11396  14.253   6.995   8.492  0.2223  0.1100  0.0378
 9197W        W11397  11.032   4.645   1.631 -0.0531  0.0268 -0.3127
 9198W        W11398  13.239   4.594   0.921 -0.0282  0.0817  0.0547
 9199W        W11399  21.871   3.614  20.144 -0.0157  0.0954 -0.2162
 9200W        W11400  16.320   5.316  10.154  0.1136  0.1012  0.4374
 9201W        W11401  11.489   1.242  20.656  0.1371 -0.3522 -0.2777
 9202W        W11402  10.094   5.520   4.157  0.2854 -0.1685  0.1217
 9203W        W11403  28.016   5.426   2.224  0.1837 -0.1875  0.0031
 9204W        W11404   0.444   4.185   3.419  0.2616  0.0554 -0.1138
 9205W        W11405  17.368   6.429   8.995 -0.0765 -0.3275 -0.1692
 9206W        W11406  15.498   3.384  21.299  0.1183 -0.0715  0.3104
 9207W        W11407   0.558   0.087   0.545 -0.1490 -0.0431 -0.0493
 9208W        W11408  13.105   5.861   4.296  0.2510 -0.1483  0.3587
 9209W        W11409  17.841   3.921   4.557 -0.3875 -0.0537  0.1070
 9210W        W11410  27.205   7.610   8.271  0.1953  0.1458  0.2930
 9211W        W11411   1.948   1.384  20.584 -0.3248  0.1241 -0.1815
 9212W        W11412  25.429   5.292  21.812 -0.4678  0.1628 -0.0555
 9213W        W11413   8.376   1.965   4.818  0.0264  0.2757 -0.2170
 9214W        W11414  12.143   4.944   8.404 -0.1407 -0.2866  0.1828
 9215W        W11415   7.009   1.097   0.149 -0.1395 -0.0152  0.0353
 9216W        W11416  10.900   4.527   1.086 -0.1648 -0.1364  0.2059
 9217W        W11417  30.115   1.405   2.196 -0.1970 -0.1045 -0.0379
 9218W        W11418   3.994   5.248  23.132 -0.1395  0.1422  0.3713
 9219W        W11419  18.975   7.156  20.949 -0.0789  0.0391 -0.0487
 9220W        W11420  20.906   1.565   9.081  0.2429  0.1377  0.2684
 9221W        W11421  24.733   6.461  25.110  0.0033  0.2744  0.1334
 9222W        W11422  26.517   6.678  24.781 -0.1459 -0.1219 -0.3620
 9223W        W11423   1.770   1.099  10.464  0.2698  0.6205 -0.0421
 9224W        W11424  11.396   1.066   3.475  0.0182 -0.0933  0.0240
 9225W        W11425  20.398   3.942   7.755 -0.0652  0.0869  0.0959
 9226W        W11426  10.678   6.613   9.520 -0.0178 -0.0248 -0.1505
 9227W        W11427  27.837   0.787   1.978  0.3275 -0.0431  0.3717
 9228W        W11428  15.054   6.213   3.143 -0.0223  0.0869 -0.3315
 9229W        W11429   3.423   5.886  18.330  0.1387 -0.1742  0.1835
 9230W        W11430  21.912   3.811   2.009 -0.2348  0.1973  0.3328
 9231W        W11431  13.369   4.051  21.955  0.2140 -0.2864  0.3390
 9232W        W11432   8.812   5.476   0.357 -0.1010  0.0124  0.2774
 9233W        W11433  30.874   1.648  19.900  0.2141 -0.1249 -0.2144
 9234W        W11434   9.593   3.407   4.975 -0.4249 -0.2588 -0.1154
 9235W        W11435  14.137   0.808   4.884  0.1333  0.0278  0.2951
 9236W        W11436  10.641   4.773   4.178 -0.3010  0.4176 -0.0889
 9237W        W11437  10.784   4.987  15.564  0.3682 -0.4176 -0.2313
 9238W        W11438  24.113   7.676  22.159  0.0543  0.0968 -0.0355
 9239W        W11439  12.953   3.149   8.952 -0.0801  0.3404  0.0306
 9240W        W11440  17.222   7.703  21.090  0.2146  0.1569  0.0454
 9241W        W11441  25.870   1.171  22.170  0.1500  0.1257 -0.3320
 9242W        W11442   5.707   0.194   5.813  0.0112 -0.1616 -0.2222
 9243W        W11443  11.912   6.483   0.074  0.5509 -0.0799  0.2275
 9244W        W11444  18.972   6.564   3.805  0.0654 -0.0327 -0.3232
 9245W        W11445  14.146   7.284  11.596  0.2899 -0.2131  0.1651
 9246W        W11446  14.771   6.908   9.733 -0.1247 -0.1786  0.1232
 9247W        W11447  25.850   3.708  17.763  0.0170 -0.1082  0.2486
 9248W        W11448  16.132   3.797   1.650 -0.1568 -0.2106  0.2046
 9249W        W11449  28.500   6.954  10.049 -0.3561  0.0001  0.1323
 9250W        W11450  18.739   1.937   8.219 -0.1136 -0.2179  0.3076
 9251W        W11451   3.179   3.989  17.082 -0.1974 -0.3417  0.2839
 9252W        W11452   6.632   0.256   6.256 -0.0815  0.0707  0.1354
 9253W        W11453  10.433   4.017  22.191  0.0233  0.1555 -0.2771
 9254W        W11454  24.943   6.887   3.543 -0.1027  0.0879 -0.0747
 9255W        W11455  29.516   1.961  16.158 -0.0467 -0.0018 -0.0866
 9256W        W11456  24.217   6.146  19.838 -0.1878 -0.2757  0.1262
 9257W        W11457  30.420   1.282  15.931 -0.0931  0.0870 -0.2461
 9258W        W11458  10.299   7.124  19.344  0.0163  0.0709 -0.1139
 9259W        W11459  31.201   3.068   3.916 -0.1719  0.0082  0.1926
 9260W        W11460   6.037   4.430  18.746  0.0306 -0.0476 -0.1403
 9261W        W11461  23.343   7.026  23.889 -0.1181 -0.1631  0.0124
 9262W        W11462   1.043   1.409  22.426 -0.0578  0.0490 -0.1316
 9263W        W11463  13.942   4.827  25.427 -0.2848 -0.0286  0.0764
 9264W        W11464  11.010   0.356  11.453  0.1246 -0.0377 -0.3014
 9265W        W11465  13.197   0.302   4.270  0.0659 -0.1861 -0.0388
 9266W        W11466  31.128   4.643   0.514 -0.1121 -0.0610  0.2888
 9267W        W11467  16.273   5.762  18.546  0.2498 -0.3044 -0.0804
 9268W        W11468   3.406   0.740   1.033  0.0230 -0.0068  0.0423
 9269W        W11469  12.134   2.738   9.161 -0.0291  0.1761 -0.4028
 9270W        W11470  29.377   2.292   7.773 -0.2627  0.0381  0.0741
 9271W        W11471  26.559   0.784  24.398 -0.0728 -0.2945  0.3504
 9272W        W11472  15.908   1.905  17.083 -0.0763 -0.1605 -0.1710
 9273W        W11473  24.329   0.753  18.724 -0.3715 -0.0093 -0.3202
 9274W        W11474  28.186   2.352  15.969 -0.3011 -0.4422 -0.1474
 9275W        W11475   0.775   0.931  22.164 -0.1326  0.1883 -0.1353
 9276W        W11476  26.386   7.702  21.144  0.0992 -0.1218 -0.1304
 9277W        W11477  23.694   6.425   7.335  0.1267  0.0072 -0.0863
 9278W        W11478  28.492   0.734   4.213 -0.0156  0.0259 -0.0294
 9279W        W11479   4.135   1.206   1.525 -0.0699 -0.0382 -0.4750
 9280W        W11480  20.635   6.753   7.683  0.1930  0.3730 -0.2502
 9281W        W11481   7.090   1.826  18.654  0.2063  0.0915  0.2487
 9282W        W11482  23.838   3.167  16.132  0.1383  0.1968  0.0114
 9283W        W11483  22.655   3.942  21.968 -0.1867 -0.0877 -0.0053
 9284W        W11484   5.871   3.587  16.178 -0.1236  0.2383 -0.0454
 9285W        W11485  29.018   7.123  19.788 -0.0498  0.2906  0.0971
 9286W        W11486  13.685   7.780   1.376  0.0258 -0.0439  0.0676
 9287W        W11487   7.596   6.339   8.030  0.0613 -0.2602  0.0926
 9288W        W11488  15.474   7.812   3.943  0.2152  0.1019 -0.2229
 9289W        W11489  17.194   7.632   1.739  0.0073  0.1318  0.1585
 9290W        W11490  19.689   1.955  15.105 -0.1440  0.0138  0.0985
 9291W        W11491  20.788   1.396  15.056  0.1798  0.2189  0.1667
 9292W        W11492  28.197   0.480  15.391 -0.2187  0.1244  0.0331
 9293W        W11493  22.215   4.046  16.984  0.0761  0.2159 -0.1413
 9294W        W11494   6.820   7.756  19.226 -0.0721 -0.0734  0.1987
 9295W        W11495   5.292   0.357   8.578 -0.0704 -0.1244 -0.0854
 9296W        W11496  22.551   4.907   4.929 -0.2826 -0.1220 -0.1114
 9297W        W11497   8.285   4.340  21.673  0.2324  0.1436  0.0832
 9298W        W11498   0.043   2.933  15.279 -0.0766 -0.0933 -0.3162
 9299W        W11499  26.730   3.878  20.072  0.3316  0.0959 -0.2608
 9300W        W11500   3.100   6.505   6.386  0.2609 -0.0802 -0.2515
 9301W        W11501  10.937   2.656  19.705  0.2841 -0.1671  0.0788
 9302W        W11502  20.422   3.689   4.260  0.2007  0.1971 -0.0023
 9303W        W11503   3.864   3.873  21.839 -0.1613  0.3912 -0.0150
 9304W        W11504  15.417   2.186  24.021 -0.3756 -0.1856 -0.4593
 9305W        W11505   8.794   2.655   7.024  0.0959 -0.1780  0.2076
 9306W        W11506  13.940   6.157  10.005  0.0137  0.0888 -0.1335
 9307W        W11507  28.305   2.820  16.246 -0.1139  0.1090 -0.1131
 9308W        W11508  26.468   6.000  23.695  0.1440  0.3327 -0.0324
 9309W        W11509  27.887   0.777  18.559 -0.1164 -0.1832  0.0356
 9310W        W11510  18.958   0.387  19.851 -0.0875 -0.0446 -0.1834
 9311W        W11511  22.589   1.468  24.609  0.4709 -0.3961  0.2144
 9312W        W11512  12.999   1.042   6.252  0.1374  0.1188 -0.0308
 9313W        W11513  11.008   0.021  18.354 -0.2852  0.0596 -0.1971
 9314W        W11514   1.191   5.494   2.805 -0.1267 -0.0519 -0.1124
 9315W        W11515  29.552   3.741  17.826 -0.0104 -0.1853  0.1130
 9316W        W11516   4.121   2.267  22.235  0.0746 -0.1631  0.0706
 9317W        W11517   2.617   5.106   9.177 -0.0842  0.0212 -0.1623
 9318W        W11518   3.450   6.236  15.492  0.2482  0.0184 -0.3319
 9319W        W11519  20.061   4.883  19.422  0.1367 -0.1362 -0.1597
 9320W        W11520  18.312   6.342   1.920  0.0896  0.0047 -0.1713
 9321W        W11521  29.967   6.213  17.760 -0.1212 -0.0050  0.0318
 9322W        W11522   5.975   2.170   4.902 -0.0915  0.0969  0.0246
 9323W        W11523  13.792   1.705  16.453 -0.0531  0.1166  0.2838
 9324W        W11524  12.830   0.301  25.489 -0.0267  0.0475 -0.1082
 9325W        W11525   9.516   0.603  20.095 -0.0624  0.0035 -0.1799
 9326W        W11526  25.496   7.074   8.242 -0.0952  0.0675  0.2513
 9327W        W11527  29.647   6.460   3.231  0.1887 -0.0539 -0.0636
 9328W        W11528  18.267   7.640   3.526  0.2455 -0.2483 -0.2900
 9329W        W11529  27.748   5.071   7.893  0.0426  0.0893 -0.1162
 9330W        W11530   1.366   4.608  21.142  0.2831 -0.0324  0.0111
 9331W        W11531  20.719   3.487   2.708 -0.0645 -0.1035 -0.0177
 9332W        W11532  14.740   5.649   5.938  0.1153 -0.2102 -0.0603
 9333W        W11533   8.737   1.037   8.276 -0.0706 -0.0036  0.1875
 9334W        W11534  22.689   5.733  18.945 -0.2561  0.0510 -0.1642
 9335W        W11535  16.486   3.455   1.847  0.1411 -0.1994 -0.0245
 9336W        W11536  20.253   0.535  21.536  0.3455  0.0668 -0.2322
 9337W        W11537  26.923   7.390   6.111 -0.0501 -0.0914  0.2950
 9338W        W11538   0.272   7.391  22.552 -0.2792  0.0886 -0.0313
 9339W        W11539  29.498   3.337  19.895 -0.0608  0.0543 -0.1374
 9340W        W11540  25.077   0.229   8.412 -0.0212 -0.0709 -0.5414
 9341W        W11541   1.300   0.989   9.816 -0.0389  0.2824 -0.1529
 9342W        W11542  10.272   2.925  17.383 -0.1474 -0.1768 -0.1695
 9343W        W11543  21.806   3.663  22.256 -0.0160 -0.0283 -0.0006
 9344W        W11544  20.023   6.678  21.467 -0.3348  0.0966  0.2692
 9345W        W11545  19.468   2.573  10.212  0.0939  0.0567  0.0201
 9346W        W11546  14.969   1.312   9.227  0.0948 -0.0157  0.3067
 9347W        W11547  31.046   3.169   8.812  0.2380 -0.0152 -0.0841
 9348W        W11548   7.788   0.935  21.463  0.2961 -0.0880  0.2363
 9349W        W11549  30.338   3.404   1.456  0.0258  0.1256 -0.0972
 9350W        W11550  31.236   4.166   8.744 -0.3280  0.4114  0.0289
 9351W        W11551  16.063   5.682  16.803 -0.0918  0.1724 -0.0429
 9352W        W11552   2.103   0.567   6.914 -0.0589  0.0464 -0.2983
 9353W        W11553  21.299   2.984   6.448  0.2488  0.0746  0.1614
 9354W        W11554   1.488   1.874   0.243  0.0759  0.3183  0.1645
 9355W        W11555  18.546   2.842   7.441  0.1009 -0.0349 -0.0696
 9356W        W11556   9.240   5.633   6.223  0.0919 -0.0631 -0.1225
 9357W        W11557  11.436   7.643   1.897 -0.1876  0.3850  0.0606
 9358W        W11558  15.949   5.801   2.210  0.1542 -0.0658 -0.0770
 9359W        W11559  27.683   3.038  18.119  0.1168 -0.0328 -0.0374
 9360W        W11560   8.035   1.667   9.998 -0.0833  0.0188 -0.0054
 9361W        W11561  11.253   6.503  16.223 -0.1151  0.0998  0.0539
 9362W        W11562   9.572   4.571   4.123 -0.3029 -0.3910 -0.1582
 9363W        W11563  12.747   4.667  23.795 -0.0393 -0.0712 -0.0138
 9364W        W11564  20.392   1.351  18.797 -0.1804 -0.0721  0.0849
 9365W        W11565  21.292   2.878  19.318  0.0228  0.1705 -0.0712
 9366W        W11566  11.254   3.709  15.772  0.0636 -0.2534 -0.4838
 9367W        W11567  27.219   3.673   5.252 -0.3427  0.2231 -0.0101
 9368W        W11568  23.187   2.083  17.214  0.4277  0.0671 -0.2058
 9369W        W11569  17.774   0.514  19.122  0.0816  0.1665 -0.1723
 9370W        W11570   5.118   2.916   1.962 -0.1832 -0.0918  0.1719
 9371W        W11571  11.817   2.053  18.079  0.1048 -0.1861  0.0891
 9372W        W11572  13.496   5.382  19.012 -0.2118 -0.2171 -0.0668
 9373W        W11573  24.013   4.579  25.789  0.1183  0.0153  0.2092
 9374W        W11574  10.036   6.758   4.840  0.3473 -0.0276 -0.3172
 9375W        W11575  21.142   3.281   9.019 -0.1606  0.0553  0.1121
 9376W        W11576  10.020   5.404  24.956  0.0799  0.0442  0.1718
 9377W        W11577  25.132   7.243  20.492  0.0312  0.0050  0.0243
 9378W        W11578  27.055   5.268   5.770 -0.0970 -0.0393  0.1043
 9379W        W11579  13.313   1.844   8.545 -0.0237  0.3659 -0.1975
 9380W        W11580  29.903   0.544  16.127 -0.0835  0.3058 -0.1080
 9381W        W11581  10.102   3.737  15.702  0.0331 -0.0549 -0.0713
 9382W        W11582  26.482   7.351  15.741  0.0070 -0.4495  0.2439
 9383W        W11583  22.940   5.818  21.975 -0.0693  0.0646  0.2736
 9384W        W11584   7.768   5.432   0.365  0.0875  0.1798 -0.3311
 9385W        W11585   6.706   7.652   5.974 -0.0342 -0.1023 -0.0637
 9386W        W11586  11.059   6.086   1.914  0.1010 -0.2082  0.0314
 9387W        W11587  29.266   5.116   8.940 -0.2598 -0.0495 -0.3139
 9388W        W11588  26.693   4.558  21.472 -0.1015 -0.3104  0.2354
 9389W        W11589  23.086   5.319   8.546  0.1505  0.0881  0.0493
 9390W        W11590  17.476   4.794   2.198  0.1960 -0.1447  0.2172
 9391W        W11591  21.368   3.300   5.946 -0.0031  0.1316 -0.2727
 9392W        W11592  12.356   0.601  20.632  0.1091  0.2135 -0.0164
 9393W        W11593  28.250   2.739  16.815  0.1598  0.0245 -0.1467
 9394W        W11594  21.410   5.024  16.288  0.2196  0.2007  0.1046
 9395W        W11595   9.970   3.975  17.450 -0.0633  0.4630  0.3061
 9396W        W11596  10.004   6.899   2.304 -0.0502 -0.1350 -0.0893
 9397W        W11597  27.887   7.557   3.627  0.1789 -0.0059 -0.0277
 9398W        W11598  20.560   6.725   9.467 -0.1859  0.0669 -0.0096
 9399W        W11599  29.226   0.588   6.412  0.2151 -0.1803  0.0220
 9400W        W11600  10.614   7.609   2.410 -0.2874  0.0821 -0.1419
 9401W        W11601  23.696   5.361   2.058  0.2831  0.0304  0.1375
 9402W        W11602   1.912   1.396   0.540  0.1377  0.1760  0.1581
 9403W        W11603   6.059   0.832  18.754 -0.0934 -0.3852 -0.0812
 9404W        W11604  20.107   6.506  18.074  0.0398  0.0358 -0.2651
 9405W        W11605   6.602   6.310   1.411 -0.0378 -0.3237  0.1139
 9406W        W11606   6.750   6.626   0.015  0.1616  0.2910  0.0627
 9407W        W11607  20.673   5.354  19.228  0.1839 -0.2012 -0.0651
 9408W        W11608  15.844   1.424  10.624  0.0765  0.0659  0.0990
 9409W        W11609  29.657   2.457   9.624  0.1532  0.1307  0.2138
 9410W        W11610  30.595   7.481   9.440  0.0290 -0.2016 -0.1282
 9411W        W11611   2.463   1.239   6.485 -0.0655  0.1652  0.1810
 9412W        W11612  26.587   4.533  18.937  0.1045  0.1178  0.2665
 9413W        W11613   2.631   5.607  10.167  0.0632 -0.1931 -0.1382
 9414W        W11614  23.369   0.728  24.427 -0.0712  0.4045 -0.0109
 9415W        W11615   2.958   3.037  17.643 -0.2752 -0.0475  0.3299
 9416W        W11616  14.481   6.157   0.173 -0.0881 -0.2991 -0.1475
 9417W        W11617   8.287   4.990  17.645 -0.2840 -0.4180 -0.0266
 9418W        W11618  24.663   5.879  17.125 -0.2361 -0.0731  0.0021
 9419W        W11619  31.374   5.017  24.281  0.0225  0.0911 -0.2477
 9420W        W11620  18.885   7.685  20.033  0.1521  0.0885  0.2445
 9421W        W11621  14.051   7.181   8.967  0.3297  0.0448 -0.1070
 9422W        W11622   6.660   7.829   9.858 -0.2646 -0.0325  0.0327
 9423W        W11623  17.810   3.420  20.014 -0.0358  0.2714 -0.0753
 9424W        W11624  16.990   7.716   6.070 -0.1949 -0.1559  0.0236
 9425W        W11625  15.241   6.200  17.899  0.2671 -0.0656 -0.0355
 9426W        W11626  19.548   6.322  11.265  0.0276  0.2320 -0.1435
 9427W        W11627  11.116   5.173   8.423 -0.0220  0.1030 -0.0848
 9428W        W11628   0.334   0.021  10.810  0.0239 -0.1433  0.0926
 9429W        W11629  10.616   0.354  22.045 -0.0794  0.0701 -0.2473
 9430W        W11630   3.709   3.223   9.842  0.2267 -0.0567  0.1615
 9431W        W11631  22.555   1.439  25.137 -0.0253  0.0976  0.2648
 9432W        W11632  12.014   1.447   4.175  0.0926 -0.0771  0.3686
 9433W        W11633   1.689   4.584   1.402 -0.0146 -0.1477 -0.1792
 9434W        W11634   1.276   5.363   0.986  0.1462 -0.1932  0.0868
 9435W        W11635   5.525   2.908  18.960 -0.1143 -0.1771 -0.2617
 9436W        W11636   2.249   3.049  24.714  0.0087  0.2036 -0.1405
 9437W        W11637  26.969   6.941  24.688 -0.1396  0.1777 -0.0383
 9438W        W11638  29.084   5.868  20.581  0.0394  0.1296  0.0887
 9439W        W11639   3.566   0.673  18.895 -0.2120  0.2395 -0.0752
 9440W        W11640   6.089   5.684   4.611 -0.2347  0.0945 -0.0181
 9441W        W11641   0.781   6.463   8.602 -0.1479 -0.1889  0.0953
 9442W        W11642  22.456   7.426  19.481 -0.0521  0.0851  0.3833
 9443W        W11643  12.704   7.582   8.800 -0.1076  0.0022  0.1151
 9444W        W11644  17.089   0.547   9.467  0.0745 -0.2949  0.1077
 9445W        W11645  18.395   5.361   8.157  0.2206 -0.1255  0.1027
 9446W        W11646  10.754   3.001  23.212 -0.1221  0.1556  0.1262
 9447W        W11647  26.352   5.233  11.613 -0.1229 -0.0256  0.0790
 9448W        W11648  12.959   2.412   4.039 -0.0676 -0.0080 -0.0073
 9449W        W11649  24.861   2.823  17.516 -0.0835  0.2213 -0.2019
 9450W        W11650  30.027   0.812   4.280 -0.3123 -0.0713 -0.1189
 9451W        W11651   1.720   7.717  15.564  0.0641 -0.0800 -0.0167
 9452W        W11652   0.502   3.171  25.489 -0.2057  0.0640 -0.1060
 9453W        W11653   3.004   1.368  15.360 -0.2677 -0.0940  0.1328
 9454W        W11654   5.355   1.374  24.108 -0.3149 -0.0963 -0.0202
 9455W        W11655   7.349   3.490  23.220  0.1163 -0.0794  0.0043
 9456W        W11656   2.813   6.614   5.377  0.0342  0.0725  0.0761
 9457W        W11657  17.857   2.574   3.635 -0.0329  0.0233  0.2119
 9458W        W11658  17.265   3.232  18.804  0.0928  0.0632  0.2627
 9459W        W11659  29.997   3.435   5.063  0.0776  0.1364 -0.0915
 9460W        W11660  28.233   6.182   2.698  0.1514 -0.0324  0.1728
 9461W        W11661  11.433   0.447  16.865 -0.1887  0.1012 -0.0474
 9462W        W11662   3.400   3.634   3.861 -0.0202  0.0178 -0.0336
 9463W        W11663   4.688   3.006   0.638 -0.4189 -0.0813  0.2128
 9464W        W11664  13.321   2.810  23.864 -0.1706  0.1049  0.2304
 9465W        W11665  11.019   3.745  18.870  0.2129 -0.2288 -0.2186
 9466W        W11666  26.151   2.480  20.279  0.2610  0.0719 -0.0580
 9467W        W11667  19.392   5.223  11.140 -0.2605  0.0362 -0.0774
 9468W        W11668  23.000   0.848  24.065 -0.1920 -0.0931 -0.0061
 9469W        W11669   1.356   4.363   6.541  0.0214 -0.0627  0.2482
 9470W        W11670   3.665   5.848  24.911  0.2110  0.0573  0.0214
 9471W        W11671   6.954   5.599  20.805  0.1554 -0.1453 -0.2228
 9472W        W11672  25.125   2.885  23.637 -0.2247  0.0271 -0.2489
 9473W        W11673   5.930   7.052  18.623  0.0189 -0.0149  0.0302
 9474W        W11674  26.310   4.838  23.777  0.0213 -0.4640  0.4786
 9475W        W11675  24.351   1.837   0.622  0.2034 -0.1147 -0.3196
 9476W        W11676  22.305   2.101   7.948 -0.0699  0.3413  0.1405
 9477W        W11677  14.522   6.024   6.319 -0.0797 -0.3210 -0.1675
 9478W        W11678  11.202   2.583   0.014 -0.0841 -0.2563  0.1079
 9479W        W11679   0.830   3.570   9.673  0.0120 -0.0367  0.0495
 9480W        W11680  28.610   5.666  21.673 -0.2177 -0.0668 -0.0741
 9481W        W11681  17.268   2.911  16.604  0.1383 -0.3885  0.0242
 9482W        W11682  19.750   6.363   0.345 -0.4313  0.0570  0.1268
 9483W        W11683  23.435   3.879   2.812 -0.2986 -0.2400  0.0157
 9484W        W11684  12.340   3.640  22.670  0.0040  0.0636 -0.0351
 9485W        W11685   0.675   4.891  16.767 -0.2619  0.1266 -0.4106
 9486W        W11686   9.679   3.730  24.076 -0.1409 -0.0089 -0.0560
 9487W        W11687  11.214   0.093  22.139 -0.4189  0.2545 -0.0578
 9488W        W11688  28.249   3.422  18.965  0.3478  0.3820  0.2818
 9489W        W11689   0.250   2.089   6.551 -0.0677  0.0166  0.1380
 9490W        W11690   5.069   4.044  18.756 -0.1687  0.3382  0.0914
 9491W        W11691  16.696   0.836   3.148  0.0650 -0.1908 -0.0253
 9492W        W11692   1.807   5.007  20.969  0.0279 -0.0948  0.3107
 9493W        W11693  11.642   4.092   9.640  0.0874 -0.0526 -0.0719
 9494W        W11694  12.148   5.372  21.722  0.2617  0.3253  0.2531
 9495W        W11695  19.278   7.559  21.888 -0.2760 -0.2244  0.0287
 9496W        W11696  26.638   5.683  21.976  0.2896 -0.1375 -0.0687
 9497W        W11697  16.896   1.358   4.053 -0.1220  0.0484  0.0678
 9498W        W11698   7.730   6.160  16.551  0.2229 -0.0438  0.1215
 9499W        W11699  14.967   3.833   5.736 -0.4747 -0.0175 -0.0395
 9500W        W11700   6.105   5.456   2.453  0.0590 -0.1814 -0.0985
 9501W        W11701   4.649   2.517  17.324  0.1112 -0.2054 -0.0949
 9502W        W11702   0.703   5.757  19.882 -0.3439 -0.1330  0.1639
 9503W        W11703   9.247   3.448  21.369  0.2012 -0.1182 -0.2859
 9504W        W11704  14.108   5.255   8.773 -0.1811  0.0452 -0.0825
 9505W        W11705  26.718   4.297  20.413  0.1563 -0.1854  0.0045
 9506W        W11706  21.048   4.583   4.438  0.2272 -0.4638 -0.0793
 9507W        W11707   9.560   0.996  17.166  0.3179 -0.2614  0.0162
 9508W        W11708  26.693   2.390   3.319 -0.2348 -0.0870 -0.1130
 9509W        W11709  25.126   5.191  19.465 -0.2927 -0.1016 -0.1216
 9510W        W11710  11.213   1.142   6.204 -0.0974  0.0833 -0.0155
 9511W        W11711  30.307   3.117   7.151 -0.0396 -0.1438  0.2686
 9512W        W11712  30.326   1.383   7.482 -0.1308  0.2542  0.1502
 9513W        W11713  28.642   6.037   5.537  0.1145 -0.0818 -0.0739
 9514W        W11714  15.973   1.493  24.498 -0.0607 -0.0422 -0.0533
 9515W        W11715  17.934   2.887  19.070  0.0890  0.0671  0.0781
 9516W        W11716   0.962   3.339  25.422  0.1165  0.1102  0.3080
 9517W        W11717  30.398   5.343   9.809 -0.3710 -0.0255  0.5427
 9518W        W11718  29.638   4.847  22.660 -0.0822 -0.0463 -0.0879
 9519W        W11719  29.046   5.105  20.002 -0.0377 -0.2044 -0.0244
 9520W        W11720   2.786   3.865  23.098  0.3911 -0.1925  0.2776
 9521W        W11721  27.225   1.806  23.162  0.3156 -0.1537 -0.1966
 9522W        W11722  23.443   0.803  17.305  0.0758 -0.2601  0.3628
 9523W        W11723  15.464   4.401  19.037  0.0705 -0.3688 -0.1211
 9524W        W11724  17.350   2.407  21.863 -0.1538  0.0764  0.0393
 9525W        W11725  10.027   4.491  17.082  0.2160 -0.0108  0.2724
 9526W        W11726   8.890   6.131  19.880  0.1964 -0.2931  0.2351
 9527W        W11727  12.109   3.083   1.506 -0.0752  0.0131  0.0644
 9528W        W11728  28.210   1.045  22.918 -0.0232  0.2049 -0.0695
 9529W        W11729  16.080   3.978  17.893  0.2303  0.2107  0.0901
 9530W        W11730  11.815   4.570   9.536 -0.1588 -0.0639 -0.3003
 9531W        W11731   6.295   4.873  23.592  0.0075  0.0499  0.0302
 9532W        W11732  18.705   6.237  10.757  0.1308 -0.2458  0.0617
 9533W        W11733   5.483   1.214   2.286 -0.0933 -0.1480 -0.0190
 9534W        W11734  26.913   1.849  15.681 -0.2019 -0.3318 -0.2056
 9535W        W11735  12.408   6.620  21.103 -0.1848 -0.6119 -0.0564
 9536W        W11736  15.606   2.574   5.537 -0.0827  0.1176  0.1471
 9537W        W11737  24.002   2.647  25.483  0.2239 -0.1516 -0.1608
 9538W        W11738  17.222   5.529   0.089 -0.0889 -0.0207  0.2991
 9539W        W11739  31.348   5.709  16.836  0.2587 -0.0907  0.1617
 9540W        W11740  24.337   3.278  22.893 -0.0689  0.1910  0.0618
 9541W        W11741   5.890   1.980   1.434 -0.0874  0.0290  0.0770
 9542W        W11742  18.139   7.542  20.459 -0.0566 -0.0005 -0.1055
 9543W        W11743  27.778   4.195  18.419  0.0248  0.1087  0.2135
 9544W        W11744   2.549   3.192  25.063 -0.2496 -0.0038 -0.0208
 9545W        W11745   4.348   6.213  22.168 -0.2102  0.0193 -0.0265
 9546W        W11746  14.642   5.330   2.044 -0.1153  0.0947 -0.0421
 9547W        W11747  15.039   6.347   8.492 -0.1958  0.1113 -0.0380
 9548W        W11748   5.796   3.013  18.514 -0.1626 -0.2181 -0.0576
 9549W        W11749   9.355   7.032  22.183 -0.0860 -0.0239  0.2481
 9550W        W11750   4.543   6.313  24.727 -0.0058  0.1669  0.3472
 9551W        W11751  25.103   0.017  17.261 -0.0900 -0.3002  0.0471
 9552W        W11752  19.618   0.216  16.330  0.0325  0.0942 -0.2590
 9553W        W11753  31.011   2.265   1.042 -0.0746  0.0780 -0.2052
 9554W        W11754  28.934   5.829  22.469 -0.1391 -0.0661  0.3697
 9555W        W11755  16.652   0.240   6.009 -0.0214 -0.1470 -0.0445
 9556W        W11756  10.186   7.358  24.914 -0.2508 -0.0559 -0.0773
 9557W        W11757   4.539   7.521  15.510 -0.2061  0.0367  0.1370
 9558W        W11758  28.682   1.803  10.831 -0.0187  0.0025  0.0004
 9559W        W11759  28.539   2.306  10.244  0.1775 -0.0870 -0.0698
 9560W        W11760  22.563   5.970  15.509  0.0584  0.0311 -0.2172
 9561W        W11761   5.540   5.684   3.888 -0.2324 -0.1657 -0.0574
 9562W        W11762   7.494   3.243  18.990 -0.1402 -0.0631  0.0560
 9563W        W11763  25.665   3.291   9.779 -0.0907 -0.2484 -0.0765
 9564W        W11764  29.825   7.523  18.044  0.2837  0.0432  0.0238
 9565W        W11765  11.663   0.286   4.861  0.2635  0.0295 -0.3158
 9566W        W11766  10.594   1.190   8.897 -0.1541 -0.2103  0.2494
 9567W        W11767  28.051   2.171   1.395  0.0309 -0.0720  0.1941
 9568W        W11768  28.752   2.309  20.310  0.1123 -0.0204  0.0456
 9569W        W11769   0.918   1.683   0.303 -0.2429 -0.1220  0.1175
 9570W        W11770  10.276   7.678   7.132  0.2940  0.0509 -0.1718
 9571W        W11771  12.088   0.024   3.548  0.0340  0.3252  0.0354
 9572W        W11772  23.343   1.131   4.210  0.3600  0.0286  0.0544
 9573W        W11773  15.734   2.891   7.289  0.0080  0.1007  0.0629
 9574W        W11774   2.030   2.764  17.648 -0.2184  0.2220  0.0260
 9575W        W11775   7.831   5.192  18.520  0.0324  0.1415  0.2172
 9576W        W11776   4.273   5.514   3.814 -0.0677 -0.3207  0.2306
 9577W        W11777  15.447   1.233   9.162 -0.4458  0.1829  0.1822
 9578W        W11778  26.861   3.436   8.229  0.0408 -0.1018  0.0673
 9579W        W11779   1.870   7.426  16.309 -0.0129  0.1467  0.2909
 9580W        W11780  28.454   0.276  20.289 -0.3545  0.0702  0.0232
 9581W        W11781  16.790   2.198   8.495 -0.0131  0.0302 -0.0326
 9582W        W11782  28.256   2.052   5.955 -0.0968 -0.1907  0.1117
 9583W        W11783  19.137   7.411   8.258  0.1102 -0.2371 -0.0374
 9584W        W11784  30.163   0.041  17.907 -0.0420  0.1351  0.0401
 9585W        W11785   9.767   1.347  16.861 -0.1762  0.1255 -0.0483
 9586W        W11786   9.664   6.380  17.448  0.1510  0.5122 -0.1367
 9587W        W11787  15.488   5.531   8.908  0.1406  0.3590 -0.1496
 9588W        W11788   9.637   2.636   9.506 -0.0325 -0.2529  0.0925
 9589W        W11789   0.483   4.800   9.991 -0.2008 -0.1054  0.0636
 9590W        W11790  27.781   7.390  15.377  0.0833  0.2973  0.0438
 9591W        W11791  10.751   7.358  11.145 -0.0093 -0.1322  0.1415
 9592W        W11792  27.305   5.377   9.571 -0.3678 -0.0684 -0.0342
 9593W        W11793  27.092   2.390  20.464 -0.0308  0.0032 -0.0916
 9594W        W11794   8.748   5.586  17.828 -0.1411  0.1264 -0.1237
 9595W        W11795  19.177   1.778   6.527 -0.0990 -0.2497  0.1591
 9596W        W11796  25.609   5.523   6.147 -0.0205 -0.0117 -0.1273
 9597W        W11797   9.966   1.842  24.468 -0.2989 -0.0989  0.2141
 9598W        W11798  17.826   5.696  19.033  0.1093 -0.0679  0.2487
 9599W        W11799   0.757   0.538   4.671 -0.1399 -0.0214  0.0399
 9600W        W11800  10.176   0.481  18.549  0.0282  0.2223 -0.2179
 9601W        W11801   5.723   6.333   7.576  0.1531 -0.1308  0.0029
 9602W        W11802   1.014   6.318   0.887 -0.0569 -0.1007 -0.0352
 9603W        W11803   3.827   0.518  18.077  0.0839 -0.1727  0.0676
 9604W        W11804  26.630   1.081  20.329 -0.1813  0.1048  0.1871
 9605W        W11805   6.229   2.121   7.217 -0.1254 -0.0357  0.0251
 9606W        W11806  14.590   2.293   6.495 -0.2408  0.3169  0.0683
 9607W        W11807  19.455   7.798  17.668  0.0582 -0.0575  0.0435
 9608W        W11808   3.715   6.023  19.033  0.1406 -0.1966 -0.1862
 9609W        W11809   3.995   2.676   3.858 -0.0110 -0.0393  0.2180
 9610W        W11810   6.822   1.919   9.811 -0.0931  0.0152  0.2953
 9611W        W11811  29.831   2.766   3.765 -0.1615  0.1673 -0.1625
 9612W        W11812  20.142   1.366  24.368 -0.1477 -0.2644  0.1903
 9613W        W11813   6.203   1.973   4.023 -0.0041  0.3521  0.2281
 9614W        W11814   1.004   6.139  13.966  0.2865 -0.2828 -0.0084
 9615W        W11815  30.579   2.121   4.700 -0.1969  0.2325  0.0761
 9616W        W11816  12.610   7.486   6.414  0.1480 -0.0744 -0.0588
 9617W        W11817  24.183   5.809  24.201  0.1685  0.0823  0.0794
 9618W        W11818  27.890   1.272  19.971  0.0717  0.1267 -0.2231
 9619W        W11819   5.551   4.289   1.552 -0.0355 -0.1066  0.0496
 9620W        W11820  21.630   5.719  10.715  0.0374 -0.1750 -0.1670
 9621W        W11821  30.884   6.149  16.692 -0.0592  0.1269  0.2256
 9622W        W11822  18.354   7.460  17.026  0.1315 -0.0186 -0.0633
 9623W        W11823  28.195   0.051  15.952 -0.3125  0.0450  0.1181
 9624W        W11824   2.708   4.929   0.874 -0.2729  0.0063 -0.1294
 9625W        W11825   2.459   5.616  18.981  0.0725  0.0158  0.1169
 9626W        W11826  27.216   3.675  21.492  0.2312  0.0863  0.2086
 9627W        W11827  15.858   0.402  20.520  0.0047  0.1033 -0.2873
 9628W        W11828  19.160   7.500  19.264  0.3839  0.1814 -0.4086
 9629W        W11829  12.294   7.739  21.275  0.0140  0.0963 -0.2458
 9630W        W11830  24.376   2.193   2.964  0.3616  0.0524 -0.3993
 9631W        W11831  24.744   7.662  18.622  0.0061 -0.0436  0.0641
 9632W        W11832   9.448   1.432   2.491  0.0488 -0.3173 -0.0498
 9633W        W11833  28.087   1.847  18.074  0.1193 -0.0320  0.3694
 9634W        W11834  26.457   2.591  22.630 -0.1505  0.1840  0.0217
 9635W        W11835  18.596   0.768  24.266 -0.0178  0.0631 -0.0206
 9636W        W11836  15.582   3.622   1.376  0.4840  0.1750  0.0950
 9637W        W11837   4.559   2.994  20.154  0.3244 -0.0316  0.0014
 9638W        W11838   1.771   1.633   6.257 -0.1557  0.0143  0.0743
 9639W        W11839   6.509   0.189  18.004 -0.0189 -0.2551 -0.0877
 9640W        W11840  30.688   1.161   6.085  0.0784 -0.0308  0.1850
 9641W        W11841  28.095   4.134  15.725 -0.1964 -0.0926  0.2846
 9642W        W11842  27.078   5.555   0.342 -0.4210  0.2108  0.0839
 9643W        W11843   9.602   4.895  21.373 -0.0425 -0.4326 -0.0394
 9644W        W11844  29.000   5.858  17.687  0.0921  0.0916  0.0863
 9645W        W11845  25.811   4.019   3.041  0.0195  0.1892 -0.1634
 9646W        W11846  26.003   1.961  10.745  0.0782 -0.1730 -0.2460
 9647W        W11847  13.293   0.117  20.619  0.2038  0.0720  0.0983
 9648W        W11848   2.587   3.446  23.438  0.0193  0.1013  0.4480
 9649W        W11849  12.265   0.679  21.450 -0.2473 -0.0490  0.0365
 9650W        W11850  27.226   4.954  22.155 -0.4470  0.2734  0.3418
 9651W        W11851   7.646   3.614  17.946 -0.3331 -0.1350 -0.2718
 9652W        W11852  24.440   4.730   8.911  0.1790  0.2099 -0.0278
 9653W        W11853  21.889   0.832  10.992 -0.0503  0.0323 -0.0740
 9654W        W11854   8.931   7.543  17.474  0.2091 -0.0458  0.1543
 9655W        W11855  30.972   6.456   6.237 -0.3171  0.1979 -0.0318
 9656W        W11856  23.010   5.608   1.589 -0.1722  0.0250  0.0076
 9657W        W11857  21.851   7.462  18.981 -0.2491 -0.0749 -0.1213
 9658W        W11858  15.279   3.276  19.948 -0.0360  0.1217 -0.0815
 9659W        W11859  18.161   4.492   5.300  0.1413 -0.0082 -0.2840
 9660W        W11860  28.712   2.459   9.377 -0.4198  0.0113 -0.0259
 9661W        W11861  28.309   4.247   2.299  0.0289  0.1242 -0.0540
 9662W        W11862  18.109   3.023   7.554  0.1014 -0.1772 -0.1832
 9663W        W11863  11.494   5.213   1.465 -0.1770  0.0993 -0.0751
 9664W        W11864  27.357   7.265  15.949 -0.1893 -0.2186 -0.1343
 9665W        W11865   6.446   7.518  16.841 -0.0512 -0.0807 -0.1297
 9666W        W11866   6.236   1.270  18.915  0.0812  0.2317 -0.0152
 9667W        W11867   3.764   5.958  20.793 -0.0104 -0.0494  0.0032
 9668W        W11868  30.634   2.827  17.779 -0.2555 -0.1334 -0.1686
 9669W        W11869   0.654   4.575   0.858  0.0304  0.2655 -0.1441
 9670W        W11870   1.579   4.715   0.650  0.1399  0.0063 -0.0189
 9671W        W11871  12.376   6.006   0.725  0.2412 -0.2380 -0.1230
 9672W        W11872   2.260   5.276  23.195 -0.1526  0.1603 -0.0816
 9673W        W11873   4.469   3.266  18.300  0.2027 -0.0350  0.1998
 9674W        W11874  15.148   4.045   6.158  0.1578  0.1184  0.1562
 9675W        W11875   9.527   6.082   9.299 -0.0704 -0.0879  0.0791
 9676W        W11876  18.198   5.045   9.737  0.0243  0.0828  0.0034
 9677W        W11877  20.038   3.052  15.159  0.0937 -0.0410  0.0410
 9678W        W11878   5.361   3.675  20.930 -0.4570  0.1318 -0.0706
 9679W        W11879   2.850   6.883   4.980  0.3351 -0.2386 -0.0972
 9680W        W11880  25.160   5.074   2.533  0.0756 -0.3570 -0.3323
 9681W        W11881   4.812   2.982  17.361 -0.0377  0.0231 -0.0459
 9682W        W11882   2.867   7.182  22.230 -0.0415 -0.1528 -0.1583
 9683W        W11883  28.181   4.710   4.037 -0.0330  0.0709 -0.1109
 9684W        W11884   6.409   1.298  14.920  0.1615 -0.1915  0.0277
 9685W        W11885  17.099   2.251   0.487  0.0372 -0.1550  0.1273
 9686W        W11886  18.586   5.478  16.078  0.0867  0.0232  0.0593
 9687W        W11887  26.907   4.678   6.374 -0.0098  0.0822 -0.0346
 9688W        W11888   2.999   3.413  20.830 -0.0739  0.0933  0.1018
 9689W        W11889  17.424   4.659  21.511 -0.1589  0.0203  0.0213
 9690W        W11890  18.160   1.877   8.891  0.0167 -0.3598 -0.0755
 9691W        W11891  14.251   4.360  24.997  0.2448 -0.1439 -0.0724
 9692W        W11892   5.528   4.411   6.430 -0.3057  0.1880  0.0572
 9693W        W11893  16.578   2.271   7.583 -0.0731  0.0398 -0.3744
 9694W        W11894  15.584   6.762   2.959 -0.1131 -0.1569  0.0348
 9695W        W11895  15.292   2.639  16.756 -0.0387  0.2597 -0.0346
 9696W        W11896   4.648   0.129  10.276  0.2898  0.0041 -0.1499
 9697W        W11897  26.918   5.682   8.043 -0.0317  0.1076 -0.2152
 9698W        W11898   6.114   0.276  21.428 -0.1986  0.0721 -0.5917
 9699W        W11899   3.072   4.822  21.193 -0.2109 -0.1661 -0.2702
 9700W        W11900   5.050   6.446   1.541 -0.1056  0.0491 -0.1687
 9701W        W11901  11.800   3.263   3.362 -0.0065 -0.1578  0.4077
 9702W        W11902  30.194   5.298   6.509  0.0713  0.3246 -0.2786
 9703W        W11903  14.823   4.271  25.683 -0.2187  0.1904 -0.0295
 9704W        W11904  25.293   4.045   3.309  0.1834  0.1823 -0.0473
 9705W        W11905   4.867   3.701  23.413 -0.0171  0.2694 -0.1687
 9706W        W11906  10.087   4.231   1.226  0.1678  0.0274 -0.4560
 9707W        W11907  30.463   6.943  15.595 -0.4003 -0.2271  0.2895
 9708W        W11908   7.159   0.282  24.341  0.0488 -0.4507  0.0600
 9709W        W11909  11.173   6.726   2.572  0.1289  0.1461  0.1969
 9710W        W11910   2.864   6.716  14.546  0.2238 -0.1697  0.2478
 9711W        W11911  25.455   2.698   7.550 -0.0288  0.0309  0.2966
 9712W        W11912  10.300   1.853  11.311  0.0212 -0.2126 -0.1174
 9713W        W11913   4.981   4.525   3.524  0.0055 -0.1150  0.1343
 9714W        W11914  28.709   1.473  17.136 -0.0092  0.0407  0.0891
 9715W        W11915  14.414   1.127   2.043 -0.1369  0.2683  0.2107
 9716W        W11916  29.932   6.728   8.358  0.1000  0.0976 -0.0363
 9717W        W11917  27.971   6.592   2.908 -0.2788  0.0820 -0.0369
 9718W        W11918   0.130   6.529   4.781  0.0434 -0.0402 -0.0111
 9719W        W11919  31.219   2.983  16.214 -0.3820  0.1272  0.0886
 9720W        W11920  15.861   7.421   1.321  0.1348  0.2443 -0.2692
 9721W        W11921  11.808   4.516  25.211 -0.1065 -0.0718  0.1477
 9722W        W11922  17.775   3.955  24.330 -0.1481 -0.1900  0.1328
 9723W        W11923  17.111   3.078   6.343  0.2869 -0.1679  0.0210
 9724W        W11924  12.534   5.537  16.167  0.1721 -0.0518  0.1658
 9725W        W11925  15.849   1.119   7.188  0.1730  0.0747 -0.1654
 9726W        W11926  30.717   5.977   6.528  0.1162 -0.0952 -0.3835
 9727W        W11927  25.944   3.685  24.560  0.0754  0.1444 -0.0034
 9728W        W11928   4.744   7.388   0.217 -0.2101  0.1025 -0.0235
 9729W        W11929  14.827   4.973   4.228  0.2112 -0.0954  0.1038
 9730W        W11930  23.324   1.981  23.088  0.4290 -0.0011 -0.2137
 9731W        W11931  29.691   2.047  19.763  0.1105 -0.1385 -0.3314
 9732W        W11932  24.936   3.310   8.229 -0.1096  0.0186 -0.0597
 9733W        W11933  16.843   0.677  21.359 -0.1672 -0.2995  0.1212
 9734W        W11934  30.950   2.976  17.403  0.1118 -0.0357  0.1184
 9735W        W11935  28.641   6.158  24.385 -0.1295  0.2712 -0.1925
 9736W        W11936  23.501   3.619  22.502  0.0655 -0.0830  0.1646
 9737W        W11937  26.220   7.192   5.084 -0.3392 -0.0973  0.1218
 9738W        W11938  24.475   7.146  11.203  0.2192 -0.0702 -0.0534
 9739W        W11939   8.985   0.725  18.156  0.0082  0.0211  0.0884
 9740W        W11940  22.265   6.085  10.914  0.0450 -0.1780 -0.2424
 9741W        W11941   4.941   6.177  20.601  0.1388 -0.0519  0.0154
 9742W        W11942   6.338   6.685  18.619 -0.2085 -0.1055 -0.0431
 9743W        W11943  29.565   0.255   3.464  0.0213 -0.2950 -0.0804
 9744W        W11944  19.335   4.545   5.929  0.0168 -0.0539  0.0400
 9745W        W11945  17.126   6.529  20.484 -0.0260  0.1786 -0.1899
 9746W        W11946  13.480   6.748   6.982 -0.3942  0.0472 -0.3087
 9747W        W11947  25.595   5.784   8.669  0.1961 -0.1674 -0.0125
 9748W        W11948  29.791   0.159   2.497 -0.0173 -0.1742  0.0197
 9749W        W11949  18.108   7.677   8.021  0.0671  0.1140 -0.0598
 9750W        W11950   3.154   0.525   4.542 -0.0650  0.1522  0.0145
 9751W        W11951  11.187   1.532  25.375  0.0338  0.1686  0.0893
 9752W        W11952  13.693   6.858   8.863 -0.1710 -0.0663  0.0991
 9753W        W11953   7.640   6.777   8.408  0.0396 -0.1369 -0.1737
 9754W        W11954  11.181   5.644   1.563  0.1543  0.1157  0.1308
 9755W        W11955  21.035   0.725  16.378  0.1778  0.1043 -0.3590
 9756W        W11956  19.837   6.554   3.625 -0.1194  0.0582 -0.1060
 9757W        W11957  22.316   4.913  21.995  0.1314  0.1583 -0.1168
 9758W        W11958   9.718   3.907  20.839  0.0119 -0.0407  0.0089
 9759W        W11959  11.777   7.508   9.794 -0.1532 -0.2943 -0.0061
 9760W        W11960  15.393   2.544   4.986  0.3805  0.1226  0.0199
 9761W        W11961  28.356   3.423   6.429  0.1899  0.0701 -0.0133
 9762W        W11962   5.033   2.455  15.136 -0.2165 -0.1483  0.0825
 9763W        W11963  30.508   4.699   2.879  0.0762 -0.1510  0.2475
 9764W        W11964  13.777   0.374   4.992  0.1132 -0.0286 -0.2023
 9765W        W11965  22.602   3.161   5.290  0.2390  0.3395 -0.0911
 9766W        W11966   7.487   3.481  22.270 -0.2501 -0.0459 -0.0019
 9767W        W11967  23.315   7.288   3.873  0.1013  0.1217  0.0790
 9768W        W11968  24.863   0.343   4.299 -0.3983  0.2310  0.0326
 9769W        W11969  27.487   1.033   5.599 -0.0546 -0.2403 -0.0832
 9770W        W11970  18.732   5.332   2.608 -0.0633  0.3133 -0.1366
 9771W        W11971   7.894   3.201   5.580  0.3083 -0.0813 -0.2055
 9772W        W11972   7.848   5.858  19.245  0.0144 -0.1495 -0.0127
 9773W        W11973  26.790   1.423  23.045 -0.0033  0.1748  0.2303
 9774W        W11974   3.346   5.815   1.927  0.0609 -0.3326 -0.1712
 9775W        W11975  12.558   3.761   6.619 -0.1462  0.0097  0.0727
 9776W        W11976  14.341   5.779   0.459 -0.1692  0.2055 -0.1337
 9777W        W11977  10.671   5.879  19.747 -0.1304 -0.3628  0.3052
 9778W        W11978  17.918   6.601  15.709 -0.0373 -0.0303  0.0930
 9779W        W11979   9.456   4.618  10.779  0.2221  0.1406  0.1559
 9780W        W11980  27.325   7.518  11.288  0.1827 -0.1867  0.0864
 9781W        W11981  17.147   5.868   3.997 -0.0669 -0.0778 -0.0396
 9782W        W11982   7.047   7.358  24.803 -0.0780  0.2148 -0.0063
 9783W        W11983  28.647   2.391  16.983  0.0501  0.2727  0.1236
 9784W        W11984   5.176   4.712  18.884 -0.1343 -0.0678  0.1581
 9785W        W11985  21.216   7.308   5.816 -0.0995 -0.2899 -0.0023
 9786W        W11986  15.711   4.664  22.182 -0.0555  0.2677  0.0535
 9787W        W11987  25.131   0.173  20.310  0.0883 -0.1068  0.3653
 9788W        W11988  27.761   7.375   6.071  0.0237  0.1578  0.1890
 9789W        W11989   8.364   4.384   7.648  0.0441  0.0759  0.0945
 9790W        W11990  20.447   4.976   8.139  0.4470 -0.0415 -0.3147
 9791W        W11991  20.927   6.306  24.580 -0.2600  0.0145 -0.0479
 9792W        W11992  12.943   5.115  16.922  0.1726 -0.3514 -0.1496
 9793W        W11993   9.524   0.159   4.178  0.0948 -0.0566 -0.1691
 9794W        W11994  25.677   5.843   5.745  0.4017 -0.1455  0.0419
 9795W        W11995   0.612   3.834   2.526  0.0833 -0.0302  0.2585
 9796W        W11996  12.789   3.425  24.635  0.0821  0.0545  0.0535
 9797W        W11997   9.082   4.000  22.129  0.2230  0.1073  0.1939
 9798W        W11998  23.052   6.746  16.462 -0.0450  0.0204  0.0185
 9799W        W11999  28.706   6.623  19.797 -0.0171  0.3679 -0.2094
 9800W        W12000  11.801   3.119  22.615  0.1049 -0.3596  0.2056
 9801W        W12001   0.286   6.013   2.989  0.1057  0.0629 -0.4097
 9802W        W12002   9.324   1.576   2.957 -0.0053  0.0795 -0.2028
 9803W        W12003  21.071   5.741  19.410 -0.1570  0.2305  0.0155
 9804W        W12004  15.909   4.597   2.344  0.0211  0.0997 -0.2165
 9805W        W12005   9.707   0.625  18.536 -0.1671  0.1751 -0.4379
 9806W        W12006  16.563   7.466   4.538  0.0425  0.0101 -0.2322
 9807W        W12007  25.973   3.943  23.666  0.0868  0.6169  0.5043
 9808W        W12008  17.172   0.853  16.224  0.1321 -0.2141  0.0310
 9809W        W12009  23.523   4.076  16.667  0.2374  0.0065 -0.1910
 9810W        W12010  28.936   6.405   1.151  0.2593  0.1364  0.0896
 9811W        W12011   9.243   6.094   2.007  0.0863  0.0112  0.0630
 9812W        W12012   2.771   7.725  18.680  0.0358  0.0098  0.0788
 9813W        W12013   0.767   5.161   5.476 -0.1753 -0.0716 -0.2599
 9814W        W12014   9.218   2.582  16.497  0.1463  0.0497  0.0450
 9815W        W12015  28.319   2.769  10.420  0.2000 -0.3827  0.1770
 9816W        W12016   6.726   1.587   5.674  0.3290  0.2841  0.0632
 9817W        W12017   6.805   4.205  10.555 -0.0606  0.2488  0.1367
 9818W        W12018  25.637   2.527  19.782  0.1243 -0.1198  0.1695
 9819W        W12019  12.462   5.935  17.817 -0.1705 -0.2372 -0.1080
 9820W        W12020  26.909   3.775   6.870 -0.0510  0.0439  0.0490
 9821W        W12021  13.573   5.618  24.148  0.3992  0.3394  0.1079
 9822W        W12022   3.515   7.640  24.618  0.0866 -0.0658 -0.0130
 9823W        W12023   8.830   7.166  10.426 -0.2493 -0.0124  0.0824
 9824W        W12024  10.599   5.555  24.413  0.0882 -0.0031  0.1621
 9825W        W12025  14.969   6.688  20.671  0.0529 -0.0016  0.2674
 9826W        W12026  16.396   7.412   1.280 -0.1713  0.1015 -0.0644
 9827W        W12027  15.054   4.110  22.933  0.2195  0.1419  0.1176
 9828W        W12028  20.969   1.465   4.677  0.1274  0.1108 -0.0468
 9829W        W12029  18.527   2.166   2.959 -0.1418 -0.1643  0.2161
 9830W        W12030  23.982   1.902  10.152 -0.0563 -0.0442  0.0583
 9831W        W12031  23.117   5.331   9.071  0.1194  0.0970 -0.2659
 9832W        W12032  17.246   4.742  24.456  0.0355 -0.0887  0.2012
 9833W        W12033  17.854   2.320  16.645  0.0067 -0.1810  0.2309
 9834W        W12034  12.949   1.217   1.777  0.2723 -0.0907  0.1391
 9835W        W12035   1.754   0.141  18.931  0.0464  0.3969  0.0354
 9836W        W12036   5.088   3.200  22.590  0.1948  0.2959 -0.3441
 9837W        W12037   2.371   3.726   8.269 -0.2272 -0.0000  0.0535
 9838W        W12038  23.729   5.861  25.250 -0.0263  0.0395 -0.1072
 9839W        W12039  10.704   3.613  22.072 -0.0160 -0.1186 -0.0876
 9840W        W12040   2.403   1.551   2.553  0.1260  0.3276 -0.1196
 9841W        W12041  13.301   4.926   9.483  0.1131 -0.0210 -0.2441
 9842W        W12042  20.362   3.011   8.550  0.2495  0.2838 -0.0486
 9843W        W12043  24.554   3.238   2.311 -0.1043 -0.0762 -0.3676
 9844W        W12044  15.712   6.030  21.586  0.2058  0.0234  0.1693
 9845W        W12045  19.371   1.945   3.691 -0.0989  0.1371  0.1508
 9846W        W12046   0.177   7.679   5.312  0.3239 -0.0775  0.0953
 9847W        W12047  12.351   0.613   9.241 -0.1995  0.3240  0.1189
 9848W        W12048  15.918   1.706  23.264 -0.0779 -0.2197  0.0594
 9849W        W12049  12.403   0.910  21.911 -0.0030  0.0040  0.2327
 9850W        W12050   0.152   5.670  23.641 -0.0052  0.0018  0.1822
 9851W        W12051  16.301   2.812  18.005 -0.0964  0.1406  0.0619
 9852W        W12052   3.775   1.005   0.793  0.1777 -0.0357  0.0035
 9853W        W12053  15.653   7.323  22.107  0.3523 -0.3168 -0.0033
 9854W        W12054  19.439   5.611  21.206 -0.1285  0.0318 -0.2426
 9855W        W12055   6.922   6.214   0.923  0.0153 -0.0019 -0.1810
 9856W        W12056  13.712   5.914  17.371  0.0914 -0.3133 -0.0809
 9857W        W12057   9.309   3.611  19.692  0.1815 -0.0829 -0.0838
 9858W        W12058  11.878   3.832   0.323  0.1894 -0.0344 -0.1573
 9859W        W12059  18.327   7.640  18.686 -0.0273 -0.1068 -0.2810
 9860W        W12060  26.913   3.295   3.880 -0.0797  0.1954  0.0073
 9861W        W12061  15.166   3.216   2.441  0.0089  0.0871  0.3080
 9862W        W12062  12.603   1.791   5.218 -0.1307  0.1131  0.1901
 9863W        W12063  22.053   0.362   6.552 -0.2472  0.0664 -0.0204
 9864W        W12064  19.998   5.800   4.722 -0.4080 -0.4212  0.1838
 9865W        W12065   1.526   6.971  17.268  0.2077  0.0798 -0.2950
 9866W        W12066  11.604   0.895  18.835  0.0972  0.1324 -0.0023
 9867W        W12067   9.627   2.004  19.716 -0.2575 -0.0794  0.1831
 9868W        W12068   8.555   2.409   7.356  0.0335  0.1951 -0.0311
 9869W        W12069  18.544   4.650   9.845  0.0754 -0.1056  0.0856
 9870W        W12070  17.677   3.270   4.918 -0.0676  0.0139  0.3023
 9871W        W12071   4.801   4.364  25.219  0.0093 -0.1302 -0.2190
 9872W        W12072  26.928   2.301   6.714  0.1088 -0.0363 -0.0557
 9873W        W12073   9.545   0.664  16.751 -0.1133  0.0063 -0.0672
 9874W        W12074  16.009   2.890   5.921 -0.0352 -0.0502  0.2244
 9875W        W12075  12.533   7.367  22.761 -0.1112 -0.1534  0.0371
 9876W        W12076  28.350   3.723   2.727 -0.0796  0.1679  0.3481
 9877W        W12077  25.322   1.386   3.676  0.1508 -0.1708 -0.2071
 9878W        W12078  15.044   1.280  23.327 -0.1946  0.0925  0.1868
 9879W        W12079  26.613   7.795   4.247 -0.0504 -0.0698 -0.1501
 9880W        W12080   9.410   7.315  17.372 -0.0543  0.0802 -0.2216
 9881W        W12081  18.662   7.081   0.110  0.2288  0.0026 -0.1403
 9882W        W12082  15.244   2.718   2.280 -0.3781 -0.5503  0.3007
 9883W        W12083  17.449   4.648  23.603  0.1143  0.0532  0.3626
 9884W        W12084   7.740   4.731  25.775  0.1679  0.0375  0.0041
 9885W        W12085   6.032   3.457   7.549  0.0327 -0.0161  0.1835
 9886W        W12086  18.288   2.729  10.904  0.0284 -0.0350 -0.0001
 9887W        W12087   5.963   2.492   9.853 -0.0764  0.0152 -0.1655
 9888W        W12088  17.819   1.895   5.017  0.3303 -0.1033  0.0353
 9889W        W12089   4.977   0.678   0.011  0.1783 -0.1450 -0.3924
 9890W        W12090  11.018   4.438  10.095  0.1101  0.0832  0.0805
 9891W        W12091  20.533   6.577  23.899  0.0649 -0.1302  0.2046
 9892W        W12092  12.429   7.679  15.345  0.0323 -0.1350  0.1738
 9893W        W12093   8.452   1.340   4.084  0.0498  0.3048  0.0826
 9894W        W12094  25.499   5.046  19.073  0.1052 -0.0520  0.0863
 9895W        W12095  10.136   3.862  18.185  0.4321  0.2457 -0.2903
 9896W        W12096  29.811   5.305   1.738 -0.1698 -0.0464  0.0699
 9897W        W12097   8.655   2.146   2.879  0.0535  0.0412  0.1452
 9898W        W12098  31.160   2.813   0.255  0.1657 -0.0372 -0.1652
 9899W        W12099   1.843   1.022   0.857  0.0168  0.1183  0.2574
 9900W        W12100  20.466   4.060   8.316 -0.0917 -0.3062  0.4653
 9901W        W12101   8.173   6.066  16.367 -0.1009  0.3423  0.2587
 9902W        W12102   4.477   6.465  17.708 -0.0603  0.1995  0.1643
 9903W        W12103   5.563   0.675   9.517 -0.2453 -0.2371  0.1161
 9904W        W12104   2.944   0.741   0.878  0.2644 -0.0376 -0.3348
 9905W        W12105  10.909   5.126  10.329  0.3957  0.2679 -0.0037
 9906W        W12106  21.175   0.918  24.978 -0.0163 -0.1024 -0.2077
 9907W        W12107   0.604   5.492  14.162  0.1650  0.3831  0.2776
 9908W        W12108  22.825   2.921  18.577 -0.0267 -0.2835  0.4499
 9909W        W12109  10.059   4.995   3.459 -0.1445 -0.3391 -0.0073
 9910W        W12110  21.553   1.788  23.343  0.2798  0.0977  0.0171
 9911W        W12111  25.043   4.410   5.678  0.1825 -0.2480  0.2707
 9912W        W12112   8.682   6.523  20.866  0.1549 -0.2395 -0.3071
 9913W        W12113  27.776   6.313   1.564 -0.0987 -0.0052 -0.2050
 9914W        W12114   7.870   3.157  25.143 -0.3942  0.1181 -0.1901
 9915W        W12115   5.836   4.263  19.280 -0.0032 -0.0428 -0.1547
 9916W        W12116   2.945   0.863   8.143  0.0277  0.0372 -0.0614
 9917W        W12117   3.190   0.768  16.337  0.1225  0.1572 -0.1957
 9918W        W12118  10.541   5.455   7.768 -0.0122  0.0963 -0.1712
 9919W        W12119  16.724   2.448   2.808  0.0108  0.0445 -0.2008
 9920W        W12120   1.687   7.010   4.755  0.3906  0.1745 -0.1284
 9921W        W12121  17.003   1.233  16.644 -0.2888  0.1248 -0.0033
 9922W        W12122   6.342   0.221  19.323 -0.4099 -0.0743  0.3863
 9923W        W12123  12.585   3.614   7.305 -0.0234 -0.1253  0.0031
 9924W        W12124  28.878   2.895   9.624  0.2107 -0.0585  0.0946
 9925W        W12125  11.471   2.776   7.006  0.0670 -0.0777  0.0048
 9926W        W12126   6.950   4.534   9.450 -0.4857  0.1118  0.1448
 9927W        W12127  15.187   5.450  25.338  0.1835  0.1901  0.0238
 9928W        W12128  28.818   5.112  19.071 -0.0344  0.2954  0.1695
 9929W        W12129  24.134   5.219   0.398 -0.0069  0.0148  0.0071
 9930W        W12130   6.209   6.490   2.156 -0.0304 -0.0525  0.0483
 9931W        W12131  12.082   4.089  16.676 -0.2020 -0.4075  0.4115
 9932W        W12132  18.575   0.484   7.558 -0.1621 -0.2609 -0.1421
 9933W        W12133   4.500   4.749  18.403  0.0865 -0.0624  0.1017
 9934W        W12134   9.723   3.414   5.462 -0.1462 -0.1206  0.0455
 9935W        W12135  20.227   4.755  23.709  0.1812  0.3547 -0.1287
 9936W        W12136   5.573   7.230  21.247  0.2813 -0.1247 -0.1421
 9937W        W12137  23.798   5.863   8.871  0.0356  0.0207  0.2166
 9938W        W12138   9.532   5.966  11.524  0.2606 -0.0704 -0.1356
 9939W        W12139  11.987   3.720  23.931  0.3682  0.0698  0.0128
 9940W        W12140  14.108   4.880   3.394  0.2035  0.0765 -0.1780
 9941W        W12141   6.640   1.854   7.459 -0.3806  0.2453  0.0566
 9942W        W12142  10.212   1.027   0.566  0.0497  0.1755 -0.0375
 9943W        W12143  13.543   1.136   7.778  0.2358  0.0226  0.2722
 9944W        W12144  21.029   4.924  16.000  0.2734  0.0328  0.1220
 9945W        W12145  26.271   2.459  25.648  0.0062  0.0108  0.0054
 9946W        W12146   3.051   1.327   0.170  0.3851 -0.0199  0.0096
 9947W        W12147  12.697   1.910   7.276 -0.0773 -0.1523 -0.0684
 9948W        W12148  13.946   7.622  11.233  0.0479  0.0086 -0.0731
 9949W        W12149   4.718   3.859   5.982 -0.3943 -0.0824 -0.2448
 9950W        W12150  20.538   6.886  10.610 -0.1677 -0.3633 -0.0127
 9951W        W12151  21.174   2.043  26.001  0.0895  0.1988 -0.0185
 9952W        W12152  23.154   5.639   0.121 -0.0484 -0.2130  0.0836
 9953W        W12153  19.107   2.548   2.011 -0.0656  0.0309 -0.0473
 9954W        W12154   8.265   0.349  25.108 -0.1403 -0.0299  0.0783
 9955W        W12155   4.271   0.457  18.583 -0.0625  0.2258 -0.0322
 9956W        W12156  28.069   5.756   5.021 -0.2879 -0.0219 -0.0741
 9957W        W12157   7.495   7.449  16.693 -0.3487  0.3274  0.2291
 9958W        W12158  11.455   2.906  10.517  0.4199 -0.3078 -0.2631
 9959W        W12159  16.543   7.463   5.856 -0.0539  0.1008 -0.1897
 9960W        W12160  14.554   3.028   8.427  0.3527 -0.0143  0.1170
 9961W        W12161  15.508   2.713   8.054 -0.1565 -0.2816 -0.0095
 9962W        W12162  13.519   6.503   9.122 -0.1037 -0.1254  0.1515
 9963W        W12163  29.889   1.960   5.406 -0.0741 -0.1926 -0.1267
 9964W        W12164  27.315   5.306  24.674  0.0707  0.1913 -0.1453
 9965W        W12165  30.028   1.598  21.507 -0.3680 -0.2021  0.0879
 9966W        W12166  16.899   6.252   6.604  0.3161 -0.2288 -0.1324
 9967W        W12167  19.220   3.169  11.010 -0.0970 -0.1009  0.2415
 9968W        W12168  14.727   2.440   5.525 -0.3519  0.1205 -0.1678
 9969W        W12169  25.887   1.666  17.761 -0.2349 -0.0035 -0.0726
 9970W        W12170  11.542   3.536  10.377 -0.1963  0.1752 -0.1018
 9971W        W12171   9.861   5.758   2.868  0.2450 -0.2507 -0.2691
 9972W        W12172  15.303   0.485   6.057 -0.0810  0.1827  0.1187
 9973W        W12173  20.838   1.594   7.936  0.1975 -0.1374  0.2357
 9974W        W12174  12.173   1.895   5.526  0.0477  0.1244  0.0081
 9975W        W12175  22.709   2.629  17.919 -0.1492 -0.1038  0.1730
 9976W        W12176   6.981   2.576   8.668  0.0428  0.0415  0.0744
 9977W        W12177  27.395   7.816  19.528  0.1078 -0.1352 -0.4054
 9978W        W12178  29.013   4.211   8.914  0.2131  0.0614 -0.1973
 9979W        W12179   2.426   1.090  22.111 -0.3323 -0.0450 -0.1688
 9980W        W12180  24.504   1.624  19.959  0.1534  0.3049 -0.0936
 9981W        W12181  24.568   1.132  20.711  0.3406 -0.2068 -0.0229
 9982W        W12182  17.989   6.080  16.606 -0.0783  0.0821  0.2159
 9983W        W12183  27.230   6.739  15.972  0.0833 -0.0033 -0.4328
 9984W        W12184   3.377   6.822   1.411 -0.0988 -0.0236 -0.1623
 9985W        W12185   1.265   5.109  25.651 -0.0757 -0.1003  0.0285
 9986W        W12186  21.126   1.915   8.853  0.2172  0.0992 -0.0535
 9987W        W12187  16.944   5.751  17.030  0.3026  0.3324  0.0901
 9988W        W12188  28.728   3.161  16.517  0.1248  0.0839 -0.0844
 9989W        W12189   6.378   1.955  10.038  0.0092 -0.0623 -0.1064
 9990W        W12190  12.264   3.986  19.548 -0.1674  0.1176 -0.1471
 9991W        W12191  24.811   1.250  14.933 -0.0902 -0.2210  0.0098
 9992W        W12192  31.318   5.414   9.899 -0.3572  0.3359 -0.3716
 9993W        W12193  13.179   2.685   8.923  0.1611  0.1879 -0.0344
 9994W        W12194  17.078   6.847  16.043  0.0494  0.2433 -0.2731
 9995W        W12195  19.255   3.811  16.608 -0.1270  0.0329 -0.1012
 9996W        W12196  11.700   1.264  18.047 -0.2781 -0.0904  0.1171
 9997W        W12197  16.772   2.988  24.762  0.0127 -0.2006 -0.0618
 9998W        W12198  28.850   4.811   9.586  0.1275  0.0908  0.2246
 9999W        W12199   3.927   0.117   6.666  0.1380  0.1443 -0.0187
10000W        W12200   0.456   5.003  19.022 -0.0818  0.0476 -0.0788
10001W        W12201   0.336   1.469  24.819 -0.1725 -0.1323 -0.2874
10002W        W12202  27.886   1.992  18.884  0.0322 -0.3327 -0.1969
10003W        W12203   8.640   4.142  17.446  0.0716 -0.2958  0.1548
10004W        W12204   9.834   1.349  17.557 -0.0433 -0.0268  0.1549
10005W        W12205  28.452   3.592   5.950 -0.3368  0.0213  0.2096
10006W        W12206  18.240   0.798   5.709  0.2315 -0.4825  0.0820
10007W        W12207  13.612   2.243   6.194 -0.1189  0.0084 -0.0892
10008W        W12208  14.649   2.094   3.103 -0.0347 -0.0037 -0.3825
10009W        W12209   3.303   2.768  14.453  0.1276  0.0430  0.0320
10010W        W12210  19.391   4.065  20.422 -0.1571  0.2701  0.1615
10011W        W12211  16.703   2.572  18.957 -0.0170 -0.1148 -0.1364
10012W        W12212  24.868   1.769   6.637  0.1622 -0.2110 -0.1004
10013W        W12213   1.617   4.072   8.627  0.1302 -0.0126  0.1116
10014W        W12214  16.187   7.149  19.035 -0.1659 -0.0243 -0.0484
10015W        W12215   2.972   1.926  26.006 -0.1511  0.1048 -0.1857
10016W        W12216  13.520   7.596   6.539  0.0399  0.1020  0.1336
10017W        W12217   3.468   4.903   1.926  0.1046  0.0336  0.0029
10018W        W12218  12.486   3.877  17.548 -0.0300  0.0159 -0.1027
10019W        W12219   3.717   7.776   3.103 -0.0601  0.0722  0.2644
10020W        W12220  14.773   5.825  15.416  0.0729 -0.0309  0.1244
10021W        W12221  13.377   3.526  24.271  0.1676 -0.2102  0.2591
10022W        W12222  10.720   7.748  20.452 -0.0540  0.1785 -0.3408
10023W        W12223   5.514   5.022  25.551  0.3434 -0.2078 -0.4609
10024W        W12224   8.305   4.889   4.058  0.0323  0.0896  0.3206
10025W        W12225   4.382   4.154  21.041 -0.0773  0.3349  0.4404
10026W        W12226  29.523   4.944  23.908 -0.0940 -0.0426  0.1623
10027W        W12227  15.829   6.568  14.938 -0.1012 -0.0014  0.1494
10028W        W12228  22.463   7.138   7.931  0.2571 -0.1433  0.1635
10029W        W12229  25.087   1.352   5.089 -0.0340 -0.0403 -0.1516
10030W        W12230  19.690   4.446   8.598  0.1428 -0.2922  0.0544
10031W        W12231  30.210   4.911  25.025  0.1762 -0.1148  0.1205
10032W        W12232  21.588   6.046   1.210 -0.0960 -0.0931  0.0805
10033W        W12233  14.907   4.652   5.972  0.2580  0.0390  0.3134
10034W        W12234  19.663   0.759   9.698  0.0793  0.4714 -0.2018
10035W        W12235  27.324   0.907   4.979 -0.1140  0.0444  0.1408
10036W        W12236  26.773   7.329   5.297 -0.1113  0.0953 -0.0944
10037W        W12237  26.429   1.669   4.040 -0.0171  0.0708 -0.1570
10038W        W12238   2.847   4.831  18.891  0.1787  0.1543  0.2464
10039W        W12239  13.179   5.610   6.471  0.1944 -0.0763 -0.0564
10040W        W12240  22.067   4.378  19.030  0.0141  0.0707 -0.0509
10041W        W12241   7.869   5.906   8.094 -0.1830  0.0731  0.0078
10042W        W12242  19.019   4.811  21.197 -0.0540  0.1237 -0.1304
10043W        W12243   8.107   5.959  19.953  0.0573 -0.0456  0.1041
10044W        W12244  26.927   4.959  23.517 -0.1876 -0.2212 -0.1988
10045W        W12245   9.169   5.401  21.434  0.1237  0.0916  0.0942
10046W        W12246   0.691   1.350   1.633 -0.1447 -0.0270 -0.0717
10047W        W12247   1.675   2.990  16.139 -0.2150 -0.0226  0.3197
10048W        W12248   4.776   6.108  23.091 -0.1455  0.0457  0.0803
10049W        W12249  14.117   3.060  10.475 -0.0273 -0.0864 -0.0518
10050W        W12250  22.725   7.546   1.180 -0.0493 -0.1086 -0.1417
10051W        W12251   5.780   0.053  15.156 -0.2953 -0.2139  0.2404
10052W        W12252  15.092   1.986  24.378 -0.2561  0.4104 -0.1469
10053W        W12253  12.435   6.951   7.189 -0.2038  0.1452 -0.1052
10054W        W12254  23.712   7.658   3.860  0.0359 -0.1868 -0.0079
10055W        W12255   7.553   6.447   4.971  0.1762  0.3083 -0.1910
10056W        W12256  27.447   1.741  15.773  0.1063  0.2639  0.1693
10057W        W12257  22.916   7.719   6.641 -0.1020  0.0603 -0.1088
10058W        W12258   6.836   3.018  10.047 -0.1352 -0.0393  0.0994
10059W        W12259  25.051   7.481   6.304 -0.1203 -0.1968 -0.1840
10060W        W12260  18.202   5.552   6.583  0.0533  0.0619 -0.2623
10061W        W12261  11.333   6.530  16.732  0.0824 -0.0362 -0.1454
10062W        W12262   4.780   5.710   6.412  0.1068 -0.1237 -0.1461
10063W        W12263   4.020   2.897   8.735 -0.0687 -0.0396 -0.2362
10064W        W12264  21.861   4.138  22.697  0.1860 -0.0129  0.1900
10065W        W12265  28.854   5.999  18.664 -0.1656 -0.0120  0.0155
10066W        W12266   9.638   4.406  17.448  0.1651 -0.1554 -0.0911
10067W        W12267  12.018   5.135  19.786  0.1485  0.0833 -0.1786
10068W        W12268  12.023   5.450   9.125  0.0173 -0.2772 -0.0275
10069W        W12269  20.622   5.642  25.813 -0.1461 -0.0029  0.1352
10070W        W12270   2.768   7.692   5.828 -0.2386  0.2426  0.0542
10071W        W12271   4.238   1.187  19.326  0.1386  0.0477  0.4994
10072W        W12272   0.263   3.392  25.974  0.0129  0.0512 -0.0903
10073W        W12273  18.423   7.026  20.878 -0.1092 -0.0509 -0.0169
10074W        W12274  11.519   2.082   6.543  0.0786  0.0575 -0.3326
10075W        W12275   9.570   1.592  15.842  0.4016 -0.0160  0.2470
10076W        W12276  26.215   6.097  18.517 -0.0100  0.0165  0.2411
10077W        W12277   0.694   3.804  26.044 -0.0844 -0.0256  0.0065
10078W        W12278  14.191   1.838  21.434  0.0862  0.0121  0.0308
10079W        W12279   5.945   3.583  20.915 -0.1631  0.0385  0.1245
10080W        W12280  17.298   6.926  21.189 -0.0631 -0.1151 -0.1730
10081W        W12281  21.515   1.531  21.789 -0.0402  0.1611 -0.2942
10082W        W12282  26.858   0.341  16.802 -0.2396 -0.2592  0.2513
10083W        W12283  10.892   4.896  19.947 -0.0245  0.2422 -0.0719
10084W        W12284   7.668   7.841  25.512  0.1160  0.0241 -0.0495
10085W        W12285  16.905   0.005   3.789  0.0578 -0.0757 -0.0066
10086W        W12286   8.900   5.739   2.969  0.0447  0.0428 -0.1268
10087W        W12287   8.404   4.809   7.967  0.0116 -0.1173  0.2944
10088W        W12288  23.337   7.139  23.405  0.1538 -0.1173 -0.0395
10089W        W12289  18.467   4.976  16.904 -0.1459  0.0086  0.0228
10090W        W12290  19.522   1.846   0.788 -0.2403 -0.0430  0.0954
10091W        W12291   4.458   6.417   0.086 -0.2214 -0.0232 -0.0079
10092W        W12292   5.172   5.953  23.998 -0.0695 -0.1628 -0.1081
10093W        W12293  26.007   2.434   2.979 -0.1871  0.0079  0.0364
10094W        W12294  15.107   6.142  10.659  0.2180 -0.0050  0.2672
10095W        W12295   0.607   6.588   7.317 -0.2008 -0.0929  0.1356
10096W        W12296   3.766   3.470  22.650 -0.2521 -0.1386  0.4162
10097W        W12297  17.595   7.265   5.678 -0.2712 -0.2635  0.2694
10098W        W12298  19.481   4.702  23.516 -0.4802  0.6080 -0.1172
10099W        W12299   8.921   7.225  20.358 -0.2035 -0.1359  0.3312
10100W        W12300  13.265   3.880   5.272 -0.0741  0.1470  0.4328
10101W        W12301  12.651   7.314   7.500 -0.1810  0.2518  0.1420
10102W        W12302   6.519   5.829   7.784  0.0882  0.1298  0.3235
10103W        W12303  11.543   3.966  17.102 -0.0090  0.0020  0.1273
10104W        W12304  24.506   5.890  16.548  0.4872  0.0446  0.1565
10105W        W12305  31.034   6.456  23.752  0.0236 -0.3762 -0.0835
10106W        W12306   5.612   6.441   2.872 -0.1352  0.0073 -0.6497
10107W        W12307   6.129   7.564   5.055  0.0553 -0.0132  0.1706
10108W        W12308  16.340   5.124   0.129 -0.3151 -0.1391  0.2132
10109W        W12309   8.460   7.247   0.485 -0.2353  0.1432 -0.3119
10110W        W12310  31.362   7.230  20.972  0.0508 -0.0869 -0.0406
10111W        W12311  20.646   4.981  17.842  0.0488 -0.0162  0.1755
10112W        W12312  15.742   7.704   5.657  0.0759  0.3216 -0.1774
10113W        W12313  21.352   0.881  18.122  0.3760 -0.1370 -0.0802
10114W        W12314   5.513   3.793  19.448  0.1583 -0.3048 -0.0212
10115W        W12315   7.018   6.744  23.591  0.2078 -0.1558 -0.1937
10116W        W12316   6.879   0.616   0.872  0.1001 -0.0003  0.2643
10117W        W12317  17.179   4.414   0.531  0.0454  0.2039  0.0319
10118W        W12318   2.600   4.674  10.470  0.0265 -0.0008 -0.0485
10119W        W12319  17.634   2.251   1.918 -0.0055  0.3689 -0.2860
10120W        W12320   1.075   1.433  15.739  0.2793 -0.0497  0.3243
10121W        W12321   7.988   0.729   8.703 -0.1226 -0.0186  0.3502
10122W        W12322  17.894   0.912   7.861 -0.2284  0.2003 -0.1655
10123W        W12323  16.851   7.102  19.638  0.0878  0.2105  0.0274
10124W        W12324   8.374   2.984  21.119  0.0239  0.3575 -0.1321
10125W        W12325  23.732   7.826   7.074 -0.0422  0.0750  0.3098
10126W        W12326  21.660   6.875  21.860  0.3105 -0.0405  0.2396
10127W        W12327  21.989   1.477   5.620 -0.0676  0.1554 -0.2938
10128W        W12328  20.450   4.303  18.377 -0.1122 -0.1799 -0.1086
10129W        W12329  27.563   6.035   6.586 -0.2645  0.2098 -0.2622
10130W        W12330   7.698   3.781   3.487 -0.1439 -0.0314  0.0624
10131W        W12331  28.251   7.067  10.686  0.0081 -0.0249  0.1498
10132W        W12332  25.312   2.639  17.128 -0.0376  0.0684 -0.1422
10133W        W12333   2.905   3.219  21.622 -0.2722  0.2202 -0.0184
10134W        W12334  18.349   1.071   2.412 -0.0152 -0.2187 -0.0561
10135W        W12335  24.605   5.109   3.889  0.0644 -0.1921 -0.1010
10136W        W12336  21.682   1.237  24.073  0.0663  0.1567  0.1326
10137W        W12337  10.454   7.022  20.721 -0.1896  0.0268 -0.0054
10138W        W12338  28.014   7.576   0.784  0.0579  0.1567 -0.0293
10139W        W12339  28.370   3.942  10.904  0.0498 -0.0662 -0.0148
10140W        W12340  12.051   1.885  21.786 -0.0486  0.0559  0.0529
10141W        W12341  30.599   0.722  25.544  0.1515  0.0576 -0.1519
10142W        W12342  16.699   2.047  21.293 -0.1462 -0.0865  0.3002
10143W        W12343  10.973   2.001  18.392 -0.2865  0.2402 -0.1066
10144W        W12344   9.435   7.860   1.190  0.2299  0.0530  0.0387
10145W        W12345  30.540   3.592   3.597  0.1694  0.0744 -0.0946
10146W        W12346  28.623   5.790  18.117 -0.0746 -0.0776 -0.0658
10147W        W12347  22.981   3.513  15.912  0.0012 -0.1855 -0.1142
10148W        W12348  28.309   2.275  22.927  0.0744  0.1251 -0.0225
10149W        W12349  28.122   0.233   6.661 -0.1967 -0.0730  0.2913
10150W        W12350  28.273   7.723   8.788  0.0408  0.1923  0.0760
10151W        W12351  28.357   4.992  21.498  0.1485  0.0758 -0.1290
10152W        W12352   9.832   3.987   6.061  0.0934 -0.0409 -0.0772
10153W        W12353  26.163   5.145  25.826  0.1559  0.1895  0.0850
10154W        W12354  23.613   6.954  25.226  0.0961 -0.0815 -0.1573
10155W        W12355  28.795   5.600   5.670 -0.1617  0.0712  0.0020
10156W        W12356   1.987   1.519   5.322 -0.0143  0.1778 -0.1319
10157W        W12357  27.052   7.392   4.349 -0.0418 -0.2590 -0.4087
10158W        W12358   5.902   2.848  22.704 -0.1643 -0.1851  0.1632
10159W        W12359  19.639   4.872   6.901 -0.1676 -0.1365  0.1860
10160W        W12360  16.551   2.625  21.696 -0.1366 -0.0129  0.0512
10161W        W12361  21.375   7.481   1.649  0.2282 -0.0396 -0.0211
10162W        W12362  16.562   5.462   8.144 -0.2683 -0.1105  0.1332
10163W        W12363   4.293   5.620  25.555 -0.4402 -0.0053 -0.2951
10164W        W12364   4.249   1.245  22.479 -0.2590 -0.2671  0.1274
10165W        W12365  29.128   2.372  16.112  0.2685  0.3023 -0.2816
10166W        W12366  22.229   5.089  10.584 -0.0994 -0.2932 -0.0007
10167W        W12367  28.834   5.747   3.096 -0.2929  0.2026  0.1472
10168W        W12368  27.147   7.527  17.489  0.0353  0.2125  0.1200
10169W        W12369  21.736   2.590  16.786 -0.0598 -0.0039 -0.0334
10170W        W12370   8.975   3.354  17.550 -0.1539  0.0991  0.1612
10171W        W12371   6.727   7.032   2.175  0.1077  0.1855 -0.0731
10172W        W12372   4.539   3.771   2.317  0.0657 -0.0930 -0.2163
10173W        W12373   5.314   7.650   6.486  0.1536 -0.3240 -0.0519
10174W        W12374   0.258   2.769   4.609  0.2096 -0.1124 -0.5212
10175W        W12375  11.070   0.640  22.095 -0.1753  0.0065 -0.1037
10176W        W12376   5.937   7.004  11.143 -0.1272 -0.0535 -0.2427
10177W        W12377   6.767   4.084   1.466  0.2820 -0.0549 -0.0567
10178W        W12378  16.038   6.148  18.271  0.0697 -0.0278  0.0545
10179W        W12379   5.920   7.512  11.054  0.0880 -0.0340 -0.1343
10180W        W12380  16.882   6.324  24.525  0.0525 -0.1671  0.2491
10181W        W12381  21.770   5.563   3.031  0.2079  0.2321 -0.0469
10182W        W12382   7.081   6.372   1.700  0.1275 -0.2313  0.1980
10183W        W12383  15.315   0.201   8.712  0.0616 -0.3662  0.2122
10184W        W12384   2.828   1.713  18.215 -0.0204 -0.1656 -0.2001
10185W        W12385  29.559   0.048   8.736 -0.1458  0.1936 -0.2934
10186W        W12386  12.456   7.219  17.018 -0.0731 -0.0204 -0.0187
10187W        W12387  17.160   3.867  21.302  0.0505  0.2641  0.1206
10188W        W12388  21.952   5.926   7.546  0.1358  0.1218 -0.0682
10189W        W12389   3.634   2.338  10.083 -0.1240  0.1248 -0.1157
10190W        W12390  20.617   1.963  23.568 -0.0514 -0.0427 -0.3878
10191W        W12391  19.946   3.047  20.309 -0.2358  0.3155  0.2167
10192W        W12392   6.305   5.415   9.295 -0.0397  0.0046 -0.0367
10193W        W12393  28.922   4.782   5.164 -0.1545  0.2944  0.1254
10194W        W12394  10.283   6.992   3.328  0.0822 -0.4800 -0.3155
10195W        W12395  17.742   7.806   0.853 -0.0053  0.2773 -0.2310
10196W        W12396   2.953   3.412  23.036  0.3350  0.2729 -0.0554
10197W        W12397  22.024   2.143   2.746  0.0911 -0.1819 -0.0069
10198W        W12398  15.842   4.648   9.646  0.0730 -0.0601  0.3117
10199W        W12399  13.410   0.216  16.792 -0.0697  0.3116  0.0537
10200W        W12400  17.328   3.048  20.666  0.1310 -0.1728 -0.0937
10201W        W12401  10.382   2.107   2.450 -0.2125 -0.3646  0.0405
10202W        W12402  23.839   5.409  22.083  0.4782  0.1374  0.2392
10203W        W12403   4.046   4.823  18.851  0.0190 -0.0320  0.1285
10204W        W12404   3.307   6.122   7.069  0.0517  0.0091 -0.1105
10205W        W12405  10.033   0.209   2.870 -0.2720 -0.0982  0.0824
10206W        W12406  29.263   0.108   6.457 -0.0235  0.1989 -0.0557
10207W        W12407  10.420   7.669   7.674 -0.0118  0.0194  0.0825
10208W        W12408  30.814   1.181  21.066 -0.0698  0.0216 -0.2204
10209W        W12409  23.953   2.849   9.806  0.2131 -0.3764  0.1521
10210W        W12410   3.734   7.239   2.109  0.0043  0.0457  0.1237
10211W        W12411   0.645   1.948   2.931 -0.0552  0.1740 -0.1438
10212W        W12412  17.490   5.066   4.318  0.2780  0.2172  0.0628
10213W        W12413  13.428   3.176  16.725  0.3612  0.1265 -0.2106
10214W        W12414  16.450   1.793   3.238 -0.0238  0.2043  0.0539
10215W        W12415  26.849   3.902  14.921  0.2316  0.1133  0.4405
10216W        W12416  26.462   5.372  25.236  0.0573  0.0977  0.0203
10217W        W12417  14.268   5.952  22.060  0.1427  0.1538 -0.1472
10218W        W12418   2.822   5.643  19.346  0.1502 -0.1559 -0.1902
10219W        W12419  26.922   0.192   9.736  0.0154  0.1933  0.0763
10220W        W12420  13.697   1.438  18.491  0.0741 -0.0084  0.1985
10221W        W12421  23.530   0.739   7.452  0.2810  0.1204 -0.3553
10222W        W12422   0.387   3.887  15.165 -0.4282 -0.2553 -0.1321
10223W        W12423  19.501   0.014   0.081  0.0177  0.0840  0.0199
10224W        W12424  18.785   7.129  15.980 -0.1005  0.0101  0.3291
10225W        W12425  27.740   6.431  17.257  0.1277 -0.0838 -0.1769
10226W        W12426   4.094   4.199  18.455 -0.0290  0.0392  0.0006
10227W        W12427   7.861   4.718  17.680  0.2498 -0.0363  0.1127
10228W        W12428  18.912   2.201  15.684 -0.0691  0.1021 -0.0999
10229W        W12429  16.920   5.905  24.304 -0.2453  0.0779 -0.3784
10230W        W12430   0.545   0.875   9.742 -0.1345 -0.1544 -0.0747
10231W        W12431  21.199   0.657  10.378  0.0729 -0.0865 -0.0302
10232W        W12432  30.403   5.665  21.905 -0.0053 -0.2952  0.1423
10233W        W12433   9.672   6.478  18.775 -0.1139  0.0562 -0.0418
10234W        W12434   3.177   2.985   4.540 -0.1789 -0.1332  0.0106
10235W        W12435  24.127   6.715  25.150  0.0606  0.2384  0.0458
10236W        W12436  12.735   7.706  22.017 -0.0023  0.1143  0.0988
10237W        W12437  26.076   6.989   9.374 -0.1116  0.2653 -0.1405
10238W        W12438   5.785   4.637   2.899 -0.1890  0.0805  0.1419
10239W        W12439  13.434   7.351  22.486  0.0037 -0.2933 -0.1544
10240W        W12440  30.496   6.902  21.559  0.1321  0.1819 -0.0299
10241W        W12441   1.952   0.070  20.513 -0.0719  0.0281 -0.2758
10242W        W12442  29.200   0.868   0.698  0.0608  0.2574  0.1562
10243W        W12443   8.087   7.315   1.846 -0.3217  0.3620  0.0826
10244W        W12444  13.598   3.467  20.726  0.1684 -0.0828  0.1194
10245W        W12445  23.975   3.301  20.200  0.0551 -0.1605 -0.1085
10246W        W12446   9.008   2.464  23.629  0.0585 -0.1547  0.0088
10247W        W12447   3.984   4.144   6.605 -0.2561 -0.0862 -0.1131
10248W        W12448  21.757   1.168  18.105  0.2759  0.0116  0.1842
10249W        W12449  15.931   2.981   3.949 -0.0597 -0.1008 -0.1248
10250W        W12450   2.935   0.148  15.444  0.1097  0.1787  0.0155
10251W        W12451   8.590   3.285   4.843 -0.0465 -0.1015  0.3318
10252W        W12452   7.565   7.132  11.116  0.3631 -0.3534  0.0462
10253W        W12453   9.476   3.984   3.884  0.2228 -0.1349  0.0381
10254W        W12454  25.824   6.592   9.790 -0.2685  0.0940  0.3292
10255W        W12455   8.532   0.640  17.150  0.0075  0.0020 -0.2072
10256W        W12456   1.163   4.713   2.186 -0.0581  0.2598 -0.0805
10257W        W12457  30.199   0.096  15.935 -0.1018  0.1163 -0.0372
10258W        W12458   0.966   2.269   0.219 -0.0242 -0.2148 -0.0039
10259W        W12459  24.436   7.292  23.886 -0.0297 -0.0023  0.2259
10260W        W12460   0.349   4.831   9.169  0.1701  0.3041  0.0182
10261W        W12461  18.674   4.243  18.600  0.3683  0.0739  0.0047
10262W        W12462  29.572   3.314  24.413 -0.0446 -0.0482 -0.1817
10263W        W12463  18.849   5.582  18.100  0.0235  0.2034 -0.4442
10264W        W12464  20.476   0.212  10.574  0.0914 -0.2339  0.2221
10265W        W12465  12.358   3.464   1.105  0.1027 -0.2508 -0.2029
10266W        W12466   4.959   5.069   2.240  0.0570  0.4211  0.2589
10267W        W12467   2.561   7.743   6.585  0.0547  0.1687  0.2726
10268W        W12468  18.967   5.774   5.215  0.1031  0.3505 -0.2396
10269W        W12469  20.499   3.622   6.789 -0.5646 -0.0367 -0.0587
10270W        W12470  15.364   3.902  24.312  0.0825  0.1923  0.3989
10271W        W12471  22.653   6.364   1.719  0.3336 -0.0402 -0.0377
10272W        W12472  29.157   0.126  14.841  0.2211 -0.0168 -0.0081
10273W        W12473  18.287   2.211   1.304  0.4516 -0.1943  0.1843
10274W        W12474  17.898   5.214  19.828 -0.0585  0.0220  0.4043
10275W        W12475   7.682   7.835   2.794 -0.1441  0.0236 -0.1723
10276W        W12476  15.381   7.031  24.389 -0.0388 -0.0133 -0.3760
10277W        W12477  25.667   4.399   8.840  0.1985  0.0572 -0.0437
10278W        W12478  18.150   6.856   8.286  0.0211 -0.1446 -0.1060
10279W        W12479  23.970   3.841   8.033  0.0260 -0.0437  0.1748
10280W        W12480  21.508   1.740   8.519  0.0569  0.1470  0.0652
10281W        W12481   7.832   3.920   7.780  0.0006 -0.2609  0.0161
10282W        W12482  18.381   3.634  23.675  0.2146 -0.1460 -0.1938
10283W        W12483  31.282   0.687   2.581  0.0650  0.2238 -0.2406
10284W        W12484  13.588   7.393   1.019 -0.0525 -0.0065  0.1211
10285W        W12485   7.660   2.931   2.537 -0.3224  0.0628  0.3089
10286W        W12486  18.023   4.763  16.993  0.0944 -0.1832 -0.2960
10287W        W12487   9.403   4.825  26.041  0.3037 -0.3231  0.0326
10288W        W12488  28.763   6.810   2.605 -0.0470  0.0683  0.3091
10289W        W12489  24.544   4.448   0.789  0.1523  0.1161 -0.0427
10290W        W12490  19.987   3.185  18.172 -0.0738  0.2716 -0.1423
10291W        W12491   1.085   2.975   6.487 -0.0139  0.1055  0.1666
10292W        W12492  17.237   6.188  21.854 -0.2898  0.1425 -0.2135
10293W        W12493  25.700   0.713  19.881  0.0326 -0.0496 -0.2575
10294W        W12494   7.518   5.336   8.764 -0.0746  0.0597  0.2291
10295W        W12495  30.293   4.837   3.615 -0.0747  0.0105 -0.2362
10296W        W12496  29.397   6.181  17.694 -0.2206 -0.0321 -0.0742
10297W        W12497  26.757   3.641  24.894  0.1112 -0.0373  0.0291
10298W        W12498  18.606   7.179  18.787 -0.1791  0.3372 -0.3200
10299W        W12499  10.880   0.310   8.853 -0.0005 -0.1263 -0.3630
10300W        W12500  22.971   0.015  20.927 -0.4469 -0.6382 -0.1018
10301W        W12501  18.896   6.840   3.342  0.0242 -0.0847 -0.1080
10302W        W12502   4.584   7.430   5.796 -0.0448 -0.2538 -0.1162
10303W        W12503  10.199   0.957   2.009  0.1217 -0.0017  0.1164
10304W        W12504  20.020   1.486   6.930  0.0431  0.4419 -0.2468
10305W        W12505  31.322   1.894   3.178 -0.1561  0.2512 -0.2599
10306W        W12506  22.355   4.770   3.437  0.1043 -0.0736  0.0048
10307W        W12507  15.654   3.222  22.454  0.1417 -0.0433 -0.0383
10308W        W12508   5.549   7.594  17.735 -0.1078  0.0669  0.0976
10309W        W12509  22.415   0.692  22.585  0.1527  0.3529 -0.0616
10310W        W12510  13.042   2.728   5.075  0.1525 -0.0250 -0.0432
10311W        W12511  22.353   1.926  25.581  0.2537  0.2297  0.1287
10312W        W12512  20.432   1.127  19.669 -0.0928 -0.0316  0.0261
10313W        W12513   1.284   7.673  21.520 -0.1582 -0.1461 -0.3742
10314W        W12514  31.163   1.574  16.505  0.1889 -0.0926  0.1127
10315W        W12515  28.739   7.111  22.603  0.0178 -0.1357 -0.2588
10316W        W12516  11.674   4.974   2.660 -0.1825  0.0385 -0.0393
10317W        W12517  21.170   3.739  18.184 -0.4173  0.0545  0.0796
10318W        W12518  18.715   7.781  23.853 -0.2608 -0.2067  0.0133
10319W        W12519  19.733   6.886   6.653 -0.4897 -0.2568  0.3723
10320W        W12520  25.701   4.665   4.534 -0.2061  0.2877  0.1825
10321W        W12521  30.287   6.913  20.398 -0.2410  0.1350 -0.0784
10322W        W12522   0.130   5.399   7.659 -0.1896 -0.2034  0.0568
10323W        W12523  29.035   5.046  17.087 -0.0935  0.1520 -0.2072
10324W        W12524  20.765   3.198   1.938  0.0887  0.1795 -0.2722
10325W        W12525  21.702   2.041  16.695  0.2698 -0.6242  0.1186
10326W        W12526   3.476   6.567  17.230  0.3538  0.1678  0.0247
10327W        W12527   8.422   3.917   9.163 -0.1244  0.2073  0.1100
10328W        W12528  13.162   5.061  21.122  0.3168  0.0201 -0.0100
10329W        W12529  22.137   0.973  23.979  0.3574 -0.0771  0.1081
10330W        W12530  25.072   3.493  24.749  0.1679  0.0533  0.0322
10331W        W12531  20.200   5.206  23.632 -0.1197  0.0372 -0.4635
10332W        W12532  10.512   0.490   0.481  0.0813 -0.4244  0.2074
10333W        W12533  29.898   7.293  16.204  0.2526  0.2737  0.1725
10334W        W12534   7.188   4.264   1.184 -0.1625 -0.2574 -0.0308
10335W        W12535   5.925   7.810  16.218  0.0952 -0.0449  0.0905
10336W        W12536  10.707   1.141  22.284 -0.2325 -0.0445 -0.0009
10337W        W12537   7.603   4.999   5.458  0.0997  0.1379 -0.2696
10338W        W12538  21.489   6.515   3.665 -0.0102  0.0651  0.1429
10339W        W12539  26.624   6.394   6.386  0.0960 -0.1022  0.0040
10340W        W12540   7.861   6.482   9.348 -0.0120 -0.0573  0.0490
10341W        W12541  16.040   2.637   4.352 -0.0107  0.1099 -0.0267
10342W        W12542  14.541   7.265   0.256  0.0398 -0.1983  0.1967
10343W        W12543  22.404   6.377   1.260 -0.0601  0.0303 -0.1435
10344W        W12544  15.736   0.176  22.765  0.2357 -0.0601 -0.0109
10345W        W12545   6.590   6.208  20.069  0.0558 -0.1663  0.0428
10346W        W12546  13.128   5.406  25.404 -0.2856 -0.0396 -0.1880
10347W        W12547  24.077   1.399  10.075  0.1932 -0.1959 -0.0648
10348W        W12548  31.237   0.833   3.851  0.2137 -0.1365  0.0210
10349W        W12549  21.687   0.048  15.778  0.0812  0.0377  0.0780
10350W        W12550   6.286   7.127   1.932 -0.1990  0.1190 -0.0375
10351W        W12551   2.266   4.205  17.594  0.4546 -0.0622 -0.1529
10352W        W12552   0.321   7.757  25.397 -0.1838  0.1643  0.2298
10353W        W12553   8.650   4.869   5.528 -0.0059 -0.2553 -0.1869
10354W        W12554  29.882   3.893  23.297 -0.1886 -0.4397  0.2436
10355W        W12555   5.280   3.731   8.022  0.2448 -0.0026 -0.1420
10356W        W12556  19.231   7.371   3.676  0.0133 -0.0396  0.0925
10357W        W12557  27.632   1.544  18.813 -0.0169 -0.0799  0.0049
10358W        W12558  19.331   0.530   9.983  0.0343  0.1810  0.0244
10359W        W12559  16.885   0.404   5.126 -0.1409 -0.1634 -0.1416
10360W        W12560   2.224   0.251  20.094  0.0356  0.0530  0.3075
10361W        W12561   8.750   2.714  17.800 -0.1129 -0.3318  0.2193
10362W        W12562  14.237   3.304   8.841 -0.0644 -0.3822 -0.2364
10363W        W12563  11.740   4.173   7.454  0.0381 -0.0326 -0.2302
10364W        W12564   5.993   7.539  18.819  0.0113 -0.1049 -0.2800
10365W        W12565  24.786   5.867  21.962 -0.1109 -0.0265 -0.2379
10366W        W12566  10.331   4.640  22.940 -0.2158 -0.1800  0.1351
10367W        W12567   9.579   4.898   5.065 -0.0528 -0.1571 -0.0831
10368W        W12568  24.912   4.384   3.709 -0.4118  0.3297 -0.0413
10369W        W12569  16.133   1.549   4.626 -0.1132  0.0826  0.0655
10370W        W12570   8.431   5.753   2.056 -0.0222 -0.3330 -0.0218
10371W        W12571   8.300   6.279  18.280 -0.2557 -0.0693  0.0294
10372W        W12572   4.587   5.443  16.966  0.0526  0.0627  0.0878
10373W        W12573  13.412   7.293  22.974 -0.5328 -0.0236 -0.0254
10374W        W12574  13.612   0.545  22.388  0.0331  0.2236 -0.1899
10375W        W12575  31.142   5.530   2.818 -0.0023  0.2711 -0.2619
10376W        W12576  12.697   5.619  24.122 -0.2027  0.1089 -0.1360
10377W        W12577  18.495   4.415   9.431 -0.1035  0.0072  0.0927
10378W        W12578   0.662   3.070  21.247 -0.0492 -0.3970  0.0189
10379W        W12579  11.714   2.671  25.542  0.0331 -0.0598 -0.0169
10380W        W12580   1.192   2.474  21.616 -0.0084  0.3256  0.0585
10381W        W12581  21.948   0.369   1.568  0.0626 -0.0914 -0.0548
10382W        W12582  17.367   2.221  22.806 -0.1775  0.1100  0.0748
10383W        W12583  14.721   6.003  22.654  0.2878  0.0977 -0.1929
10384W        W12584   7.794   6.498   9.916 -0.0629  0.0873  0.1732
10385W        W12585  14.908   6.643  25.977 -0.2913  0.3162 -0.1536
10386W        W12586  31.161   4.861  19.108  0.2735 -0.1761 -0.0363
10387W        W12587  23.197   4.499  22.353 -0.0259  0.0380 -0.1748
10388W        W12588  26.759   5.447   1.632 -0.0520 -0.0610 -0.0419
10389W        W12589  22.238   6.043  18.191 -0.0091  0.0076  0.0822
10390W        W12590   1.982   1.751   0.228 -0.0951  0.0421  0.0195
10391W        W12591   8.863   1.066   5.249 -0.0371  0.0802  0.1951
10392W        W12592  19.650   6.419  19.002 -0.0015  0.3584 -0.1654
10393W        W12593  11.596   5.511  21.004  0.2453 -0.0611  0.2264
10394W        W12594   2.500   6.497   3.972  0.1327 -0.0258 -0.1004
10395W        W12595   8.610   7.820  17.864  0.2209 -0.1902  0.3927
10396W        W12596   0.481   6.602   5.675 -0.0356  0.0011  0.3105
10397W        W12597  29.303   0.093  22.977 -0.1954  0.1035 -0.3632
10398W        W12598  25.236   6.253  20.935  0.0481 -0.0233  0.0119
10399W        W12599  10.372   4.135  21.464  0.0678 -0.0034  0.1806
10400W        W12600  29.384   5.651   9.078 -0.1204  0.0886  0.0932
10401W        W12601  14.787   7.573  24.640  0.1285 -0.0762 -0.1172
10402W        W12602  23.446   4.538  18.221  0.1234 -0.1061 -0.0122
10403W        W12603  29.582   5.621   2.508  0.0318  0.0396 -0.0538
10404W        W12604   9.630   2.751   6.421 -0.0494 -0.0546 -0.0942
10405W        W12605  10.786   2.213  17.993  0.1926 -0.0897  0.0690
10406W        W12606   0.578   6.665  23.612  0.0135 -0.2731 -0.0494
10407W        W12607  18.974   0.528  11.359  0.1424  0.1080 -0.0130
10408W        W12608   2.765   7.367   6.335 -0.2067  0.1571  0.1030
10409W        W12609   2.586   6.197  15.303 -0.2731 -0.0486 -0.3443
10410W        W12610  20.917   7.708  21.252 -0.3088  0.0308  0.0049
10411W        W12611  17.190   3.240   0.290  0.0851 -0.4419  0.1059
10412W        W12612  11.744   4.484  25.703 -0.0308  0.0009 -0.2720
10413W        W12613  31.368   5.201  20.331 -0.0323 -0.1864  0.0343
10414W        W12614   6.624   2.118  20.104  0.5871  0.0765 -0.4635
10415W        W12615   5.818   5.161  20.662 -0.2864  0.1071  0.0046
10416W        W12616  25.210   3.834   2.439  0.1105  0.2363 -0.2368
10417W        W12617  29.640   6.586  24.185 -0.1482 -0.0221  0.2725
10418W        W12618  11.251   0.435  17.541  0.1614 -0.0434 -0.2672
10419W        W12619  30.990   1.400   5.806  0.0191  0.1591  0.0893
10420W        W12620  13.348   1.268   4.005  0.1305  0.0122 -0.0475
10421W        W12621  29.511   5.765   5.290 -0.3814 -0.0197 -0.0285
10422W        W12622  26.561   6.553  16.739 -0.1043  0.3208 -0.1668
10423W        W12623   2.305   1.560   9.178  0.0718  0.2617  0.3052
10424W        W12624  21.088   5.423  20.650  0.1820  0.2481  0.2741
10425W        W12625  12.221   1.203   7.318  0.1043 -0.2711  0.0978
10426W        W12626  28.627   1.496  16.306  0.1823 -0.2548  0.1099
10427W        W12627  13.583   0.709   2.063  0.1895 -0.1752  0.2040
10428W        W12628  30.592   2.524  15.067  0.0363  0.2194  0.1046
10429W        W12629  12.326   5.940  10.991 -0.4195  0.1148 -0.1175
10430W        W12630   4.657   3.132   6.496  0.0950  0.1669 -0.0295
10431W        W12631   2.697   0.563  17.685  0.1637 -0.1619  0.2974
10432W        W12632  16.036   2.500  17.074  0.0881  0.0842  0.1127
10433W        W12633  27.229   1.421   4.615  0.1362 -0.0218  0.1437
10434W        W12634  15.060   1.517  18.141  0.1337  0.3460  0.2178
10435W        W12635  26.141   1.435   4.346  0.0498  0.4265  0.1512
10436W        W12636  15.646   4.745   7.748 -0.2091 -0.0753  0.2541
10437W        W12637  29.673   0.311   8.305 -0.0901  0.0382 -0.0429
10438W        W12638  14.876   5.939   7.333  0.0924  0.0794 -0.2690
10439W        W12639   0.902   2.743  20.351 -0.2211 -0.3154  0.0760
10440W        W12640  18.859   1.852  16.630 -0.0458 -0.1566  0.1032
10441W        W12641  28.012   7.215  24.225  0.0344  0.1842  0.0431
10442W        W12642  10.392   6.554  20.515 -0.1030  0.0480  0.1402
10443W        W12643  29.879   6.165   1.666  0.0388  0.0768 -0.0041
10444W        W12644  15.941   4.037  20.184  0.1482  0.1365 -0.0851
10445W        W12645  23.571   5.041   3.158  0.0555  0.0624  0.1844
10446W        W12646   4.576   6.406  18.679  0.0777 -0.0619 -0.1592
10447W        W12647  24.265   4.856  20.353 -0.1040 -0.2061 -0.0030
10448W        W12648   7.791   5.211  26.030 -0.3457 -0.0139  0.0326
10449W        W12649   6.495   5.630  11.409 -0.0196  0.1382 -0.1568
10450W        W12650  30.629   4.785  16.104  0.0338 -0.1192 -0.0313
10451W        W12651  12.397   1.331  15.324  0.2390 -0.1089 -0.0141
10452W        W12652  30.188   0.028  10.494  0.2198  0.1364  0.2548
10453W        W12653  13.728   4.956   6.094 -0.0379  0.1078 -0.4827
10454W        W12654  29.054   3.859  19.391  0.0104 -0.3364  0.0261
10455W        W12655   7.242   6.782   8.038 -0.0283 -0.1392  0.2797
10456W        W12656  19.365   3.477   7.116 -0.0842 -0.2816 -0.1015
10457W        W12657  24.966   7.182   8.198 -0.0166  0.1584 -0.0403
10458W        W12658  17.077   2.640  24.481 -0.0654 -0.1268  0.1501
10459W        W12659  28.888   4.630   1.377  0.1283  0.1161 -0.1324
10460W        W12660  17.610   0.795  25.717  0.2079  0.1997 -0.0454
10461W        W12661  13.375   0.448  18.675  0.1569 -0.0216 -0.0574
10462W        W12662   0.228   1.399  25.619  0.1405 -0.0989  0.0750
10463W        W12663  31.010   2.579  23.116  0.0258 -0.4839  0.3342
10464W        W12664  26.621   7.524  15.255 -0.0473 -0.0614 -0.0536
10465W        W12665  19.337   3.643  11.036 -0.2953  0.0824 -0.1925
10466W        W12666  19.703   2.093   4.068  0.1837  0.0026 -0.0073
10467W        W12667  16.826   7.198  10.314 -0.0167 -0.0869  0.2461
10468W        W12668   5.063   4.469  23.889  0.1611  0.0706 -0.1325
10469W        W12669   3.221   1.233  24.259  0.1220 -0.1113  0.5019
10470W        W12670   6.449   0.953  16.935  0.3504  0.2033 -0.4154
10471W        W12671  11.862   1.435  15.201 -0.1536  0.1774  0.0758
10472W        W12672   0.616   4.970  15.816  0.0851  0.1247  0.1913
10473W        W12673   0.296   5.504  25.443  0.2350  0.0445  0.0832
10474W        W12674  29.164   2.032  17.078  0.0118 -0.0447  0.0187
10475W        W12675  11.999   3.526  21.754  0.3134 -0.0030 -0.1775
10476W        W12676   7.069   7.827   6.462  0.2055 -0.2652  0.1551
10477W        W12677   6.775   3.263   2.746  0.2396  0.0889  0.2708
10478W        W12678   2.639   6.715  20.438 -0.0016 -0.1126 -0.0014
10479W        W12679   8.577   5.507  20.394 -0.0022  0.2210  0.2350
10480W        W12680  27.772   0.568   3.623  0.1205  0.3481  0.2353
10481W        W12681   7.791   7.310  16.072 -0.4253 -0.0302 -0.0047
10482W        W12682  27.823   2.129  24.934  0.1856 -0.2753  0.0542
10483W        W12683  17.793   7.464   2.680  0.2064  0.0145  0.1151
10484W        W12684   0.471   5.666  17.155 -0.1032  0.1011 -0.3051
10485W        W12685   4.593   6.917   5.671 -0.4060  0.2197  0.2063
10486W        W12686  25.063   4.125  19.234 -0.0821  0.0113  0.0234
10487W        W12687   0.843   3.197   1.537  0.4684  0.1176  0.1120
10488W        W12688   6.527   3.439   7.780 -0.2911 -0.0310 -0.0271
10489W        W12689  20.348   7.243   7.622  0.2158 -0.1820  0.2639
10490W        W12690   0.531   7.354  17.649 -0.0360 -0.2049 -0.2676
10491W        W12691  13.472   5.691  15.743 -0.1203  0.0451 -0.0611
10492W        W12692   1.027   6.904  22.882 -0.0035 -0.1837 -0.0648
10493W        W12693  27.939   1.506   6.845 -0.2366  0.0827  0.2310
10494W        W12694   0.112   1.430   0.926  0.1214 -0.0751 -0.1081
10495W        W12695  21.044   3.735  24.476  0.3329  0.3462  0.3101
10496W        W12696  16.978   3.227   5.234 -0.0408  0.1634  0.0484
10497W        W12697   9.064   1.713   3.382  0.1441 -0.2230  0.0953
10498W        W12698  17.579   7.043  16.657  0.2132  0.2357 -0.2475
10499W        W12699  24.375   1.904   2.143 -0.0108  0.3370  0.2549
10500W        W12700  16.747   4.316  16.826  0.0058 -0.1010 -0.0040
10501W        W12701  28.686   2.123  24.826  0.1481  0.1509  0.1795
10502W        W12702  23.017   0.752  19.729 -0.1689 -0.0542  0.0566
10503W        W12703   0.316   3.492  19.890 -0.2037 -0.0435  0.1796
10504W        W12704   6.601   2.357  24.488 -0.0350 -0.1452 -0.0712
10505W        W12705  18.305   0.774   8.534 -0.0380 -0.0719 -0.3092
10506W        W12706  17.322   7.216   0.544 -0.1501 -0.2012  0.1033
10507W        W12707   7.985   5.230   8.984 -0.4329  0.1420 -0.1096
10508W        W12708   0.696   0.396  22.165 -0.2419  0.0593  0.0554
10509W        W12709  20.736   4.616  19.835 -0.1189 -0.2341 -0.0919
10510W        W12710   9.103   4.212   6.584  0.0005  0.0670 -0.0573
10511W        W12711   8.212   0.069   3.786 -0.0235 -0.2642 -0.0785
10512W        W12712  17.555   0.462  18.653 -0.1144 -0.2729  0.0391
10513W        W12713  13.304   2.701  16.013  0.3656 -0.1597  0.0199
10514W        W12714  13.132   6.646  19.795 -0.1113  0.0982 -0.0546
10515W        W12715  30.475   1.677  23.226  0.2696  0.0185  0.0429
10516W        W12716   1.791   3.212  15.740  0.2359  0.0376  0.1548
10517W        W12717  25.228   4.505  23.554 -0.1169 -0.0572 -0.1961
10518W        W12718   5.124   1.019   7.029 -0.2032  0.0139 -0.0627
10519W        W12719  24.574   7.754   2.049 -0.1886  0.4627 -0.2282
10520W        W12720  14.910   7.693  20.114 -0.3406 -0.3132  0.1505
10521W        W12721   5.544   2.940   7.675  0.1596 -0.4316  0.0024
10522W        W12722   0.184   7.166   9.496 -0.0146 -0.0439  0.1385
10523W        W12723   0.208   4.942   6.172 -0.0017  0.2187  0.4365
10524W        W12724  27.974   6.968   6.857  0.2111 -0.0319  0.0043
10525W        W12725  24.855   6.155   2.550  0.0671 -0.0038  0.0907
10526W        W12726  28.074   1.235  23.451 -0.1375 -0.1843  0.0685
10527W        W12727   8.284   1.530  20.404 -0.1861  0.1063 -0.0411
10528W        W12728   0.669   1.984  22.040 -0.2811  0.3282  0.0402
10529W        W12729  27.797   7.245  21.654  0.1199 -0.0703  0.1141
10530W        W12730  14.267   5.479  16.512  0.1478  0.0484 -0.0422
10531W        W12731   0.404   5.195  20.526  0.1249 -0.2145  0.1362
10532W        W12732  26.352   6.361   1.665 -0.2735  0.1227 -0.2348
10533W        W12733  29.337   0.813  19.074 -0.0332  0.0745  0.0164
10534W        W12734   0.527   1.949  25.729 -0.0578 -0.1971  0.1884
10535W        W12735   4.654   0.531  24.147  0.0848  0.0654  0.0607
10536W        W12736   9.437   5.884  17.541 -0.1055  0.1871  0.1429
10537W        W12737  16.558   0.744   2.395  0.4636 -0.0395 -0.0378
10538W        W12738  21.346   1.046  24.427  0.1923  0.0855 -0.1670
10539W        W12739  23.857   4.741  15.132  0.1260 -0.0753  0.0247
10540W        W12740   9.222   1.310  24.404 -0.3291 -0.2089 -0.1249
10541W        W12741   0.056   4.549   5.590  0.0373  0.0999  0.0714
10542W        W12742  26.081   5.624  10.933 -0.1085 -0.0952 -0.1290
10543W        W12743   7.048   3.009  19.115 -0.1518 -0.0270  0.0459
10544W        W12744  17.858   1.310  11.087 -0.3474 -0.0281 -0.1796
10545W        W12745   6.584   5.776  23.778  0.0320 -0.1828  0.1566
10546W        W12746   7.786   5.760  26.056  0.0374 -0.0014 -0.0163
10547W        W12747  13.886   7.347   6.793  0.0372  0.3349  0.1438
10548W        W12748  21.757   4.171   8.231  0.0352  0.0750 -0.4074
10549W        W12749   6.294   0.114  17.200 -0.1478 -0.1561 -0.0789
10550W        W12750  19.043   0.304   2.566  0.1537  0.0339 -0.2185
10551W        W12751   7.921   2.698   8.139 -0.0278 -0.0455  0.1147
10552W        W12752  13.436   0.400  19.629  0.0588  0.1365 -0.3277
10553W        W12753  13.084   3.549   2.849 -0.1298  0.1963  0.2313
10554W        W12754  25.969   0.968   4.239  0.1866 -0.2331 -0.0364
10555W        W12755   6.528   5.839  21.949  0.1399 -0.2102  0.0712
10556W        W12756  10.627   2.543   7.537 -0.0850 -0.0357  0.0701
10557W        W12757   2.601   6.512  15.737 -0.5700  0.1292 -0.0143
10558W        W12758  13.787   2.169  20.075 -0.1821  0.2973 -0.0360
10559W        W12759  17.540   4.153  25.093 -0.2574  0.2436  0.2251
10560W        W12760  16.525   4.036   6.169 -0.0126  0.1212  0.1302
10561W        W12761   5.089   5.139   4.304 -0.0995  0.1415 -0.2999
10562W        W12762  14.968   4.540   6.919 -0.1258 -0.0185  0.1351
10563W        W12763   6.149   7.153   7.676  0.1697 -0.2968  0.2318
10564W        W12764  16.287   0.390   8.251 -0.0652 -0.1238  0.0804
10565W        W12765  24.482   7.614  22.587 -0.1280 -0.5576 -0.1330
10566W        W12766   5.130   7.797  20.741  0.0813  0.0768  0.1322
10567W        W12767  14.136   1.109  10.237  0.2239 -0.0116  0.1257
10568W        W12768  24.917   2.545   5.997 -0.0285  0.1118  0.0897
10569W        W12769  20.119   0.193  21.933 -0.2045 -0.0417  0.1124
10570W        W12770  14.511   1.907   9.729 -0.1466 -0.0263 -0.0108
10571W        W12771   1.765   0.810  23.589  0.2325  0.1113 -0.3089
10572W        W12772  25.345   1.080   2.843 -0.0950  0.2546 -0.0326
10573W        W12773  19.231   4.057   1.231 -0.3988  0.0426  0.1294
10574W        W12774   8.238   6.357   2.949 -0.1374 -0.0505 -0.1970
10575W        W12775   7.724   5.124  15.751  0.0646 -0.4926  0.2823
10576W        W12776  30.480   0.803   9.941 -0.1856 -0.1738 -0.1887
10577W        W12777  29.386   7.730   6.915  0.3818 -0.2175  0.1223
10578W        W12778  19.210   4.040  18.097  0.2652 -0.1240  0.2593
10579W        W12779  18.518   1.487  16.756  0.1570  0.0446 -0.0562
10580W        W12780  19.367   5.255   4.184 -0.0082 -0.0776  0.1009
10581W        W12781  18.018   0.772  19.910 -0.0253 -0.4498  0.1176
10582W        W12782  25.607   1.825   1.350 -0.1555  0.0478  0.1592
10583W        W12783   3.393   2.156   0.248  0.0716 -0.0821  0.0087
10584W        W12784  12.226   0.629  19.292 -0.0720 -0.0270  0.0636
10585W        W12785  27.690   5.771  19.580 -0.1540  0.0663 -0.1003
10586W        W12786   0.406   1.208  16.507  0.0752  0.0741  0.0064
10587W        W12787   4.355   6.030   7.791 -0.0180 -0.1401  0.0164
10588W        W12788   9.958   4.126   5.601  0.0197 -0.2343 -0.1353
10589W        W12789  17.770   0.122  24.675 -0.1040  0.4477  0.1509
10590W        W12790  12.705   1.472   3.553  0.2698  0.0410  0.3518
10591W        W12791  17.294   4.596  18.948 -0.1221 -0.1302 -0.1240
10592W        W12792  23.038   2.546  17.280 -0.1153 -0.1808  0.2121
10593W        W12793  13.426   4.549  22.245 -0.1283  0.1874 -0.2745
10594W        W12794  22.711   3.486  16.399 -0.3452 -0.0946  0.1158
10595W        W12795   8.956   7.157   2.213 -0.0926 -0.3145  0.0364
10596W        W12796   4.394   5.104   7.216  0.1483 -0.0536 -0.0184
10597W        W12797  19.839   0.450   2.440 -0.0892  0.1670 -0.0949
10598W        W12798  18.147   1.972   4.504 -0.1507 -0.4114 -0.1168
10599W        W12799  28.025   0.763   2.447 -0.0400 -0.0736  0.3353
10600W        W12800   5.806   7.685   6.270  0.0278 -0.0512 -0.1085
10601W        W12801  29.571   0.076  19.766 -0.0844 -0.0995  0.1624
10602W        W12802  25.092   4.110   7.863 -0.1059  0.0980  0.0041
10603W        W12803   6.243   0.076  16.600  0.2144  0.1933  0.2689
10604W        W12804  14.504   7.355  20.385  0.0725  0.1879 -0.1009
10605W        W12805   6.853   3.269  16.443  0.2699 -0.1219 -0.1955
10606W        W12806  13.923   4.637   4.138 -0.1459 -0.0953 -0.0047
10607W        W12807   7.798   3.010  10.187 -0.1259  0.1359 -0.2137
10608W        W12808  19.470   2.130  19.495 -0.5034 -0.3356  0.1988
10609W        W12809  23.891   3.623  24.854 -0.4242 -0.0948  0.2107
10610W        W12810  19.839   4.376   5.655 -0.1046 -0.0152 -0.0978
10611W        W12811  25.381   5.063  23.850  0.0140  0.2887 -0.2050
10612W        W12812  24.130   5.085  21.746  0.2175 -0.2730 -0.4635
10613W        W12813   1.991   0.260   4.319  0.0090  0.0588 -0.1413
10614W        W12814  10.375   5.125   6.433  0.3384 -0.0358  0.0610
10615W        W12815  16.633   3.732  19.543  0.0607  0.0317 -0.2375
10616W        W12816   7.698   1.335   7.320 -0.1836 -0.1688  0.0590
10617W        W12817   6.602   1.947  18.367  0.0964 -0.1446 -0.0865
10618W        W12818  26.134   1.794  24.759 -0.0296 -0.1491  0.0132
10619W        W12819   3.375   4.179  18.987  0.1955  0.0801  0.0707
10620W        W12820   9.351   4.691  24.997  0.0787 -0.0849  0.1874
10621W        W12821   4.609   2.024  22.093 -0.1217  0.0270  0.0103
10622W        W12822   0.299   0.438  15.151  0.0837 -0.0950  0.1426
10623W        W12823  16.278   3.852  17.451 -0.2141  0.0181  0.0933
10624W        W12824  29.107   6.982  23.063 -0.0557  0.2679  0.0464
10625W        W12825   9.143   2.838   3.952  0.2388 -0.1040  0.0799
10626W        W12826  11.383   6.430  21.101 -0.0480 -0.0087 -0.0540
10627W        W12827   2.595   5.946  20.727 -0.1970  0.1198  0.2351
10628W        W12828   2.068   3.804   1.999 -0.2529 -0.1275  0.1339
10629W        W12829   0.905   6.818  20.714  0.2168 -0.0837 -0.1852
10630W        W12830   4.774   3.686   2.731  0.0982 -0.2098 -0.1366
10631W        W12831  12.812   2.233   1.134  0.0951 -0.2515 -0.0246
10632W        W12832  22.240   1.373  19.716  0.2630 -0.0039  0.2371
10633W        W12833  14.671   6.802  22.342 -0.0185  0.2167  0.0484
10634W        W12834  20.980   3.641   1.793  0.1244 -0.0304  0.3337
10635W        W12835  16.423   2.008  22.159 -0.2092  0.1108  0.0564
10636W        W12836  12.370   1.226  17.033 -0.0327  0.0795 -0.2204
10637W        W12837   1.450   3.490   2.656 -0.3070  0.1845 -0.2061
10638W        W12838   7.909   7.520  18.394 -0.0262 -0.2521  0.1197
10639W        W12839  15.954   6.104   0.470 -0.0594  0.0344 -0.1721
10640W        W12840  17.774   1.435   3.002  0.0829 -0.0379 -0.0275
10641W        W12841  17.329   2.818   5.089  0.2288 -0.0378  0.1768
10642W        W12842   7.570   5.707  10.100 -0.3795 -0.0758 -0.0767
10643W        W12843  11.975   6.652   7.236 -0.0320 -0.1361 -0.0222
10644W        W12844  27.048   6.404  16.881 -0.0766 -0.2051 -0.0600
10645W        W12845   3.046   6.677   2.540  0.0815 -0.1076 -0.1380
10646W        W12846  17.897   0.677   0.126 -0.3322 -0.4331 -0.0529
10647W        W12847  13.288   6.259  20.763  0.0917  0.3292 -0.1569
10648W        W12848  20.486   3.215   5.927  0.0992 -0.2913 -0.0578
10649W        W12849  20.519   2.959  21.130  0.1583  0.0089  0.0924
10650W        W12850  11.724   3.220  25.622  0.1529  0.0645  0.0795
10651W        W12851  21.195   5.256   3.097 -0.0423 -0.0557  0.0139
10652W        W12852  20.745   7.840   6.927  0.3082  0.1050  0.0189
10653W        W12853  10.015   6.330  15.579  0.1089  0.2961 -0.2850
10654W        W12854  31.285   4.141  21.610 -0.0955 -0.0016 -0.0368
10655W        W12855  30.773   6.694  17.702  0.0903  0.0091  0.2343
10656W        W12856   8.493   0.162  25.672  0.1651 -0.2979  0.3231
10657W        W12857   6.917   3.834  21.163  0.1177 -0.2590  0.1992
10658W        W12858  18.817   4.102  22.965  0.2026 -0.1647 -0.0110
10659W        W12859   0.791   0.190   6.793 -0.2238  0.1983 -0.0224
10660W        W12860   9.418   3.173  22.036 -0.1364 -0.0296 -0.2772
10661W        W12861   6.892   4.553   1.582 -0.0698 -0.1797  0.0333
10662W        W12862  27.707   0.408  23.682 -0.0712  0.3555 -0.0151
10663W        W12863   8.666   2.031   3.357 -0.0778  0.2743  0.0699
10664W        W12864  21.464   5.280   3.988  0.3955 -0.0506  0.2415
10665W        W12865   0.550   1.919  25.175 -0.0867  0.0857  0.0437
10666W        W12866   3.008   6.593  23.119 -0.1254 -0.1584 -0.0282
10667W        W12867  27.058   6.883   5.295  0.0926 -0.1893 -0.0560
10668W        W12868   6.056   1.135   3.337 -0.0408  0.0978  0.2785
10669W        W12869  29.952   7.511   2.856 -0.3488  0.0943 -0.0289
10670W        W12870  22.542   2.788   3.341 -0.1257 -0.0690  0.0694
10671W        W12871  19.877   2.656  22.372 -0.1033  0.0675 -0.1882
10672W        W12872  25.300   3.030  23.085  0.0439  0.3009  0.1123
10673W        W12873  17.810   5.631  23.925 -0.0113 -0.0634  0.0813
10674W        W12874  30.933   7.783  18.951 -0.0024  0.3457 -0.3161
10675W        W12875   3.451   7.424  25.916  0.0264  0.1992 -0.0038
10676W        W12876   0.336   3.842  24.155 -0.1526  0.3977  0.0577
10677W        W12877  11.530   1.536  10.744  0.3809 -0.0894 -0.0967
10678W        W12878  14.567   4.202  24.181  0.1245  0.1439  0.0779
10679W        W12879  29.097   7.767  25.932 -0.2837 -0.2355  0.2356
10680W        W12880   9.987   2.536   0.549  0.1146 -0.2022 -0.0120
10681W        W12881   4.338   1.973  26.044 -0.2717  0.0537  0.1687
10682W        W12882   3.913   2.827  17.444 -0.0773  0.1138  0.0723
10683W        W12883   7.925   5.198  16.757  0.1347 -0.0510  0.1409
10684W        W12884  29.167   2.847  15.097 -0.0486  0.1420  0.0528
10685W        W12885  22.429   3.231  23.319  0.0531  0.1686 -0.2506
10686W        W12886  24.886   3.086   3.825 -0.0013  0.1561  0.3032
10687W        W12887   8.672   2.405  17.123  0.2386  0.0978  0.2149
10688W        W12888  17.380   1.521  24.416 -0.0987 -0.1471  0.0501
10689W        W12889  25.011   2.682   0.557 -0.2220  0.1571  0.1446
10690W        W12890  29.499   7.481   3.562 -0.1998 -0.0217  0.3528
10691W        W12891  22.897   1.378  14.523 -0.0380 -0.0564 -0.0209
10692W        W12892   6.819   0.482   8.889  0.2041  0.2705  0.1871
10693W        W12893   2.056   4.102  19.826  0.0489 -0.1201 -0.0165
10694W        W12894  18.076   3.124  24.353 -0.0302 -0.2569 -0.2777
10695W        W12895  18.887   1.212   0.744  0.0770  0.2214 -0.0147
10696W        W12896  19.121   5.711   4.315  0.1860  0.2639 -0.2463
10697W        W12897  11.065   0.561   7.471 -0.0968 -0.0069  0.3241
10698W        W12898  23.300   2.796  18.536 -0.3699  0.0574  0.1064
10699W        W12899  16.723   6.862  16.452  0.2209 -0.3558 -0.1080
10700W        W12900   3.502   7.589  17.039  0.1070 -0.1235  0.0303
10701W        W12901  29.165   0.639  10.171  0.1727  0.1080 -0.0349
10702W        W12902   1.772   1.805  21.472 -0.1052 -0.0970  0.1611
10703W        W12903  19.137   0.231   1.569 -0.1759 -0.0969 -0.4144
10704W        W12904  23.531   5.558  17.815  0.0393  0.0621 -0.0453
10705W        W12905  20.945   6.119   7.010 -0.3405  0.0731 -0.2564
10706W        W12906  17.740   5.604  17.173  0.2588 -0.1016 -0.0453
10707W        W12907  11.368   5.164  18.178  0.0961 -0.2876 -0.1296
10708W        W12908  30.096   6.577  22.098 -0.3297  0.0555  0.0474
10709W        W12909  10.996   1.008  15.547 -0.2503  0.2388 -0.4073
10710W        W12910  22.422   7.493  24.168 -0.0847  0.0898 -0.3032
10711W        W12911   4.311   2.632   0.688 -0.0438  0.0927 -0.1466
10712W        W12912   0.541   0.136  23.372  0.1340 -0.0889 -0.0931
10713W        W12913  26.380   6.631   9.522 -0.0887 -0.0712 -0.1201
10714W        W12914  22.830   3.600  25.649 -0.2450  0.0645  0.0112
10715W        W12915  27.378   4.441  22.454  0.1368 -0.2918 -0.2425
10716W        W12916  17.218   7.671  24.449  0.1496 -0.1737  0.0940
10717W        W12917  12.611   5.325  21.377  0.1129  0.2005  0.0208
10718W        W12918  30.555   2.057   7.210 -0.4704  0.1292 -0.2369
10719W        W12919  21.661   6.662  16.749  0.3511 -0.3975 -0.2195
10720W        W12920  27.876   4.889  18.743 -0.1120 -0.1916  0.2435
10721W        W12921   9.661   4.899  16.824  0.1724 -0.3322 -0.0893
10722W        W12922  17.630   6.545   3.764 -0.0904 -0.1058 -0.0543
10723W        W12923   2.591   6.877   9.831  0.1553  0.2252 -0.1122
10724W        W12924  25.693   2.814  24.428  0.0972 -0.1014 -0.0859
10725W        W12925  29.787   3.283   0.132 -0.0546 -0.0087 -0.2837
10726W        W12926  17.141   2.443   1.907  0.1739  0.1360  0.2423
10727W        W12927   5.757   3.575   4.926  0.4068 -0.0320  0.0242
10728W        W12928  16.431   2.592   6.293  0.1143 -0.1984  0.1408
10729W        W12929  26.739   7.560   3.371 -0.0387 -0.0131 -0.0836
10730W        W12930  13.404   1.635  23.143  0.1621  0.1477  0.0699
10731W        W12931   4.131   6.294  23.323  0.0085  0.0113  0.3057
10732W        W12932  21.112   3.964  25.512 -0.3536  0.1751  0.0424
10733W        W12933  23.801   6.793  24.793  0.0371 -0.4687 -0.1279
10734W        W12934   4.745   6.886   7.787  0.0774 -0.4422  0.0162
10735W        W12935   2.943   2.527  17.622  0.3190 -0.2500 -0.0146
10736W        W12936  22.379   7.197   4.411 -0.2247 -0.0131 -0.0273
10737W        W12937  20.311   5.783   3.022 -0.0939 -0.3196 -0.1026
10738W        W12938  17.860   1.332   9.523 -0.2634  0.3292  0.2181
10739W        W12939  23.450   3.678   1.079  0.0277  0.1173  0.2139
10740W        W12940   2.181   7.734  25.821  0.0283 -0.1667 -0.1101
10741W        W12941   1.988   4.180  23.830 -0.3544 -0.1887 -0.0089
10742W        W12942   1.141   3.288  17.694 -0.0806 -0.0785 -0.0944
10743W        W12943   8.722   4.586   6.383 -0.0881  0.0235 -0.0842
10744W        W12944   0.271   7.329  19.483 -0.0928 -0.2090  0.0526
10745W        W12945   3.253   1.767  21.211 -0.1639 -0.1298 -0.2366
10746W        W12946   7.722   4.769  16.119 -0.0178  0.3363 -0.1124
10747W        W12947  23.552   0.228   2.902  0.1071  0.0400 -0.1377
10748W        W12948  27.830   2.834   8.275  0.3036 -0.0289  0.2349
10749W        W12949  15.749   6.297  23.190 -0.0738  0.0630  0.1909
10750W        W12950  20.657   3.033  24.615  0.1540 -0.0341 -0.2193
10751W        W12951  20.657   1.357  24.414  0.3067  0.2264  0.0299
10752W        W12952   4.065   1.386   4.074  0.5372 -0.0042  0.1160
10753W        W12953  31.352   0.231  18.795  0.0840  0.0463  0.0510
10754W        W12954   4.900   5.026   6.274 -0.0346 -0.2374 -0.0158
10755W        W12955   8.997   4.544  16.161 -0.0802  0.2218  0.2057
10756W        W12956  20.555   2.938  16.767 -0.0247 -0.1342  0.1032
10757W        W12957  21.854   3.936  10.639  0.1204 -0.0006 -0.0808
10758W        W12958   6.316   6.633   3.695 -0.1839  0.2702 -0.0609
10759W        W12959  24.974   3.180   0.429 -0.0858 -0.3747 -0.0751
10760W        W12960  17.056   7.210  22.671 -0.2014 -0.1830  0.1501
10761W        W12961   6.847   0.782  17.853 -0.1304  0.0594  0.1666
10762W        W12962  29.628   2.085   3.786  0.2685 -0.2067  0.0295
10763W        W12963  16.903   3.315   2.800 -0.0183  0.2381 -0.0972
10764W        W12964  25.523   0.094  20.723 -0.2389  0.0430  0.0015
10765W        W12965   1.500   3.344  21.166 -0.0964 -0.0687 -0.1258
10766W        W12966  12.610   3.338  16.331  0.0100  0.1997 -0.0933
10767W        W12967   3.382   5.879   6.622 -0.2870  0.0560  0.0862
10768W        W12968  25.610   4.232   3.663  0.4973  0.2965 -0.1545
10769W        W12969  26.075   2.894  19.607 -0.1444  0.0567 -0.1338
10770W        W12970  23.639   4.654   1.022 -0.0270 -0.0850 -0.2384
10771W        W12971  22.965   4.833   6.860 -0.0329  0.1431  0.0912
10772W        W12972   5.004   1.119   3.780  0.1624 -0.3137  0.0573
10773W        W12973  13.074   2.838  21.419  0.2318 -0.2319 -0.1465
10774W        W12974  12.228   6.399  16.512  0.5570  0.3084 -0.2797
10775W        W12975  19.870   1.942   1.718  0.0291 -0.1332 -0.0751
10776W        W12976  21.922   5.682  10.251  0.0850 -0.1931 -0.1299
10777W        W12977  24.828   7.426  20.818 -0.1912  0.0258 -0.0269
10778W        W12978  10.393   0.984   4.382  0.0891 -0.3278  0.2945
10779W        W12979  19.114   3.429  11.914  0.1065  0.3435 -0.0528
10780W        W12980  26.886   1.149   4.929 -0.0603 -0.1255  0.1484
10781W        W12981   8.583   6.862   6.778 -0.0136 -0.0670  0.2896
10782W        W12982   7.925   4.645   8.127 -0.1173 -0.3414  0.0819
10783W        W12983  19.322   6.272  18.485  0.1801  0.0498 -0.1394
10784W        W12984  18.878   3.098   5.562  0.1568  0.0875 -0.1637
10785W        W12985  12.202   3.801   4.089 -0.1768  0.2150 -0.1397
10786W        W12986  29.275   3.716  16.836  0.1464  0.0528 -0.0921
10787W        W12987  19.265   5.406  23.944  0.1673  0.2958  0.0339
10788W        W12988  16.978   1.110  21.490 -0.0577  0.0432 -0.1704
10789W        W12989  21.865   0.602   7.873 -0.0123  0.0474 -0.1806
10790W        W12990  30.358   5.906   3.006  0.1476  0.0292 -0.1034
10791W        W12991   4.822   5.520  15.516  0.0766 -0.0817  0.0493
10792W        W12992  23.988   2.941  24.438  0.0875 -0.0357  0.0870
10793W        W12993  19.486   7.132   5.217 -0.0197 -0.1541 -0.0598
10794W        W12994  18.341   6.904  23.847  0.2835  0.2176 -0.1870
10795W        W12995  17.544   6.473   0.059  0.2832  0.1371  0.0833
10796W        W12996   9.945   1.640   2.547  0.0602  0.1351  0.5313
10797W        W12997  18.028   2.144   8.390 -0.0040  0.1807 -0.0103
10798W        W12998  12.911   6.521   5.574 -0.1539  0.1870  0.0391
10799W        W12999  13.548   0.674  21.761 -0.2972  0.1071 -0.2000
10800W        W13000   5.459   7.561  14.993  0.0365  0.0808  0.0886
10801W        W13001  31.116   3.828  10.047 -0.3506 -0.2754  0.2422
10802W        W13002  26.400   3.389  22.453  0.0571 -0.0330 -0.1712
10803W        W13003   7.145   4.683   4.763  0.1004  0.0374 -0.1775
10804W        W13004  26.979   6.999  19.262  0.1165 -0.0877  0.0950
10805W        W13005   4.037   2.185   1.592 -0.0852  0.0172  0.2090
10806W        W13006  25.292   1.733  25.006  0.3135 -0.0579 -0.0343
10807W        W13007  22.797   5.738   2.402 -0.2398 -0.1318  0.0725
10808W        W13008  17.871   0.718   6.996  0.0588 -0.1475 -0.1001
10809W        W13009  24.955   3.787  18.659  0.1566  0.3459 -0.1167
10810W        W13010  15.358   0.230  25.806 -0.1616 -0.0631 -0.1797
10811W        W13011   0.826   0.794   5.426  0.1856 -0.0818 -0.1268
10812W        W13012   4.913   3.174   7.800 -0.1887 -0.1800  0.0102
10813W        W13013  20.311   6.471  16.416  0.0412  0.0701  0.0117
10814W        W13014   0.333   3.233  16.940 -0.0689 -0.1531 -0.2407
10815W        W13015   7.149   7.202  20.962  0.2901 -0.2676 -0.0338
10816W        W13016  24.391   4.365  18.405  0.1375 -0.0583  0.1350
10817W        W13017  20.033   0.635  25.935  0.0972  0.6303  0.1016
10818W        W13018   7.719   7.393  25.284  0.2261  0.0002 -0.1273
10819W        W13019  13.942   5.144   8.056 -0.0622 -0.0046  0.0303
10820W        W13020  15.512   4.381  22.527 -0.2693  0.0481  0.0443
10821W        W13021  16.660   2.793   5.108  0.1236 -0.3318 -0.2426
10822W        W13022  12.423   6.536   2.112 -0.2503 -0.2621 -0.0321
10823W        W13023  12.401   6.720  19.593  0.1149  0.0631  0.2616
10824W        W13024   2.629   0.990  24.300 -0.0991 -0.0017 -0.0093
10825W        W13025   0.140   0.427  24.691 -0.0014  0.1786  0.2567
10826W        W13026  14.965   0.664   8.741  0.3330 -0.1895  0.1459
10827W        W13027   5.425   6.265  21.454 -0.3119  0.2899  0.1158
10828W        W13028  17.937   1.199  19.551 -0.0015 -0.1945 -0.1025
10829W        W13029  20.761   4.891   4.704  0.3784 -0.0119  0.0882
10830W        W13030   8.275   5.117   4.824  0.1574  0.1202  0.3821
10831W        W13031   0.988   7.173   3.268  0.1863  0.2196  0.1105
10832W        W13032  22.257   4.279  17.808 -0.2017 -0.0599  0.2822
10833W        W13033  24.964   7.320  16.654 -0.0394  0.0295 -0.3420
10834W        W13034  30.277   4.335   3.164  0.0556  0.1549  0.0087
10835W        W13035  17.249   4.103  18.430 -0.0463  0.1194  0.0251
10836W        W13036  10.266   6.007  22.937  0.0242 -0.1701  0.1514
10837W        W13037  14.229   4.788   9.070  0.0620  0.2140 -0.1050
10838W        W13038   0.073   5.581  26.033 -0.1932  0.1160  0.2238
10839W        W13039  30.277   2.438  16.133  0.1619  0.0828 -0.2474
10840W        W13040   3.379   4.688  11.028 -0.1414  0.0294 -0.1932
10841W        W13041  17.077   3.450  20.813 -0.1537  0.2152 -0.2436
10842W        W13042   2.644   0.903  25.550 -0.3003  0.0247  0.2622
10843W        W13043  28.935   4.050  23.849 -0.0981 -0.1719  0.1054
10844W        W13044   5.723   0.910   3.004 -0.0996 -0.2514  0.1856
10845W        W13045  16.930   6.723  10.166  0.2252 -0.1376  0.1293
10846W        W13046  19.932   6.885   5.743 -0.1903 -0.0470 -0.0005
10847W        W13047   3.844   0.452   7.225 -0.2179 -0.1943 -0.1259
10848W        W13048   1.315   7.438   8.946 -0.2199 -0.0376 -0.2918
10849W        W13049  12.110   6.569  20.086  0.1980  0.0071  0.1018
10850W        W13050   0.549   4.694  16.318 -0.2758 -0.0379  0.0212
10851W        W13051  15.510   7.741   9.249 -0.1941  0.1446 -0.1341
10852W        W13052  17.126   1.769   9.954  0.1651 -0.2096 -0.2292
10853W        W13053   6.088   2.620   8.993  0.0280  0.0384  0.0530
10854W        W13054   2.380   1.855  24.218  0.1866  0.2257  0.1821
10855W        W13055  24.664   7.207  20.294 -0.0239 -0.0300 -0.1756
10856W        W13056  26.755   5.912  22.839 -0.3280 -0.2365  0.0412
10857W        W13057  21.437   3.411  20.322 -0.2836 -0.0727 -0.0599
10858W        W13058   9.309   1.452  25.618 -0.1305  0.2618  0.2039
10859W        W13059  22.147   5.691  18.643  0.3678  0.0834 -0.1165
10860W        W13060  12.229   2.669   3.572 -0.1923  0.1456 -0.1699
10861W        W13061   3.945   5.890  18.292 -0.1150  0.0403  0.3787
10862W        W13062  15.338   7.256   8.599  0.1082  0.0014 -0.0278
10863W        W13063   3.211   0.092   8.691  0.1018  0.1573 -0.1149
10864W        W13064   1.752   5.761   5.529  0.0115  0.4701  0.3598
10865W        W13065  26.911   1.730  16.919 -0.0776  0.0899 -0.1545
10866W        W13066   7.029   7.678  17.453  0.1126  0.3804 -0.0956
10867W        W13067  19.711   4.916  18.136 -0.0341  0.0599  0.0967
10868W        W13068   1.419   3.220  23.024  0.0545 -0.2117 -0.1686
10869W        W13069  20.726   0.466   0.884  0.0408  0.0996  0.1034
10870W        W13070  30.504   0.867   1.460  0.1563  0.2039 -0.0141
10871W        W13071  20.897   1.828  23.144  0.0412  0.0959 -0.2043
10872W        W13072  12.336   6.416  24.535  0.1211 -0.1625  0.2953
10873W        W13073  28.028   4.490   4.993  0.0923 -0.0653  0.0877
10874W        W13074  28.907   4.557   4.492 -0.1752  0.0433  0.2524
10875W        W13075   2.436   5.507   3.541  0.3053  0.0661 -0.2170
10876W        W13076  22.301   5.277  25.128  0.0536 -0.2126  0.2970
10877W        W13077  30.604   5.127   6.277 -0.1307 -0.1209 -0.0042
10878W        W13078  26.077   0.754   3.779  0.0651 -0.1781  0.1462
10879W        W13079   8.074   3.514   4.199 -0.2760 -0.2416  0.2777
10880W        W13080  23.292   1.982   3.040 -0.1801 -0.0814 -0.1845
10881W        W13081  16.234   2.811   4.814  0.0822 -0.2566 -0.1336
10882W        W13082  25.811   4.540  21.470  0.0091 -0.0159 -0.0318
10883W        W13083   0.458   1.901   3.366 -0.1074  0.0380 -0.1907
10884W        W13084  28.745   7.315   7.545  0.0374 -0.1510 -0.0605
10885W        W13085  18.928   5.221   0.817 -0.1058  0.0352 -0.2454
10886W        W13086   9.112   5.593  20.689  0.4157 -0.2267  0.2067
10887W        W13087   1.697   2.905   7.675  0.0420  0.2997 -0.1185
10888W        W13088  10.171   3.146  21.215 -0.1745  0.1934  0.0358
10889W        W13089  16.725   2.123  20.823 -0.0848 -0.1324  0.1665
10890W        W13090  13.971   5.886  24.192 -0.4243 -0.4403  0.0661
10891W        W13091  20.861   7.545   1.495  0.0603  0.2040  0.1991
10892W        W13092  20.738   6.535   8.947 -0.0722 -0.0242  0.1041
10893W        W13093   0.822   6.264  19.794  0.1307 -0.0118  0.0981
10894W        W13094  14.757   1.355  16.364  0.1631  0.0653 -0.1311
10895W        W13095   2.125   4.786   1.020  0.0302  0.3420  0.0105
10896W        W13096  15.975   1.997   7.777 -0.0948 -0.1352  0.1286
10897W        W13097  20.824   4.787  11.137  0.1264  0.3338  0.0779
10898W        W13098  11.477   6.371  25.887  0.0581  0.1457  0.1600
10899W        W13099   5.918   7.101  23.117  0.0616  0.3230  0.0793
10900W        W13100  16.558   3.843  21.907  0.2418  0.2592  0.1014
10901W        W13101   5.054   4.979  25.350 -0.0451  0.2761  0.1742
10902W        W13102  17.884   6.980  16.257  0.0534 -0.0063 -0.2536
10903W        W13103  21.589   7.051   1.482  0.1217 -0.1995  0.3111
10904W        W13104  16.514   1.629  24.254 -0.2374 -0.4066 -0.0972
10905W        W13105  19.234   2.630  21.397  0.1127 -0.0338 -0.1445
10906W        W13106  17.363   6.005   7.456  0.0372 -0.0626 -0.2544
10907W        W13107  14.917   1.265  11.746  0.1863  0.1645  0.0783
10908W        W13108  20.917   2.084  17.271  0.1140 -0.0536  0.0512
10909W        W13109   1.066   7.291   1.112  0.3325 -0.3609  0.0930
10910W        W13110  29.548   0.184  25.644 -0.1267  0.0359 -0.0748
10911W        W13111   2.804   5.631  19.927 -0.0729 -0.2013 -0.0996
10912W        W13112  31.283   2.606   3.021 -0.4284 -0.0518  0.0100
10913W        W13113   4.966   6.864  21.048  0.0139 -0.2770  0.0678
10914W        W13114   4.773   6.457   8.677  0.0030  0.0544 -0.1110
10915W        W13115   1.049   3.306   2.956  0.2738 -0.2163  0.0260
10916W        W13116   1.710   4.259  15.701 -0.2867 -0.1461 -0.2091
10917W        W13117   0.650   3.430  22.407 -0.0737 -0.1304  0.0420
10918W        W13118  23.036   6.259   9.161 -0.1224 -0.0047 -0.2417
10919W        W13119  16.187   3.483  10.998  0.0608  0.2042  0.1714
10920W        W13120  29.706   1.194   6.195  0.1906  0.1071 -0.1086
10921W        W13121  31.008   7.388   7.039 -0.0292 -0.1018 -0.0858
10922W        W13122  22.020   6.218   6.102 -0.1736  0.0241  0.0779
10923W        W13123  20.092   2.801  25.584 -0.0144  0.2508 -0.1656
10924W        W13124  11.965   0.257  21.504  0.0840 -0.1008  0.0839
10925W        W13125  27.431   4.211  24.713 -0.1233 -0.0320  0.1345
10926W        W13126  10.422   3.991  22.772  0.0931 -0.2125  0.0496
10927W        W13127  31.390   6.152  23.429 -0.1278  0.1668 -0.2261
10928W        W13128  19.179   1.837  25.663  0.2879 -0.0983  0.0511
10929W        W13129  23.620   1.636   8.843 -0.1926 -0.1637  0.0400
10930W        W13130  10.119   1.564  17.185 -0.1051 -0.2431  0.0113
10931W        W13131  30.547   4.708  18.258 -0.1394 -0.0157 -0.2750
10932W        W13132   9.599   1.458   1.593  0.4113 -0.3288  0.0399
10933W        W13133  27.293   3.523   2.612  0.1633  0.0269 -0.1394
10934W        W13134  20.116   7.857   4.952  0.0713  0.0394  0.0335
10935W        W13135  28.866   5.430   0.822  0.1263  0.0489  0.2884
10936W        W13136  30.704   1.165  19.925 -0.3555  0.2888 -0.1691
10937W        W13137  29.026   5.356  25.345  0.1369  0.2283  0.0849
10938W        W13138  24.837   4.410  24.515 -0.0272 -0.0382  0.1271
10939W        W13139  29.817   0.981  17.628  0.0319  0.1256 -0.0085
10940W        W13140   3.754   4.376   7.507 -0.0769  0.1082 -0.0333
10941W        W13141  31.028   2.218  18.189  0.1319  0.0404 -0.4136
10942W        W13142   3.906   4.301   8.858  0.1769 -0.0801  0.4121
10943W        W13143   8.664   5.350  15.329  0.2003  0.0885 -0.1480
10944W        W13144  12.715   4.262  11.423 -0.2600  0.0904 -0.0783
10945W        W13145  21.202   3.627  15.527 -0.1961  0.0717  0.1850
10946W        W13146  26.008   1.086  19.366 -0.1577  0.2782 -0.0663
10947W        W13147  16.401   2.186  24.930 -0.2776  0.2746  0.3430
10948W        W13148   7.146   5.686   0.470 -0.0563  0.4135  0.0441
10949W        W13149  13.632   3.403  10.533 -0.1729 -0.0624 -0.1550
10950W        W13150   2.419   3.325   7.867 -0.0192  0.0244 -0.1624
10951W        W13151  25.781   1.682  22.352 -0.1757 -0.2792 -0.0046
10952W        W13152  22.629   6.394  18.365 -0.1108  0.2749  0.0830
10953W        W13153   4.132   0.489   9.965  0.2402  0.0783  0.3093
10954W        W13154  26.036   0.729   7.102 -0.2335  0.1171  0.0450
10955W        W13155  28.709   6.239  17.832 -0.0033 -0.3292 -0.1269
10956W        W13156  12.593   0.697   8.838 -0.0684  0.1201  0.1012
10957W        W13157   0.615   5.781  21.930 -0.0984  0.1863  0.1339
10958W        W13158  27.756   0.240  21.929 -0.1526 -0.4922 -0.0826
10959W        W13159  29.249   3.691  24.600  0.2881 -0.0093  0.3310
10960W        W13160   3.558   4.566   2.347 -0.0479 -0.0852 -0.0284
10961W        W13161  27.494   6.415  16.226 -0.0512 -0.1726 -0.2930
10962W        W13162  25.969   5.393   6.539  0.0990 -0.1788  0.0570
10963W        W13163  10.826   1.107   3.608 -0.3055 -0.1532 -0.1018
10964W        W13164   1.324   1.519   5.584 -0.1625  0.1360  0.0925
10965W        W13165  17.991   4.994   8.707 -0.2203  0.0945 -0.1105
10966W        W13166  21.277   0.266  23.656  0.2443  0.0797 -0.1259
10967W        W13167  22.205   6.639   1.789 -0.0888  0.1190  0.3265
10968W        W13168   3.426   4.469   6.817  0.1033  0.1871 -0.1669
10969W        W13169   7.484   6.985  25.551 -0.0923 -0.3065  0.0833
10970W        W13170  28.420   2.748   7.428  0.0099 -0.0567 -0.0443
10971W        W13171  29.409   1.230   5.687  0.0035  0.1423  0.0641
10972W        W13172  19.444   0.848  22.727  0.1901 -0.3840 -0.2181
10973W        W13173   3.900   1.993  17.957 -0.0901 -0.2929 -0.1002
10974W        W13174   3.526   3.675   1.456  0.2288  0.0962  0.0333
10975W        W13175  13.404   7.553  15.547 -0.0700 -0.0591  0.1115
10976W        W13176  15.971   5.666  25.827 -0.0035  0.2077  0.0705
10977W        W13177  23.666   4.326  21.214  0.4292  0.0379  0.1076
10978W        W13178  30.699   6.890   1.564  0.1729 -0.2163 -0.0104
10979W        W13179  24.019   6.012   0.193  0.0555 -0.0080  0.1946
10980W        W13180   1.215   5.183   1.960 -0.0699  0.0464  0.2645
10981W        W13181   0.623   3.734  10.876 -0.1039 -0.2318  0.0576
10982W        W13182  15.929   5.753  24.904 -0.2541  0.1395  0.1233
10983W        W13183  19.966   4.381  23.398 -0.0660 -0.0562  0.4460
10984W        W13184   8.294   7.081  10.453  0.1478 -0.0865 -0.1056
10985W        W13185   0.230   6.987  23.525 -0.0157 -0.2718  0.2594
10986W        W13186  13.633   7.686   9.583  0.1234  0.0627  0.0862
10987W        W13187  12.870   1.103   4.715 -0.1373 -0.0824 -0.0955
10988W        W13188   3.512   4.428   8.397 -0.0325 -0.3633 -0.2855
10989W        W13189  28.398   3.705   0.333  0.0005 -0.1151  0.0599
10990W        W13190   9.274   7.671   9.684  0.0993  0.0577 -0.1994
10991W        W13191  12.658   7.338   5.330  0.0143 -0.1034  0.0294
10992W        W13192  30.339   2.463  16.977  0.2619  0.2078  0.1889
10993W        W13193  11.096   7.733   2.477  0.1606 -0.2605 -0.1334
10994W        W13194   8.448   7.442  20.225 -0.1458 -0.1000 -0.1766
10995W        W13195  23.622   3.933  16.207  0.2486  0.0330 -0.2306
10996W        W13196  22.018   3.970  20.749  0.0908  0.1745  0.0021
10997W        W13197  21.176   0.794  16.861 -0.3031  0.0058 -0.2726
10998W        W13198   0.750   2.694  23.179 -0.0887 -0.0852  0.0972
10999W        W13199  20.228   6.628  19.618 -0.2227  0.1287 -0.0258
11000W        W13200  13.316   5.530  16.191 -0.1167  0.2332 -0.0878
11001W        W13201  18.061   7.326  16.620  0.2178  0.2597  0.0777
11002W        W13202  10.452   0.536   4.558  0.1056 -0.0240  0.3587
11003W        W13203   6.531   7.520   0.855 -0.1116  0.1312 -0.3545
11004W        W13204  12.728   7.024  18.669 -0.4171  0.0081 -0.2100
11005W        W13205  27.800   0.667   9.745  0.2382  0.0158 -0.2337
11006W        W13206  10.461   6.334   4.606  0.0201 -0.5412 -0.1106
11007W        W13207   6.941   4.310  25.456  0.1367 -0.2973 -0.0012
11008W        W13208  10.117   4.033   2.246  0.1355 -0.1999 -0.1299
11009W        W13209  24.257   4.139   9.946  0.0844 -0.1947 -0.1090
11010W        W13210   7.967   0.475   2.504  0.0887  0.1831  0.1302
11011W        W13211   0.311   2.026   5.142 -0.1127  0.1944 -0.1458
11012W        W13212  30.859   4.319   4.566 -0.2210  0.0193  0.0976
11013W        W13213  10.664   4.272  20.071  0.0626 -0.1975 -0.0140
11014W        W13214  22.778   5.588  17.621  0.0635 -0.0922  0.1116
11015W        W13215  18.617   2.125   0.294 -0.2241 -0.1277 -0.0890
11016W        W13216   5.363   0.808   6.570  0.1417  0.2196  0.2950
11017W        W13217  12.297   6.372   0.379 -0.3633  0.1945  0.1587
11018W        W13218  31.430   2.692  24.683  0.1162 -0.0590 -0.0865
11019W        W13219  29.260   3.005   0.758  0.0585  0.2602  0.2687
11020W        W13220  17.458   7.365   4.924  0.2813  0.0953  0.3010
11021W        W13221  18.816   0.740   8.454  0.0167 -0.2183  0.2394
11022W        W13222  11.374   6.280  23.350  0.1550  0.0703  0.0234
11023W        W13223  18.916   4.755   5.783  0.2150  0.1545 -0.0785
11024W        W13224  25.565   7.367   9.699 -0.0071 -0.1565 -0.3002
11025W        W13225  22.950   0.154   4.431  0.0443 -0.2012 -0.1171
11026W        W13226  27.870   5.417   5.650  0.0648 -0.0663 -0.0669
11027W        W13227  21.713   2.962  23.125 -0.0635 -0.1282 -0.2472
11028W        W13228  11.487   2.781  19.686 -0.0645  0.1252  0.0615
11029W        W13229   0.850   0.522   6.315  0.2020 -0.4377  0.1605
11030W        W13230  11.236   7.114  10.558 -0.0108 -0.1342 -0.3119
11031W        W13231  11.515   6.399  15.133  0.1770  0.2992  0.2330
11032W        W13232  19.917   5.446  23.187  0.0679  0.0037  0.2587
11033W        W13233  27.528   7.276   1.421 -0.0045  0.2600  0.1992
11034W        W13234  19.788   7.849  23.829  0.0152  0.0073 -0.1135
11035W        W13235  16.927   5.920   7.674 -0.2654  0.0013 -0.1553
11036W        W13236  11.900   7.743   0.367 -0.0348  0.1730  0.1986
11037W        W13237   3.575   7.098  17.261 -0.0467 -0.1509 -0.1667
11038W        W13238   5.151   1.204   7.534  0.2055  0.1498 -0.1093
11039W        W13239  15.069   1.663  21.803  0.2925 -0.0355 -0.0895
11040W        W13240  19.484   5.560  21.800  0.1560  0.1727  0.1660
11041W        W13241   0.852   1.985   0.693  0.1290  0.1946 -0.2314
11042W        W13242  15.165   6.465  11.012 -0.1520  0.1760 -0.0356
11043W        W13243  20.814   3.162  23.079  0.3796 -0.2021  0.2291
11044W        W13244  13.742   2.918  21.351 -0.0492 -0.0131  0.0583
11045W        W13245   0.101   4.681  16.047  0.1453 -0.0373  0.0403
11046W        W13246  13.846   2.038  17.570  0.2306 -0.3211  0.1634
11047W        W13247   9.954   7.400  20.758  0.0918  0.3388 -0.0037
11048W        W13248  11.856   4.301  18.750 -0.4919 -0.1407 -0.1683
11049W        W13249  22.380   3.064  21.960 -0.0686  0.1430 -0.0941
11050W        W13250   8.448   7.048   9.927 -0.0514  0.1327 -0.0705
11051W        W13251   9.986   7.352   7.455  0.0303 -0.3978 -0.1516
11052W        W13252  13.099   6.654  16.237  0.0826  0.0341  0.1745
11053W        W13253  24.007   3.820  20.470  0.2732 -0.1259 -0.0037
11054W        W13254  13.120   5.968   6.071 -0.1393  0.2639 -0.0310
11055W        W13255   4.829   4.274  20.809  0.1803 -0.0198  0.0214
11056W        W13256   2.090   5.247   9.277  0.1357 -0.1196 -0.0931
11057W        W13257  14.474   3.188  10.849  0.1611 -0.2322 -0.2605
11058W        W13258   2.096   2.125   9.772  0.0974  0.0696 -0.1684
11059W        W13259  22.606   6.969   8.522 -0.0698  0.1653  0.1689
11060W        W13260  29.918   6.429  16.540  0.1975 -0.3093 -0.1615
11061W        W13261  30.051   0.481   1.931  0.2510  0.1898 -0.2870
11062W        W13262  28.926   6.413  16.569 -0.0977 -0.1187 -0.3564
11063W        W13263  25.504   7.442   0.503 -0.0187 -0.2413  0.2776
11064W        W13264  31.076   0.982   9.506  0.3549 -0.0375 -0.2280
11065W        W13265  13.622   2.169  24.537 -0.0048 -0.0586 -0.0032
11066W        W13266  28.261   0.453   9.886 -0.1201 -0.2139 -0.0034
11067W        W13267  10.550   0.696  18.893 -0.1290 -0.2456  0.0799
11068W        W13268  10.730   6.903  19.542  0.0835  0.0301  0.2110
11069W        W13269  26.072   7.311  25.884  0.1181  0.0686 -0.0065
11070W        W13270  27.115   4.421  21.953 -0.0920  0.1178 -0.1315
11071W        W13271   3.557   6.720   0.353  0.0863  0.0065 -0.1728
11072W        W13272  26.266   5.348   0.831  0.1728  0.1652 -0.0830
11073W        W13273   0.005   6.445  21.430 -0.0864  0.2420  0.4157
11074W        W13274  21.570   2.399  20.608 -0.0139  0.0317 -0.1069
11075W        W13275  14.063   1.835   5.934 -0.1336  0.0202  0.0629
11076W        W13276  11.522   7.709  18.304 -0.0321 -0.2043  0.3680
11077W        W13277  14.056   2.426   7.419 -0.0690  0.1554 -0.2037
11078W        W13278  15.539   6.764   8.295  0.2385 -0.2092  0.2174
11079W        W13279  19.670   1.461  21.760 -0.1789 -0.0343  0.2540
11080W        W13280  15.977   3.487   9.623  0.1486 -0.1785 -0.0212
11081W        W13281  11.896   3.553  18.353  0.2358 -0.0551 -0.0558
11082W        W13282  14.219   6.656  23.621 -0.0206 -0.0295 -0.0545
11083W        W13283  22.919   3.738   1.995  0.0088  0.2311 -0.0265
11084W        W13284   6.396   3.843   7.329 -0.2630 -0.0426  0.0783
11085W        W13285  14.268   1.452  24.858  0.0622  0.1064 -0.2497
11086W        W13286  23.680   4.355   2.365 -0.0732  0.0599 -0.1639
11087W        W13287  14.698   1.329  21.958 -0.1834  0.0588 -0.0004
11088W        W13288  24.229   2.491  23.347 -0.0377 -0.2817  0.0979
11089W        W13289  18.157   7.510   0.135  0.2201 -0.0656 -0.3091
11090W        W13290  12.021   0.108  24.838  0.1777  0.2599 -0.2136
11091W        W13291  21.794   4.913   3.865 -0.1819 -0.0352  0.1357
11092W        W13292  17.768   1.920   7.594  0.1658  0.0660 -0.0958
11093W        W13293  25.721   5.183  10.280 -0.3793 -0.2467 -0.2096
11094W        W13294  21.174   5.193  11.347 -0.0241  0.2242 -0.1016
11095W        W13295  29.307   4.398  22.785  0.3024 -0.0430 -0.0242
11096W        W13296   2.943   4.350  19.687  0.2084  0.0850 -0.0559
11097W        W13297  21.766   5.776   0.813  0.1411  0.0549  0.2822
11098W        W13298   8.534   2.094  24.327  0.0203 -0.3269  0.1665
11099W        W13299   8.747   7.363  16.550  0.0644  0.4863  0.0535
11100W        W13300  31.006   4.675  24.443  0.1109  0.0036 -0.0229
11101W        W13301  25.781   5.093   0.198  0.2366  0.0807  0.1294
11102W        W13302   2.282   3.197   9.073  0.0132 -0.0259  0.0279
11103W        W13303  25.546   5.898  23.695 -0.1448 -0.0442  0.1111
11104W        W13304  13.675   3.119  24.148  0.3460 -0.0292 -0.0810
11105W        W13305   7.346   6.110   2.885  0.1236  0.0081  0.2474
11106W        W13306  13.916   1.397   4.857  0.0414  0.0771  0.2351
11107W        W13307  23.419   6.758   3.351 -0.1244 -0.1532 -0.3116
11108W        W13308  12.206   5.094  22.263 -0.0134 -0.0116 -0.1596
11109W        W13309  19.946   0.908  22.609  0.2746 -0.0591  0.1014
11110W        W13310  28.440   7.302   6.929  0.1611  0.0487  0.0755
11111W        W13311  27.692   2.386  21.000  0.0729 -0.0645  0.3627
11112W        W13312  27.780   5.836  20.184 -0.3130 -0.0334 -0.2558
11113W        W13313   8.333   7.563   2.697  0.0074 -0.0226 -0.2286
11114W        W13314  15.642   0.725   3.716  0.0892 -0.3624 -0.2223
11115W        W13315  12.232   2.341  10.372  0.2025 -0.0498  0.0511
11116W        W13316  11.080   6.197  15.851  0.3683 -0.1072 -0.0637
11117W        W13317  19.680   3.792   6.074 -0.0822 -0.2405 -0.1210
11118W        W13318  13.189   5.610  22.812  0.0660 -0.0956  0.0847
11119W        W13319   2.529   2.319  14.805  0.2286  0.2725 -0.1597
11120W        W13320  16.784   1.700   8.403  0.0081  0.2545 -0.0255
11121W        W13321  18.546   1.250   1.999  0.0307 -0.2199  0.1059
11122W        W13322  22.147   0.260  15.681  0.1037  0.0960 -0.1083
11123W        W13323   4.565   3.901  24.610  0.1672  0.1415 -0.0366
11124W        W13324  15.494   1.690  24.217 -0.0683 -0.1598 -0.1797
11125W        W13325  16.754   4.148  18.538  0.1186 -0.1118 -0.0222
11126W        W13326  16.715   3.572  10.211 -0.0987  0.3697 -0.0184
11127W        W13327  21.583   0.579  21.939 -0.1269  0.0020  0.2987
11128W        W13328   2.229   5.343  16.366 -0.1752 -0.1876  0.0170
11129W        W13329  11.984   5.640  25.490  0.0075  0.3335  0.1049
11130W        W13330  13.320   1.183  22.987  0.0571  0.2606  0.1078
11131W        W13331   6.934   0.727   1.926  0.1824  0.2706 -0.1931
11132W        W13332  16.288   7.038  19.630 -0.0711 -0.1225 -0.0373
11133W        W13333  27.338   5.141  16.427  0.3210 -0.2953 -0.0326
11134W        W13334  16.382   6.649  22.141  0.0272  0.1516 -0.0029
11135W        W13335  14.954   6.150  18.325 -0.0763 -0.3885  0.0739
11136W        W13336   2.917   5.456   4.946 -0.1128 -0.2002 -0.0768
11137W        W13337   1.038   0.545   5.842  0.0603 -0.0057 -0.2194
11138W        W13338  11.145   2.842  16.269  0.2960 -0.1903 -0.0320
11139W        W13339  20.063   5.914   2.015  0.0928 -0.5124 -0.1530
11140W        W13340  29.771   5.035  24.373 -0.2197  0.2608  0.0060
11141W        W13341  25.389   1.889  22.001 -0.2582 -0.3662 -0.0033
11142W        W13342   8.854   3.384  10.098 -0.0046 -0.1615  0.0750
11143W        W13343  29.905   5.240  25.849 -0.2783 -0.1480  0.1333
11144W        W13344  27.418   1.411  25.126 -0.0116 -0.1457  0.1529
11145W        W13345  26.930   2.759   8.931 -0.0282 -0.2437 -0.2245
11146W        W13346  20.637   6.343   8.350 -0.2869  0.0739 -0.1237
11147W        W13347  11.293   5.347   2.424 -0.2557 -0.3265  0.0966
11148W        W13348   1.848   2.753  15.112 -0.0090  0.3563 -0.3231
11149W        W13349   9.092   0.232  24.649 -0.1754  0.0241  0.1325
11150W        W13350   6.759   2.981   7.879 -0.0800  0.0668 -0.0391
11151W        W13351  25.761   7.057  16.862  0.3408  0.0662 -0.3439
11152W        W13352  12.005   6.329  21.689  0.0478  0.2710  0.0196
11153W        W13353  20.936   0.707   9.062 -0.1076  0.1102  0.2536
11154W        W13354  25.473   4.858   8.797  0.1789 -0.0600 -0.0152
11155W        W13355  11.762   5.015  10.178 -0.0833 -0.2832 -0.2548
11156W        W13356   7.527   3.226  21.682 -0.2596 -0.2468 -0.0983
11157W        W13357   3.868   1.128  15.601 -0.0125 -0.2086  0.0368
11158W        W13358  17.605   5.606  24.835 -0.0105  0.0308  0.1115
11159W        W13359  25.739   7.095   3.225 -0.2551  0.0306  0.1753
11160W        W13360  16.252   1.499  22.715 -0.0645  0.0856  0.0477
11161W        W13361  15.959   0.249   2.403 -0.2563 -0.0764 -0.0190
11162W        W13362  15.543   6.856   4.921  0.1499  0.0339 -0.1090
11163W        W13363  16.835   1.216  19.276 -0.0649  0.2359 -0.0242
11164W        W13364  25.272   1.547  16.427  0.3052  0.0139 -0.0987
11165W        W13365   5.386   1.594  23.229  0.0959 -0.0641  0.3365
11166W        W13366   0.812   2.119  21.594  0.0779  0.3382 -0.0378
11167W        W13367  15.767   7.814   3.038  0.0215 -0.2928 -0.1233
11168W        W13368   0.386   1.640   6.376  0.0121 -0.1821 -0.0368
11169W        W13369  29.729   4.177   7.229  0.1185 -0.2258 -0.2197
11170W        W13370   3.293   1.110  19.620  0.0825 -0.0775 -0.0449
11171W        W13371  15.043   7.671  19.235 -0.1363 -0.0930  0.0478
11172W        W13372  25.029   3.644   3.406 -0.0028  0.0327 -0.1401
11173W        W13373  26.077   6.496  17.634  0.0494 -0.0147  0.0246
11174W        W13374  21.638   3.128   2.547 -0.1023 -0.1891  0.3234
11175W        W13375   3.393   6.275   8.188 -0.0689  0.1873 -0.1640
11176W        W13376   6.077   4.470   3.792 -0.1098 -0.2553  0.0069
11177W        W13377   6.921   7.486  18.429 -0.2475  0.0611 -0.1710
11178W        W13378  11.395   1.616   6.731 -0.2729 -0.2159 -0.3019
11179W        W13379  25.539   7.576   2.398 -0.2777 -0.3110  0.0299
11180W        W13380  15.491   6.393   6.265  0.0738 -0.2049  0.0502
11181W        W13381  18.435   5.884  20.660  0.2481 -0.0115 -0.0465
11182W        W13382  28.240   7.824  21.886  0.0691 -0.1417  0.1120
11183W        W13383  17.589   0.187   7.813  0.1203 -0.0081  0.0417
11184W        W13384   9.763   5.527   3.803  0.0523 -0.0126  0.0466
11185W        W13385   1.106   4.410  22.997  0.3001  0.1691  0.1922
11186W        W13386  30.853   7.445   3.842 -0.1871 -0.0865 -0.0215
11187W        W13387  23.561   5.685  15.331 -0.1716  0.2145  0.0152
11188W        W13388   3.051   0.912  15.063 -0.3101 -0.4057 -0.1892
11189W        W13389  16.143   7.222   3.734  0.0023 -0.2100 -0.0661
11190W        W13390   3.148   1.914   1.759 -0.2641  0.3728 -0.0793
11191W        W13391  27.775   2.209   8.976 -0.2283  0.1237  0.1120
11192W        W13392  17.113   1.397  26.014  0.0192  0.0262  0.1660
11193W        W13393  23.899   1.156   8.135 -0.0002 -0.1733 -0.2188
11194W        W13394  27.954   6.968  17.132  0.0830  0.2357  0.1231
11195W        W13395   5.079   6.465  17.783 -0.1953 -0.2219 -0.0543
11196W        W13396   5.702   0.703   0.871 -0.0445 -0.1741  0.2015
11197W        W13397   9.611   4.298   1.420 -0.1890 -0.1389  0.0914
11198W        W13398   8.055   0.665   1.195 -0.4512 -0.1979  0.2493
11199W        W13399   0.897   2.857  16.374  0.0703  0.2050 -0.0069
11200W        W13400  27.192   7.687  19.065  0.1549 -0.0027 -0.0323
11201W        W13401   3.445   6.090  16.233  0.0333  0.2442  0.0250
11202W        W13402  28.940   6.717  20.819 -0.0921  0.1071 -0.1132
11203W        W13403  12.332   1.454   2.236 -0.2727 -0.0452 -0.0462
11204W        W13404   6.128   0.027  20.550  0.2299  0.2918  0.1971
11205W        W13405   1.208   1.840   6.411  0.1921 -0.0178 -0.1347
11206W        W13406   9.807   7.147   4.618  0.2307  0.2197  0.1559
11207W        W13407  30.311   1.560  14.628 -0.3228 -0.2736  0.2671
11208W        W13408  18.633   5.951  16.885 -0.2197  0.2437 -0.1076
11209W        W13409  12.155   4.426  25.980 -0.1909 -0.5687  0.0279
11210W        W13410  11.166   4.077   4.786 -0.1117  0.2281 -0.0185
11211W        W13411   1.241   5.826  23.116  0.0041 -0.1293 -0.0268
11212W        W13412  10.283   3.058  10.385 -0.1406 -0.2354  0.0440
11213W        W13413  17.903   0.877  20.495  0.1996 -0.1646 -0.3061
11214W        W13414   6.640   7.755   2.604  0.0345  0.0938  0.0938
11215W        W13415  29.324   5.320  15.755  0.0812  0.0707 -0.1042
11216W        W13416  24.546   4.351   6.312  0.1520  0.1613  0.0314
11217W        W13417  28.306   2.282  15.214  0.4504 -0.0188  0.0089
11218W        W13418  21.857   0.549  17.427  0.3297  0.0030  0.0697
11219W        W13419  18.885   6.244  25.890  0.1907 -0.0992 -0.4261
11220W        W13420   2.535   6.020  23.634  0.4644  0.2630  0.1302
11221W        W13421   1.561   4.231  23.064 -0.0220  0.2347 -0.0033
11222W        W13422  13.282   2.605  17.465 -0.0388  0.1182 -0.2057
11223W        W13423  30.281   0.437   0.775 -0.1789  0.0065 -0.1246
11224W        W13424  11.652   0.802   3.887 -0.2579 -0.2770 -0.1224
11225W        W13425   9.606   0.933  20.489 -0.2161  0.0319  0.0056
11226W        W13426   5.311   0.170  10.302 -0.2102 -0.1018  0.0032
11227W        W13427  14.315   6.146   3.587 -0.0054 -0.1879 -0.2193
11228W        W13428  30.101   7.362  20.371  0.0057  0.0397  0.0916
11229W        W13429  21.384   0.884   2.991 -0.1595 -0.1744  0.1347
11230W        W13430   9.133   6.104  18.597  0.1509  0.0194 -0.2992
11231W        W13431   9.483   6.738  16.704 -0.1947  0.0831 -0.3695
11232W        W13432  29.163   3.935   5.441 -0.1201  0.3864  0.1882
11233W        W13433  12.732   0.955   2.086  0.1496 -0.2982 -0.2131
11234W        W13434   9.415   1.794   0.954  0.1288  0.1865  0.0172
11235W        W13435  16.096   1.394  15.788  0.2918  0.0412  0.1486
11236W        W13436  17.296   6.112   5.800 -0.0136 -0.0759  0.3588
11237W        W13437  11.712   7.528   3.468 -0.0569 -0.0777  0.1613
11238W        W13438   2.956   2.855   9.627 -0.1023  0.1516 -0.2377
11239W        W13439  12.998   3.311   2.430 -0.2098 -0.1352 -0.2018
11240W        W13440  16.032   6.701  10.615 -0.1517  0.0173  0.1067
11241W        W13441  11.819   5.966   4.695 -0.1669 -0.0337  0.1191
11242W        W13442   6.754   1.416   1.012 -0.1053  0.1492  0.0704
11243W        W13443  22.962   5.859  24.878  0.1762  0.1436  0.0673
11244W        W13444  22.514   7.569   5.647 -0.0931  0.0429 -0.0509
11245W        W13445   7.084   0.889  23.947  0.0539  0.1686  0.1985
11246W        W13446  28.827   2.874  24.466  0.0121 -0.1919 -0.1613
11247W        W13447  29.118   3.116   5.986 -0.2694 -0.0436  0.2510
11248W        W13448   4.837   5.422  14.673  0.2410  0.0452  0.0902
11249W        W13449   0.120   0.738  16.669  0.1027 -0.3872  0.0582
11250W        W13450   3.494   5.000  23.955  0.0466 -0.1543 -0.1819
11251W        W13451  30.112   7.105  14.883  0.1921 -0.0417 -0.1635
11252W        W13452   4.974   4.670  16.994 -0.2531 -0.1119  0.1182
11253W        W13453   6.947   6.817  18.508 -0.0133  0.3164  0.2798
11254W        W13454   7.935   0.636  16.938 -0.2475  0.1488 -0.0894
11255W        W13455   9.682   5.158   9.123  0.1346  0.3350 -0.1361
11256W        W13456  29.542   7.052   5.590 -0.0246 -0.0421 -0.0927
11257W        W13457  16.779   2.286  11.392 -0.1269  0.0291 -0.0653
11258W        W13458  15.863   1.231  22.090 -0.1673 -0.2528 -0.2151
11259W        W13459   1.495   5.288   3.960  0.1578 -0.0445 -0.0305
11260W        W13460  11.682   2.134  18.541 -0.1288 -0.1694  0.0338
11261W        W13461  17.854   6.826   3.397 -0.2445  0.0387 -0.1254
11262W        W13462  27.656   1.232  23.964 -0.1771 -0.0850  0.1117
11263W        W13463  20.853   0.573  21.262 -0.0176 -0.0585  0.0707
11264W        W13464  18.920   1.803   3.991 -0.1976 -0.3164 -0.3542
11265W        W13465  16.198   5.186  25.648  0.1345  0.1043  0.0114
11266W        W13466  19.956   6.831  20.065  0.1012 -0.0515 -0.0003
11267W        W13467  19.802   2.474  25.713  0.2331 -0.1369 -0.0068
11268W        W13468   0.140   4.525   6.893 -0.3233  0.1147  0.3329
11269W        W13469   9.215   4.465   1.211 -0.2161  0.0766  0.2284
11270W        W13470  28.155   0.229   8.353  0.2096 -0.2755 -0.1128
11271W        W13471  11.658   4.986  10.740  0.0310  0.1486  0.2204
11272W        W13472  27.262   0.638  16.009 -0.5501 -0.2067 -0.0841
11273W        W13473  30.340   6.648   7.926  0.0299 -0.3127  0.4732
11274W        W13474  29.241   0.654  23.779  0.1576 -0.2608 -0.0203
11275W        W13475  18.185   0.045  19.967 -0.3915  0.2359  0.3600
11276W        W13476  17.170   7.420  23.554  0.0676 -0.1833  0.5390
11277W        W13477  25.613   3.384   8.553 -0.0714 -0.0075 -0.0591
11278W        W13478   6.869   4.655  25.127 -0.1481  0.0633  0.0295
11279W        W13479  24.488   1.320  22.753 -0.2979  0.1436  0.1882
11280W        W13480   5.342   3.778  19.971  0.0563  0.0529  0.0878
11281W        W13481  10.388   7.109  17.290 -0.2272  0.0482  0.2759
11282W        W13482  10.700   7.622  21.347 -0.1628 -0.2931 -0.1529
11283W        W13483  11.463   7.857   0.160 -0.0463 -0.2837  0.1773
11284W        W13484   4.365   5.458   0.088  0.0143 -0.2901  0.2198
11285W        W13485   6.777   5.729  19.986  0.1435  0.2938 -0.0277
11286W        W13486   0.725   2.404  17.591 -0.2346  0.1058  0.0642
11287W        W13487  28.637   6.371  23.511  0.0678 -0.0514  0.1756
11288W        W13488  24.368   6.787   2.223  0.0921  0.2501 -0.0933
11289W        W13489   3.280   4.802   6.489 -0.0992 -0.2928 -0.0517
11290W        W13490  10.607   1.478  16.452  0.0945 -0.1727 -0.1912
11291W        W13491  11.171   1.146   5.674  0.1998  0.0015 -0.1888
11292W        W13492  21.442   5.812  21.979  0.1433  0.0710  0.3661
11293W        W13493  10.565   6.388  25.756 -0.3349 -0.1971  0.0759
11294W        W13494  24.781   6.387   5.566  0.0384  0.2002  0.1938
11295W        W13495  13.913   5.342  19.892 -0.0548  0.1718  0.2185
11296W        W13496   2.177   2.346   5.738 -0.2190 -0.1323 -0.0272
11297W        W13497  24.905   4.194   6.644  0.1293 -0.2117  0.1435
11298W        W13498  11.926   2.656  22.985  0.4593  0.0715 -0.1018
11299W        W13499  18.917   0.527   7.943 -0.0020  0.0699  0.0722
11300W        W13500  15.773   7.568   1.767  0.0402  0.1603 -0.0478
11301W        W13501   2.320   3.674  21.383 -0.0720  0.1434 -0.0847
11302W        W13502   3.084   2.578  16.416  0.0878 -0.1344 -0.1496
11303W        W13503  12.558   3.933  20.453 -0.2138 -0.0729 -0.0423
11304W        W13504  11.926   2.501  19.980 -0.2760  0.1550 -0.0902
11305W        W13505  28.120   1.414   0.155  0.1125  0.3631 -0.4038
11306W        W13506  10.733   1.784   9.488  0.1078 -0.1536 -0.1692
11307W        W13507  30.161   6.358  25.962 -0.0571  0.1980  0.1411
11308W        W13508  18.896   0.408   4.652  0.2048 -0.1697  0.0092
11309W        W13509   0.890   5.583  23.257  0.0164  0.0166  0.1505
11310W        W13510   4.009   2.400   8.483  0.2440 -0.1091  0.1587
11311W        W13511  22.844   3.565   3.379 -0.0215 -0.1398 -0.0297
11312W        W13512  27.620   6.187  21.634 -0.0492 -0.4074  0.0748
11313W        W13513   3.050   7.633   8.089  0.1591  0.1630 -0.0091
11314W        W13514  19.505   7.033  10.446 -0.1568  0.0155  0.0382
11315W        W13515   8.098   3.871  22.545  0.2130  0.1366 -0.0312
11316W        W13516  17.226   0.544   2.863 -0.0236  0.2398  0.0686
11317W        W13517  28.721   7.168  21.059  0.1553  0.0562 -0.1357
11318W        W13518   6.004   0.481   6.068  0.0014 -0.1392  0.0778
11319W        W13519  22.921   1.284   2.594 -0.0210  0.1378 -0.2988
11320W        W13520   2.135   3.750  20.492 -0.1281 -0.1323  0.0234
11321W        W13521   5.311   5.441   0.091 -0.0024 -0.1965  0.1496
11322W        W13522   7.663   4.917  17.244  0.0345  0.1621  0.2299
11323W        W13523  21.641   6.603   6.882 -0.1170  0.0088 -0.1361
11324W        W13524   5.343   5.175  17.389 -0.0661 -0.3173 -0.1819
11325W        W13525   5.331   3.151   2.342  0.3840  0.0656  0.0823
11326W        W13526  15.891   7.572  10.706  0.1037 -0.2591 -0.1721
11327W        W13527   6.755   5.294   6.382  0.0092 -0.2587 -0.0673
11328W        W13528   6.090   1.262   5.382  0.1700 -0.0292  0.3435
11329W        W13529   3.278   5.817  22.727 -0.3285 -0.2019 -0.0212
11330W        W13530   8.434   4.270   7.189  0.1301  0.0945 -0.1132
11331W        W13531   0.999   5.117   5.890 -0.3445 -0.1138  0.1047
11332W        W13532   7.513   4.560   3.252  0.1176  0.0968  0.0844
11333W        W13533   7.962   3.577  24.289 -0.1905 -0.1536  0.1036
11334W        W13534   0.889   6.710   6.067  0.0465 -0.0806 -0.0154
11335W        W13535  29.086   3.326   8.793 -0.1200 -0.1817  0.0361
11336W        W13536  25.555   5.534  25.262 -0.1980  0.0184 -0.3393
11337W        W13537   9.466   6.881   3.371 -0.0115  0.1867  0.0005
11338W        W13538  27.661   5.769   0.292 -0.1106 -0.3194  0.1571
11339W        W13539  28.511   1.407   0.524 -0.0615 -0.0621 -0.1663
11340W        W13540  10.022   7.432   3.470  0.1356 -0.0217 -0.1020
11341W        W13541  12.782   1.505   1.365 -0.1576 -0.0717  0.1821
11342W        W13542  31.069   3.020   7.942  0.0895 -0.1925 -0.0661
11343W        W13543  20.460   1.419   7.636  0.0770 -0.3080  0.0905
11344W        W13544  18.445   5.126   4.187  0.1142 -0.0121  0.1548
11345W        W13545  13.663   1.688   7.736  0.0310  0.2095  0.2066
11346W        W13546  11.596   1.196   4.379 -0.2741 -0.1206 -0.2386
11347W        W13547  22.014   1.717  16.461 -0.2002  0.2450 -0.0193
11348W        W13548  19.358   3.617   3.095  0.3710  0.0587  0.0580
11349W        W13549  24.825   4.585  16.812  0.0091  0.4210  0.0302
11350W        W13550  10.751   0.173   4.125 -0.1440  0.1385  0.1896
11351W        W13551   9.246   1.547  21.723  0.5259  0.0141 -0.0888
11352W        W13552  17.064   1.543  19.612 -0.1616  0.2263  0.1284
11353W        W13553   8.156   5.765   0.355  0.1119  0.2036 -0.0454
11354W        W13554  14.176   3.854   3.438 -0.0060 -0.1519  0.0447
11355W        W13555   1.999   7.056   5.647 -0.0956 -0.0242  0.0225
11356W        W13556  15.995   6.148   7.616  0.3625  0.1000  0.0127
11357W        W13557  12.278   5.151  17.224 -0.1097  0.1931 -0.1117
11358W        W13558  12.368   7.762  10.562  0.0586  0.1572  0.1804
11359W        W13559   8.660   2.473   4.978  0.1645  0.1041 -0.0236
11360W        W13560  10.816   6.126  10.602  0.0296 -0.1582  0.0036
11361W        W13561   8.475   0.782  19.113 -0.4522 -0.2013 -0.0448
11362W        W13562   5.954   6.027  21.394  0.0943 -0.1783 -0.0019
11363W        W13563  15.579   2.911  24.771 -0.1117  0.0667 -0.0828
11364W        W13564  30.130   0.342   6.041  0.0537  0.1786  0.1377
11365W        W13565  19.655   5.941   5.906 -0.1641 -0.0503  0.3368
11366W        W13566  28.551   6.143  22.235  0.2982 -0.0636  0.2093
11367W        W13567  15.044   1.036   5.851 -0.0117 -0.1555  0.1053
11368W        W13568  30.740   1.060  22.478  0.0322 -0.1306 -0.0896
11369W        W13569  16.503   6.844   7.428 -0.0119 -0.0025  0.1763
11370W        W13570   5.724   6.823   4.556  0.2918 -0.2874 -0.1615
11371W        W13571   1.088   6.949   8.815  0.1060  0.3205  0.0318
11372W        W13572  27.415   2.588   1.162 -0.0250 -0.1644  0.3761
11373W        W13573   4.621   1.316   7.330 -0.2964 -0.1570  0.0092
11374W        W13574  16.761   5.954  15.894 -0.1196  0.0564  0.2067
11375W        W13575  17.803   3.082  19.576 -0.1214  0.2391 -0.2115
11376W        W13576   1.906   0.568  20.514 -0.0800 -0.1361  0.2292
11377W        W13577  24.069   6.284  20.871 -0.0164 -0.1854 -0.0004
11378W        W13578  31.237   4.419  21.069  0.1696 -0.1246 -0.1249
11379W        W13579   3.472   5.326  14.885 -0.0286  0.1006 -0.0010
11380W        W13580  14.092   0.706   1.968  0.1476  0.1708 -0.1722
11381W        W13581  31.063   6.475   0.215 -0.0868  0.0059  0.0070
11382W        W13582   4.223   1.522   4.829 -0.0011 -0.1288  0.0065
11383W        W13583  13.452   4.398   4.423 -0.0350  0.0964 -0.1061
11384W        W13584  21.942   6.197  25.627 -0.0694  0.0690 -0.4272
11385W        W13585  29.894   0.127   0.650  0.2047 -0.1674  0.3318
11386W        W13586  30.876   1.999   6.658  0.0301 -0.4838 -0.3161
11387W        W13587  10.628   5.005  22.570 -0.2298  0.3373  0.0590
11388W        W13588  29.426   6.596  22.970 -0.2005  0.0753  0.1552
11389W        W13589  29.603   7.315   7.074  0.2157 -0.1627 -0.1817
11390W        W13590   9.992   5.330  24.067  0.1041  0.1807  0.2696
11391W        W13591  23.489   3.971   6.823 -0.1850  0.0585 -0.0255
11392W        W13592   2.337   4.121  25.209  0.0680 -0.1410 -0.1315
11393W        W13593  26.717   2.876   4.461 -0.0538 -0.2510 -0.2111
11394W        W13594   1.400   5.759   7.660 -0.1142 -0.1681 -0.2848
11395W        W13595  25.270   6.310  18.382 -0.0251  0.1007 -0.0577
11396W        W13596  25.644   2.981  15.328 -0.0597 -0.2144 -0.0458
11397W        W13597  25.943   4.892  24.642 -0.0517 -0.0812  0.0965
11398W        W13598  17.030   1.290   7.497  0.2113  0.0031 -0.1345
11399W        W13599  23.044   3.607   3.939 -0.2841 -0.0495  0.1728
11400W        W13600  20.626   3.961   3.838  0.0963 -0.1836  0.1179
11401W        W13601   8.431   3.559  18.138 -0.3927  0.0818 -0.0561
11402W        W13602   2.511   4.235  23.337  0.1829 -0.3257  0.0180
11403W        W13603  21.309   1.213   6.673 -0.0622 -0.1883 -0.1832
11404W        W13604  25.782   2.733  17.023  0.1276  0.0678 -0.1296
11405W        W13605   3.679   2.872  24.052  0.1212 -0.2040  0.3382
11406W        W13606  11.776   2.842   5.575 -0.0046 -0.0584 -0.2654
11407W        W13607  24.874   6.361  22.201 -0.2814  0.1778  0.2572
11408W        W13608  21.020   5.657   4.610  0.1751  0.4258  0.2012
11409W        W13609  26.426   5.872  22.501  0.0897 -0.0681 -0.2114
11410W        W13610  14.100   2.980   9.263 -0.0416 -0.3042  0.2002
11411W        W13611   3.768   6.862  20.668 -0.0810  0.2181  0.1464
11412W        W13612   6.349   2.042   2.464  0.0536  0.0680  0.3462
11413W        W13613  30.958   4.376   2.445  0.1532 -0.2173  0.0696
11414W        W13614  19.950   1.787  24.115 -0.0978 -0.2307 -0.0298
11415W        W13615  26.238   2.226  25.149  0.1962 -0.1675 -0.1945
11416W        W13616  24.535   2.469  20.581  0.0251  0.0536  0.2598
11417W        W13617  21.565   1.352   2.438 -0.1836  0.1258  0.0006
11418W        W13618   8.696   4.480  21.425  0.0502 -0.2952  0.2283
11419W        W13619  21.475   2.121  10.361 -0.0972  0.2252  0.0314
11420W        W13620  29.181   3.126  15.635 -0.2779  0.0191  0.1804
11421W        W13621  14.483   6.340   8.644  0.0967  0.1047 -0.1377
11422W        W13622  22.368   6.594   9.812  0.0142 -0.2209 -0.2260
11423W        W13623  30.873   7.026   3.245 -0.0595  0.0211  0.0581
11424W        W13624   9.093   4.765  20.539 -0.2588 -0.2940 -0.1503
11425W        W13625   0.830   7.542   8.732  0.2452  0.0656 -0.2163
11426W        W13626  29.369   6.069  15.345  0.0226 -0.0359 -0.0775
11427W        W13627  27.074   3.864  23.146  0.0572 -0.1099  0.0985
11428W        W13628  19.196   6.333  22.281  0.1740 -0.0262 -0.0163
11429W        W13629  26.807   3.413  25.692  0.0993 -0.0867 -0.1305
11430W        W13630  31.420   2.141  26.053 -0.0398 -0.2741 -0.1832
11431W        W13631  22.120   0.352  19.514  0.2304 -0.0996 -0.0439
11432W        W13632   9.354   7.008   6.441 -0.1011 -0.0638 -0.0064
11433W        W13633  10.557   1.015  23.727  0.0951 -0.4258  0.2439
11434W        W13634  17.681   6.262  10.361 -0.1287  0.2147 -0.3679
11435W        W13635  29.870   3.532  19.005  0.0475  0.1373 -0.3059
11436W        W13636  26.316   7.316   1.097  0.0335 -0.0573 -0.0211
11437W        W13637   4.623   6.255   1.837  0.0386  0.2876 -0.0803
11438W        W13638  17.393   2.973   7.647 -0.1132 -0.0104  0.2831
11439W        W13639  27.984   5.166  19.858 -0.0614 -0.0188  0.0838
11440W        W13640  21.110   1.230   5.576 -0.3279  0.1880 -0.0915
11441W        W13641  22.202   7.738   4.439  0.0398 -0.1362 -0.0542
11442W        W13642  15.787   3.443  21.959 -0.0010 -0.1552 -0.0961
11443W        W13643   6.233   7.226   0.494  0.0296  0.0790 -0.2992
11444W        W13644   0.227   7.171   0.235  0.0999  0.2839 -0.0599
11445W        W13645  22.481   5.918  10.527 -0.3078  0.0005 -0.1361
11446W        W13646  29.717   1.825  20.617 -0.0667  0.0628  0.1592
11447W        W13647  21.668   6.139  23.848  0.0943  0.3268 -0.3348
11448W        W13648   3.691   4.593   7.976  0.0407 -0.1345  0.0066
11449W        W13649   2.460   0.590  20.412 -0.0942 -0.1133 -0.1972
11450W        W13650  27.355   2.468   2.566 -0.1775  0.1225 -0.0451
11451W        W13651   6.168   3.869   6.066 -0.1318  0.1429 -0.2854
11452W        W13652  28.686   6.767   6.182 -0.0046 -0.1171  0.4526
11453W        W13653  17.308   1.150   7.951 -0.0286  0.3585 -0.2909
11454W        W13654  23.727   5.774   3.214  0.4231  0.0772 -0.0581
11455W        W13655  23.281   2.534  22.002 -0.1275 -0.1371 -0.0459
11456W        W13656   8.942   6.935   9.985 -0.1077 -0.0412  0.2111
11457W        W13657  22.888   0.963  18.613 -0.0633 -0.1883  0.0587
11458W        W13658  13.756   0.119  25.207  0.0869  0.1000  0.0609
11459W        W13659   4.124   0.853   2.292  0.1300  0.1281 -0.0054
11460W        W13660  20.325   1.734  21.250  0.0639  0.4481  0.1071
11461W        W13661  29.653   0.324   6.242 -0.4682  0.0995  0.0142
11462W        W13662  20.501   0.566  20.854  0.3358  0.3260  0.0196
11463W        W13663  12.342   4.757   4.315  0.5701  0.1380 -0.0401
11464W        W13664  10.286   7.538  10.255 -0.0088 -0.0484  0.0616
11465W        W13665  26.910   4.331   3.077  0.0578  0.0629 -0.1963
11466W        W13666  21.087   1.549  23.512 -0.0345  0.0498 -0.1742
11467W        W13667  10.353   7.478   2.968  0.3776  0.1041 -0.2552
11468W        W13668  30.334   7.545   8.312 -0.2578 -0.0931 -0.1667
11469W        W13669  24.096   4.477   2.190  0.0475  0.1431  0.1325
11470W        W13670  26.499   6.892   2.804  0.0453 -0.1784  0.1621
11471W        W13671  19.367   2.972  24.136  0.1366  0.0119 -0.0034
11472W        W13672  22.990   0.041   8.211 -0.2965  0.2222 -0.0126
11473W        W13673   0.456   5.491   5.560 -0.0650  0.0328 -0.0536
11474W        W13674   4.566   0.816  17.579 -0.0154  0.1132 -0.0787
11475W        W13675  29.826   3.207  20.226 -0.2060  0.1088  0.1342
11476W        W13676   7.585   7.035  17.339 -0.0635  0.3575 -0.3542
11477W        W13677  28.146   2.197  18.493  0.2046  0.2205 -0.0158
11478W        W13678  29.389   3.652   4.266 -0.0511  0.0287  0.1027
11479W        W13679  24.504   6.784   0.104  0.2869 -0.0983 -0.1431
11480W        W13680  29.705   2.974  16.234  0.1143  0.0667  0.0197
11481W        W13681  16.102   5.685   0.228 -0.1421 -0.1210  0.0724
11482W        W13682  18.177   1.628   8.050  0.0156  0.1008 -0.0387
11483W        W13683  16.508   4.768   7.931  0.0391  0.1277 -0.0132
11484W        W13684  19.145   1.786   0.052  0.0855 -0.2338 -0.0577
11485W        W13685   5.482   5.643  10.241  0.1094  0.1523 -0.0560
11486W        W13686  19.705   1.309  10.304  0.1782 -0.4210 -0.2843
11487W        W13687  28.403   5.596   9.373  0.0752  0.1542  0.1368
11488W        W13688  10.582   4.233   2.349 -0.0298 -0.0064 -0.0066
11489W        W13689   5.463   1.745  19.922 -0.0698  0.1807  0.3655
11490W        W13690  26.887   6.356  25.899 -0.0820 -0.2674 -0.2114
11491W        W13691  15.477   1.533  20.322  0.1559 -0.0382  0.0739
11492W        W13692  10.954   0.992  11.015 -0.0932  0.0015 -0.0825
11493W        W13693  16.600   7.095  24.336 -0.0840  0.2747 -0.1296
11494W        W13694  28.628   3.090   8.684  0.0566  0.0028 -0.2403
11495W        W13695  26.005   4.357   2.598  0.1770  0.0150  0.0148
11496W        W13696  19.604   5.193  25.252 -0.2536 -0.1356  0.0635
11497W        W13697  17.069   0.876  25.210  0.0430 -0.0856  0.1449
11498W        W13698   3.577   2.348   3.807 -0.2795 -0.0462  0.1838
11499W        W13699  17.744   5.802   7.740 -0.0404 -0.3574  0.2753
11500W        W13700   2.475   0.172   5.633  0.1268  0.0446  0.4405
11501W        W13701   6.523   2.678   1.707 -0.1236 -0.1305 -0.0360
11502W        W13702  20.169   1.893  14.896  0.2615 -0.0493 -0.0493
11503W        W13703  26.402   4.078   0.450 -0.2694 -0.0532  0.0265
11504W        W13704  29.077   1.433  24.995  0.1804 -0.3121 -0.1989
11505W        W13705  21.844   5.349  25.022  0.1690 -0.3002  0.1475
11506W        W13706   7.175   7.303   5.784  0.1509 -0.1646  0.1827
11507W        W13707  14.187   2.003   0.032  0.2075  0.1902  0.1011
11508W        W13708  30.928   2.346  23.859  0.0787  0.0019 -0.1466
11509W        W13709  26.573   6.844   5.367  0.0570  0.2592  0.2170
11510W        W13710   4.074   3.913  22.314 -0.2898  0.1507  0.2375
11511W        W13711   0.703   1.268  14.934  0.0544  0.0431  0.3387
11512W        W13712  19.056   2.096   0.513 -0.0348 -0.0176 -0.2699
11513W        W13713   2.586   5.134  20.317  0.3131 -0.3320  0.2135
11514W        W13714  27.461   3.007   7.074  0.1970 -0.2842 -0.2540
11515W        W13715   6.306   7.332  23.237  0.3715  0.0124 -0.2127
11516W        W13716  14.712   4.826   0.335  0.0027  0.1631 -0.3691
11517W        W13717  17.025   3.345   7.683  0.0595  0.0961  0.0443
11518W        W13718   2.377   2.046   4.374  0.0034 -0.3282  0.3118
11519W        W13719  12.180   2.604   6.826 -0.0231 -0.2427  0.0026
11520W        W13720   5.624   3.640  25.184 -0.4451  0.0659 -0.2587
11521W        W13721  22.554   0.611  23.966 -0.3872  0.0665 -0.1362
11522W        W13722   1.031   4.757   6.782  0.0377  0.2089  0.1424
11523W        W13723   6.097   5.095  18.195  0.1405 -0.2197 -0.0771
11524W        W13724  25.840   1.368   6.439 -0.0963  0.1689 -0.3701
11525W        W13725  16.601   4.584  20.012 -0.2943  0.2199  0.0415
11526W        W13726  17.139   2.176   2.606  0.0462 -0.0647  0.1635
11527W        W13727  28.894   5.369  17.432  0.1481 -0.3229 -0.0553
11528W        W13728  10.778   3.557   8.956 -0.2337  0.2748 -0.1657
11529W        W13729  18.704   2.453   9.972 -0.1111  0.0121  0.0801
11530W        W13730   7.158   7.150  23.395  0.0702 -0.2484 -0.1939
11531W        W13731  16.686   1.377   0.552  0.0342  0.0593  0.3346
11532W        W13732  26.987   1.856   9.176 -0.0664 -0.1368 -0.1811
11533W        W13733  18.439   1.210   0.511 -0.1009 -0.2486 -0.3066
11534W        W13734  30.797   6.120   4.830 -0.1674 -0.0295  0.1398
11535W        W13735  11.194   5.592   5.400 -0.2713  0.1045  0.1113
11536W        W13736   9.435   0.475   9.058 -0.2501  0.3661 -0.0037
11537W        W13737  21.005   1.545  22.169 -0.1695  0.3747  0.0427
11538W        W13738   8.131   1.372   2.763  0.0635  0.3279 -0.0355
11539W        W13739  24.187   4.300  25.414 -0.2010 -0.0289 -0.0015
11540W        W13740  26.012   6.559  21.035 -0.0483  0.0058 -0.2956
11541W        W13741  15.534   5.405  19.354 -0.1115  0.0883 -0.0781
11542W        W13742  17.994   3.677   4.978 -0.0091 -0.2379 -0.3360
11543W        W13743  20.930   1.040  19.588  0.1019  0.1169 -0.0192
11544W        W13744  26.827   3.467   0.698 -0.0387 -0.0150  0.0560
11545W        W13745  13.772   3.663  23.982  0.0607 -0.0053 -0.1825
11546W        W13746  23.549   2.219   7.438 -0.0590 -0.2505  0.4549
11547W        W13747   7.341   2.266  21.919 -0.0458  0.1885  0.0157
11548W        W13748  19.114   3.003   3.988 -0.0507 -0.0238 -0.2397
11549W        W13749  13.996   6.935  18.756 -0.0467 -0.1283  0.2974
11550W        W13750   9.442   3.839   9.228  0.0947 -0.4429 -0.0402
11551W        W13751  25.893   5.230   7.960  0.1400  0.0580 -0.1087
11552W        W13752   7.580   1.083  20.486 -0.0559 -0.1281  0.0649
11553W        W13753  14.887   6.034  17.544 -0.1393  0.1119  0.1680
11554W        W13754  27.340   6.045   0.658 -0.0178 -0.0273 -0.3167
11555W        W13755   1.416   6.387   0.531 -0.1574 -0.0584 -0.0622
11556W        W13756  30.871   7.423  25.256 -0.1952 -0.1363  0.2118
11557W        W13757   0.850   5.888  24.098 -0.0310  0.0733  0.1856
11558W        W13758  11.944   1.050   9.573  0.3354  0.0189 -0.1162
11559W        W13759  18.621   6.081  21.261  0.1944  0.0565  0.0428
11560W        W13760   7.354   1.424   2.644 -0.2519  0.0285  0.0611
11561W        W13761  11.796   5.126   4.020  0.0803 -0.2135  0.1643
11562W        W13762   8.751   3.377  18.480 -0.1297 -0.0767 -0.0322
11563W        W13763   1.250   5.670  25.792  0.1347  0.0201  0.1096
11564W        W13764  11.557   5.792  23.893  0.1556 -0.2831  0.1254
11565W        W13765   4.416   6.919   3.327 -0.0154  0.0769 -0.2181
11566W        W13766   0.298   3.050   0.285  0.0207 -0.4093 -0.0401
11567W        W13767  19.883   5.312   7.119  0.0805 -0.3682 -0.3148
11568W        W13768  29.795   4.964  21.769  0.1858 -0.0531  0.0100
11569W        W13769  29.254   4.221  16.592  0.1758  0.1809 -0.0441
11570W        W13770  29.924   0.921  26.041  0.2055  0.3543  0.1187
11571W        W13771   0.202   6.029  21.618 -0.1564  0.0683 -0.1758
11572W        W13772   3.310   6.861  16.879  0.0436  0.1003 -0.0168
11573W        W13773  27.473   1.901   7.894 -0.1087 -0.0202  0.1330
11574W        W13774   8.219   0.789   7.642  0.1617 -0.0837 -0.2610
11575W        W13775   5.981   1.931  15.369 -0.0300  0.2870  0.1420
11576W        W13776   9.076   6.801  21.224 -0.1571  0.0094 -0.0551
11577W        W13777  23.010   4.154   1.330 -0.1691  0.0132 -0.2288
11578W        W13778  25.948   6.616   7.766 -0.0452  0.1385 -0.0807
11579W        W13779  28.151   6.043   7.177  0.0214  0.1368 -0.1987
11580W        W13780  17.706   4.345  17.155 -0.1620 -0.0080  0.3021
11581W        W13781   8.038   3.855   8.620 -0.2135 -0.1529 -0.0819
11582W        W13782   4.678   1.482  21.258  0.0325  0.2330 -0.0098
11583W        W13783  20.648   4.846   2.786  0.1707 -0.1353 -0.0817
11584W        W13784   1.466   4.011  19.861 -0.0992 -0.1157 -0.0151
11585W        W13785  19.099   3.071  18.366 -0.0660 -0.0470 -0.0028
11586W        W13786  11.523   7.667   2.981  0.1413  0.1905 -0.2439
11587W        W13787  16.388   0.964   4.728 -0.0753  0.2089  0.2368
11588W        W13788   4.442   6.640  23.716 -0.0289 -0.1354 -0.0779
11589W        W13789  14.515   0.925   8.567  0.0672  0.0537  0.0145
11590W        W13790   7.465   0.772  24.952 -0.2810  0.1787 -0.2186
11591W        W13791   5.063   6.120   1.109  0.2241  0.3200 -0.1863
11592W        W13792  15.629   5.767   4.503 -0.0265  0.0091 -0.2393
11593W        W13793  18.004   7.245  20.847  0.1935  0.1512 -0.0307
11594W        W13794   2.608   5.371   5.339 -0.1834  0.1321  0.0700
11595W        W13795   8.805   0.562  24.920  0.1751 -0.1608 -0.2207
11596W        W13796   8.196   1.896   0.467  0.3097  0.2320  0.1413
11597W        W13797  14.368   7.152   6.868  0.0568 -0.0746 -0.2850
11598W        W13798  28.039   0.666  10.249  0.1883  0.0012 -0.2206
11599W        W13799  15.169   0.001  18.769  0.1618 -0.1132 -0.1159
11600W        W13800   4.900   7.666  24.987 -0.0776  0.0379  0.1718
11601W        W13801  30.190   5.552   2.627  0.1380  0.0612 -0.0842
11602W        W13802   4.825   1.046   9.829  0.0555  0.0790 -0.1268
11603W        W13803   7.198   6.492   8.641  0.2508 -0.1279 -0.0806
11604W        W13804   9.687   3.150   3.374  0.1433 -0.1082 -0.1203
11605W        W13805  16.620   2.553  21.109  0.1726 -0.1720  0.0514
11606W        W13806   4.921   3.365  20.900 -0.2337  0.3026  0.2201
11607W        W13807  29.099   4.084   2.392 -0.1471  0.0982  0.0214
11608W        W13808  13.192   6.747  15.788 -0.1074 -0.0889  0.0296
11609W        W13809   7.280   4.324  10.406  0.1646 -0.3685 -0.2061
11610W        W13810  23.008   3.298   0.358  0.2210 -0.0884 -0.2152
11611W        W13811   8.206   5.692   8.898  0.0665 -0.2892 -0.1117
11612W        W13812   2.077   2.850   9.361  0.1466  0.1326 -0.0062
11613W        W13813  26.273   2.995   5.758 -0.0122 -0.1188  0.0314
11614W        W13814  13.107   2.061  22.888  0.0819 -0.2134  0.1014
11615W        W13815  20.467   6.406  24.661  0.1157  0.1434  0.1149
11616W        W13816   3.527   7.031   6.502  0.5053  0.1922 -0.2685
11617W        W13817  23.826   6.134  24.072 -0.2137  0.2250  0.0470
11618W        W13818  11.367   5.753  25.801  0.2638 -0.2318  0.1817
11619W        W13819  18.822   4.795  10.532  0.1969 -0.3026  0.0088
11620W        W13820  14.415   3.876  25.686 -0.0560  0.0294 -0.1332
11621W        W13821  21.372   3.229  18.437  0.0207 -0.1258  0.0797
11622W        W13822  26.205   5.859   5.241 -0.1971  0.3336 -0.1343
11623W        W13823  29.621   0.912   0.405  0.0210  0.2107 -0.3765
11624W        W13824  23.095   0.471   3.217 -0.3623 -0.0986 -0.0365
11625W        W13825   1.356   2.975   6.953 -0.0508  0.1604 -0.1279
11626W        W13826  13.565   6.137  25.156  0.0258  0.0154  0.1744
11627W        W13827  17.542   5.522  14.869  0.0236 -0.1430 -0.2288
11628W        W13828  15.796   1.129  18.128  0.0556 -0.0313  0.0760
11629W        W13829  26.092   1.212   0.543  0.0639  0.1955  0.0464
11630W        W13830  10.548   1.226  10.767  0.0216  0.1374  0.0563
11631W        W13831   0.438   0.885   1.147 -0.1405  0.0616 -0.1163
11632W        W13832   2.370   3.638  25.142  0.1342  0.0270  0.1895
11633W        W13833  30.577   0.801   2.574 -0.0362  0.0327  0.2499
11634W        W13834  20.424   4.921  20.842 -0.0436  0.0749  0.0065
11635W        W13835  15.333   5.643   1.638 -0.0194  0.0274  0.2230
11636W        W13836  29.046   5.676  23.601  0.0546  0.0073  0.5210
11637W        W13837   8.901   4.170   8.836 -0.2010 -0.1387 -0.2310
11638W        W13838  22.740   4.167   5.228 -0.1914 -0.0695  0.1941
11639W        W13839  12.252   4.683   8.803 -0.2707  0.0145 -0.2118
11640W        W13840  22.170   0.397   9.846 -0.2579 -0.0235  0.2420
11641W        W13841   9.663   7.182   8.725 -0.1162  0.2844  0.3003
11642W        W13842  16.257   2.322  16.428  0.0305 -0.0454 -0.0685
11643W        W13843   1.161   1.161  18.176  0.3639 -0.2183 -0.1631
11644W        W13844   9.534   6.190   5.512  0.2132  0.3758 -0.0688
11645W        W13845  24.599   6.937   9.692 -0.0304  0.0023  0.1505
11646W        W13846   7.549   1.908   7.437  0.0756 -0.3432  0.0020
11647W        W13847   2.309   5.960  24.978  0.0223 -0.1624  0.2762
11648W        W13848  13.411   5.254  19.529 -0.0191  0.0501 -0.1885
11649W        W13849  11.353   4.118   2.027 -0.0733 -0.0771  0.0224
11650W        W13850  19.246   7.115  18.989 -0.2458  0.2352  0.1210
11651W        W13851  18.582   0.704   9.374 -0.1453  0.0992 -0.1950
11652W        W13852  25.434   0.729  18.619  0.1615  0.1109 -0.0967
11653W        W13853  18.762   0.225   0.554 -0.0962  0.0994  0.1463
11654W        W13854   6.255   5.745  20.096  0.3882 -0.0914 -0.2329
11655W        W13855  29.340   6.546   0.492  0.0843 -0.1727 -0.2041
11656W        W13856  30.144   2.592   2.628  0.0518 -0.1574  0.1460
11657W        W13857   9.978   0.268  19.496 -0.0043  0.1575 -0.2860
11658W        W13858  31.245   4.663   8.588 -0.0347  0.0689  0.1793
11659W        W13859   4.904   5.585  18.277 -0.0897  0.0675  0.0279
11660W        W13860  25.596   0.750   5.462 -0.0223 -0.1821 -0.1319
11661W        W13861  27.009   0.949   4.502  0.1672  0.0450  0.1177
11662W        W13862  29.596   3.209  22.441  0.1038  0.1772 -0.2049
11663W        W13863   6.864   4.002  23.671  0.3562  0.0505 -0.3775
11664W        W13864   7.373   3.025  15.264  0.3085 -0.0940 -0.3801
11665W        W13865  23.955   1.913  18.653  0.0139 -0.0371  0.2413
11666W        W13866  15.991   3.804  23.255  0.0052 -0.0411 -0.2515
11667W        W13867  18.038   0.600  18.150 -0.1514 -0.0628 -0.1884
11668W        W13868   7.323   1.520  10.555  0.1526 -0.0672  0.2258
11669W        W13869  10.388   5.561  20.009  0.0090  0.1140 -0.2927
11670W        W13870   2.478   2.032   2.755  0.2517 -0.1171  0.5290
11671W        W13871  16.774   7.413  10.762 -0.0712 -0.2243  0.2103
11672W        W13872  28.834   3.011  21.116  0.3590 -0.0009  0.0738
11673W        W13873   6.267   5.270  23.922  0.1206 -0.0833  0.0227
11674W        W13874  29.995   2.322   6.303 -0.1839  0.1146 -0.1377
11675W        W13875   0.037   3.011  15.754 -0.1449 -0.0412 -0.0094
11676W        W13876   2.186   6.360  14.912  0.1329 -0.1957  0.0205
11677W        W13877  19.303   6.355  16.681 -0.0094  0.2113 -0.1803
11678W        W13878  16.299   0.035  22.423  0.0384  0.2359 -0.0950
11679W        W13879  16.834   4.113  22.261 -0.0639  0.1306 -0.2085
11680W        W13880   8.434   2.801   0.684  0.1412  0.4123  0.0934
11681W        W13881   0.012   2.141  17.861  0.0982  0.4630 -0.3007
11682W        W13882  29.089   2.322   3.887  0.1053  0.4390  0.2322
11683W        W13883  19.470   5.222  20.410  0.1518 -0.1328  0.2698
11684W        W13884   6.033   2.431  15.296 -0.2832 -0.3028 -0.2048
11685W        W13885  28.672   3.308   9.271  0.2424 -0.3145 -0.1624
11686W        W13886   2.020   3.548   3.599 -0.1068 -0.2721 -0.1015
11687W        W13887  18.049   6.475  19.577  0.1125 -0.1588 -0.3842
11688W        W13888  27.232   6.024  25.504  0.1531  0.0512  0.3512
11689W        W13889  21.270   5.581  24.504  0.0178 -0.0309 -0.1456
11690W        W13890  27.151   6.297  20.970  0.0300 -0.1010 -0.0070
11691W        W13891  10.584   6.009  17.750 -0.4532  0.1622 -0.2786
11692W        W13892   7.495   3.836  18.629 -0.1791  0.0910  0.1994
11693W        W13893   8.670   5.164   2.903 -0.2604  0.2393  0.1530
11694W        W13894  14.190   3.296  21.490  0.1330  0.2716  0.1071
11695W        W13895   3.276   7.511  14.817  0.2720  0.3048 -0.4219
11696W        W13896  19.535   7.581   3.162 -0.4368  0.0877  0.0854
11697W        W13897   1.724   1.954  15.398  0.0277 -0.2938 -0.1253
11698ION     NA13898  10.361   2.636  10.582 -0.3316  0.7561 -0.0118
11699ION     NA13899   1.937   6.414   6.553  0.0235 -0.1101 -0.2416
11700ION     NA13900  27.182   4.308   0.334 -0.0981 -0.1686 -0.0847
11701ION     NA13901  23.931   1.105  24.447 -0.2547  0.0832  0.0767
11702ION     NA13902  30.390   6.241   8.786 -0.0520  0.0575 -0.0896
11703ION     NA13903   4.788   7.613  17.136  0.0370 -0.0583  0.0884
11704ION     NA13904  20.349   5.482   6.932  0.4040  0.0819  0.0521
11705ION     NA13905   5.157   5.501  22.847  0.2789 -0.0817 -0.3677
11706ION     NA13906  17.529   5.486   7.977  0.1678 -0.1380  0.1024
11707ION     NA13907  18.957   5.893   3.202  0.2098 -0.1261 -0.4281
11708ION     NA13908   0.703   7.769  22.964  0.2165  0.1277  0.1446
11709ION     NA13909   8.594   0.509  25.374 -0.1833  0.2128  0.2752
11710ION     NA13910   3.472   3.378   3.085  0.5575 -0.0596 -0.4316
11711ION     NA13911  29.362   0.984   6.400  0.1032  0.0561  0.4015
11712ION     NA13912   2.660   0.639   0.250  0.1002  0.2758  0.1586
11713ION     NA13913   5.481   7.121   0.298  0.0506 -0.7577  0.1982
11714ION     NA13914  16.597   5.930   6.568  0.0028 -0.0508 -0.4857
11715ION     NA13915  23.569   7.437  21.821  0.0050 -0.4590  0.1940
11716ION     NA13916   1.057   5.651  24.375 -0.7838 -0.1011  0.0678
11717ION     NA13917  17.088   4.034  10.951 -0.0034  0.0561 -0.3094
11718ION     NA13918  31.358   0.172  22.858  0.3083 -0.1246  0.1476
11719ION     NA13919  21.727   1.775   0.431  0.0252  0.1286 -0.0722
11720ION     NA13920  31.053   5.625  24.597  0.1851 -0.2923  0.1383
11721ION     NA13921  30.128   6.965  15.328 -0.3034  0.1551 -0.0509
11722ION     NA13922  29.099   6.440  16.968 -0.4869 -0.2534 -0.5479
11723ION     NA13923   3.928   6.855   8.033  0.1541  0.0449  0.1019
11724ION     NA13924   3.889   4.038  16.683 -0.0749 -0.0833 -0.0323
11725ION     NA13925  22.112   2.608   4.129 -0.1080 -0.1269 -0.3468
11726ION     NA13926  30.861   7.087  21.639 -0.0260  0.2151  0.1610
11727ION     NA13927   6.228   7.005   5.728 -0.4109 -0.1021  0.1260
11728ION     NA13928  14.723   6.225  10.887 -0.1269  0.3695 -0.1830
11729ION     NA13929  21.523   4.599   3.608 -0.5220 -0.1810 -0.0119
11730ION     NA13930  12.543   3.640   0.741 -0.0109 -0.1786  0.1234
11731ION     NA13931  17.981   6.977  23.461 -0.2929  0.1408 -0.0115
11732ION     NA13932   7.206   1.219  10.268  0.2500  0.2660  0.0307
11733ION     NA13933  12.648   1.558  20.524 -0.1544 -0.3654  0.3148
11734ION     NA13934  15.258   2.457  21.975 -0.1984  0.0549 -0.0205
11735ION     NA13935   4.066   0.234  14.718 -0.1308  0.1567  0.3464
11736ION     NA13936  31.318   3.415   3.515  0.5433 -0.1776  0.0352
11737ION     NA13937   1.206   5.877  22.404  0.0503 -0.0236  0.0350
11738ION     NA13938  30.294   2.358  18.504 -0.3483  0.6710  0.2496
11739ION     NA13939  12.600   4.185  10.249  0.0224  0.5070  0.1440
11740ION     NA13940   4.484   4.560   9.588  0.2846  0.0130  0.1633
11741ION     NA13941  24.604   6.886  17.198 -0.4091 -0.1695  0.0199
11742ION     NA13942   6.793   2.270   1.623  0.2839 -0.6016 -0.1462
11743ION     NA13943  28.783   0.001  25.624 -0.0203 -0.1602 -0.5946
11744ION     NA13944   8.624   3.954   9.527  0.1921 -0.0857 -0.0572
11745ION     NA13945  14.797   2.585  16.895 -0.1894  0.2430 -0.3714
11746ION     NA13946   2.978   3.312  23.961  0.4344 -0.1140  0.1473
11747ION     NA13947   6.727   6.745  18.825  0.2891 -0.0236 -0.4794
11748ION     NA13948  19.867   4.656  19.695 -0.2082 -0.2595 -0.0156
11749ION     NA13949   4.073   5.370   1.942 -0.0967  0.3422  0.1036
11750ION     NA13950   0.384   0.429  16.543  0.2787  0.2623 -0.1510
11751ION     NA13951  28.445   2.766  24.366 -0.1958 -0.1713  0.0366
11752ION     NA13952  25.385   2.405  19.457  0.5300 -0.0730 -0.2742
11753ION     NA13953  26.317   1.251  25.546  0.2235  0.1590 -0.0811
11754ION     NA13954  15.298   3.398  23.274  0.2488  0.1851 -0.0839
11755ION     NA13955  27.899   5.952   2.899 -0.1440  0.5229  0.2208
11756ION     NA13956  22.279   6.240  21.825 -0.7080 -0.1506  0.1620
11757ION     NA13957   4.896   5.158  21.667  0.5592 -0.3965 -0.0742
11758ION     NA13958  12.667   1.362  19.666 -0.2446 -0.0025 -0.3289
11759ION     NA13959  24.366   1.664   2.943  0.1373  0.1344  0.2457
11760ION     NA13960  10.715   2.657  22.995  0.1324 -0.1825 -0.1943
11761ION     NA13961  28.485   6.846  25.905 -0.2697  0.0143 -0.3594
11762ION     NA13962  26.221   6.532  20.384 -0.0980  0.1324 -0.0085
11763ION     NA13963  15.090   5.314  18.415 -0.0358 -0.3125  0.3738
11764ION     NA13964   3.465   7.439  18.256 -0.2292  0.0721 -0.0350
11765ION     NA13965  22.947   2.809   3.278 -0.6614  0.1600  0.1399
11766ION     NA13966   6.642   4.629   9.081 -0.2595  0.4638  0.0871
11767ION     NA13967   0.697   3.214   4.915  0.1468 -0.2833 -0.0890
11768ION     NA13968  13.935   6.559   6.338 -0.0279 -0.2717 -0.2857
11769ION     NA13969  28.785   2.098  21.486 -0.0666  0.3871 -0.1706
11770ION     NA13970  30.789   7.303  18.924 -0.1124 -0.3412  0.1701
11771ION     NA13971  20.629   0.500  22.779  0.2057 -0.0063 -0.2661
11772ION     NA13972  17.248   3.946  20.289  0.0430  0.1264  0.1565
11773ION     NA13973  15.362   1.482   7.972  0.2129 -0.1162  0.1900
11774ION     NA13974  18.636   3.609   1.535  0.5758  0.3008 -0.4120
11775ION     NA13975  31.421   4.719   7.849 -0.3141 -0.1540  0.2548
11776ION     NA13976  14.501   0.618   1.407  0.3118 -0.1895  0.2539
11777ION     NA13977  31.173   7.794   6.962 -0.1833 -0.2095  0.0601
11778ION     NA13978  28.223   3.781   8.975  0.0576  0.2905  0.1096
11779ION     NA13979   4.982   7.314   6.960 -0.4167 -0.0674  0.1483
11780ION     NA13980  15.923   7.485   2.250 -0.0517 -0.4220  0.2642
11781ION     NA13981  30.973   2.171   6.269  0.2941  0.0263  0.3162
11782ION     NA13982  29.154   1.465  23.250 -0.2566  0.1632 -0.0117
11783ION     NA13983   8.464   5.195  16.172 -0.4807 -0.3178  0.0844
11784ION     NA13984   2.069   2.286   0.938  0.0016  0.0925 -0.0536
11785ION     NA13985   3.687   3.674   7.174 -0.2150  0.0213  0.1598
11786ION     NA13986   4.475   5.990   4.878  0.0978  0.0084  0.1427
11787ION     NA13987  11.626   3.304   4.860  0.1277  0.3677  0.0066
11788ION     NA13988  11.811   1.652   6.728 -0.0217  0.3009  0.2058
11789ION     NA13989  24.698   5.777  20.954 -0.4050 -0.0963 -0.0496
11790ION     NA13990   8.351   4.977   5.274  0.2576 -0.2552  0.1082
11791ION     NA13991  11.166   6.060   8.854  0.1624 -0.0316  0.2614
11792ION     NA13992   9.260   2.076  17.582  0.1274  0.5205  0.2257
11793ION     NA13993  20.925   6.083   2.384  0.2181 -0.1396  0.1597
11794ION     NA13994   2.574   1.280   7.414  0.1112 -0.5551 -0.6092
11795ION     NA13995  23.238   1.442   0.256  0.1329  0.0635  0.2631
11796ION     NA13996  13.136   1.948   8.164  0.1176 -0.1024 -0.4315
11797ION     NA13997  26.951   0.919  24.258 -0.2056 -0.5444 -0.3070
11798ION     NA13998  15.799   0.247  18.505 -0.3209  0.1857 -0.0485
11799ION     NA13999   1.448   3.721   5.482 -0.0647 -0.4392 -0.0829
11800ION     NA14000   6.163   6.735   7.067  0.3119 -0.2802 -0.1104
11801ION     NA14001  24.741   5.895   0.083 -0.0534  0.1441 -0.0488
11802ION     NA14002   9.166   0.177  23.353  0.2544  0.1020 -0.2903
11803ION     NA14003  12.240   5.519  10.918 -0.0109  0.3128  0.1219
11804ION     NA14004  14.558   7.451   9.316 -0.2709 -0.5893  0.1533
11805ION     NA14005  12.042   6.705   4.196  0.3535 -0.1575 -0.1569
11806ION     NA14006  28.884   1.956  19.534 -0.1018 -0.3573 -0.2656
11807ION     NA14007   9.479   7.079   4.275  0.0352 -0.0440  0.4967
11808ION     NA14008  14.256   5.789  24.497  0.2767  0.2205  0.9188
11809ION     NA14009   0.581   7.210  21.382 -0.2061  0.1328 -0.3929
11810ION     NA14010  23.876   5.337   8.382 -0.4044  0.1351 -0.2162
11811ION     NA14011  14.420   6.407  21.399 -0.0751  0.2414 -0.1470
11812ION     NA14012   0.576   1.591  20.261 -0.4756 -0.0099 -0.1229
11813ION     NA14013  17.179   4.666  10.392  0.3371 -0.3238  0.2342
11814ION     NA14014  16.290   4.124  21.719  0.0947 -0.5057 -0.4221
11815ION     NA14015  18.961   2.152  22.398  0.0276 -0.3037 -0.2973
11816ION     NA14016   9.318   3.628  20.102 -0.0627 -0.0658  0.5363
11817ION     NA14017  28.109   3.235  20.763  0.2001  0.0142 -0.3387
11818ION     NA14018  20.487   6.727  20.795 -0.1948  0.0660  0.2195
11819ION     NA14019  23.448   1.227   6.850  0.3297 -0.1383 -0.3279
11820ION     NA14020  10.672   1.771   7.949  0.1095  0.4249  0.1095
11821ION     NA14021   5.610   7.315   1.274  0.1616 -0.2309  0.2392
11822ION     NA14022  27.857   1.993  20.286  0.0066 -0.2588  0.2540
11823ION     NA14023  13.374   6.953   9.112  0.1408 -0.5535 -0.0154
11824ION     NA14024  15.653   2.582   2.342  0.1146  0.2403 -0.5606
11825ION     NA14025  21.097   2.427   7.774  0.1780 -0.0998 -0.0701
11826ION     NA14026  20.533   2.921   4.539 -0.1530 -0.0421  0.0224
11827ION     NA14027   6.201   2.161  20.225 -0.1198 -0.0486 -0.7675
11828ION     NA14028  24.368   4.049   6.573 -0.0541 -0.0241 -0.1646
11829ION     NA14029  18.682   2.833   9.812 -0.2104 -0.1252  0.1102
11830ION     NA14030  16.263   7.524  19.307  0.5594 -0.2458 -0.2004
11831ION     NA14031  27.694   1.770  19.176 -0.2275  0.5136 -0.0922
11832ION     NA14032  28.672   7.594   7.920  0.2002 -0.0707 -0.0569
11833ION     NA14033  14.569   0.172   6.863  0.0611 -0.0679  0.2283
11834ION     NA14034  23.275   4.603  21.264  0.0906 -0.0980  0.1619
11835ION     NA14035  22.270   6.776   1.049 -0.1031  0.2422 -0.0405
11836ION     NA14036  12.369   2.191  23.412 -0.0037 -0.2112  0.2273
11837ION     NA14037  22.430   7.332   9.808 -0.1276  0.2009 -0.1404
11838ION     NA14038  26.780   0.492  25.823 -0.2549  0.1113 -0.6451
11839ION     NA14039   3.823   2.989  21.663  0.1767  0.1993  0.5377
11840ION     NA14040  26.007   3.318  20.705 -0.2839 -0.4558 -0.0960
11841ION     NA14041  24.491   5.481  16.398  0.3701 -0.1127  0.1063
11842ION     NA14042  15.061   5.644  19.823 -0.0197  0.2112 -0.4461
11843ION     CL14043  19.674   5.667  10.020  0.1433  0.3977 -0.0430
11844ION     CL14044  27.354   3.601  25.827 -0.2322 -0.1803  0.2101
11845ION     CL14045  12.981   6.576  20.976 -0.5259  0.0198 -0.1428
11846ION     CL14046  15.166   1.116   8.365 -0.1458 -0.0959  0.0481
11847ION     CL14047  17.739   2.951   2.815 -0.2556 -0.3409  0.6569
11848ION     CL14048   8.047   4.914  15.927 -0.4646  0.0063  0.4771
11849ION     CL14049   8.169   5.784  23.587 -0.0454 -0.4018  0.3324
11850ION     CL14050   9.401   0.199  21.355  0.0230 -0.1515 -0.2268
11851ION     CL14051  12.201   5.135  16.611 -0.3600 -0.0354  0.2531
11852ION     CL14052   4.805   4.399   9.554  0.1784  0.1700 -0.1372
11853ION     CL14053  18.746   1.310  21.754 -0.4522 -0.6302 -0.2797
11854ION     CL14054  21.708   5.260   9.522  0.2087 -0.3985 -0.0683
11855ION     CL14055  22.143   3.925   0.238  0.2590  0.3656 -0.3577
11856ION     CL14056  25.680   6.708   3.109 -0.0608  0.3791 -0.1232
11857ION     CL14057   9.864   5.553   2.138  0.3294 -0.0442  0.4929
11858ION     CL14058  14.601   5.284   4.957 -0.1345  0.1403 -0.5991
11859ION     CL14059  14.081   1.290  25.521  0.1198  0.1618 -0.1427
11860ION     CL14060  30.077   7.620  18.766  0.3521  0.1832  0.1829
11861ION     CL14061  19.073   4.227  17.280  0.2817 -0.1956  0.1663
11862ION     CL14062  22.986   2.443  15.147  0.3709  0.2332 -0.2448
11863ION     CL14063   7.248   5.236  20.758 -0.5094 -0.2229  0.3028
11864ION     CL14064   2.874   3.187  24.395 -0.1764 -0.2031 -0.2416
11865ION     CL14065   8.104   5.399  16.396 -0.2307  0.1230 -0.3582
11866ION     CL14066   7.453   1.370  16.264  0.5307 -0.0009  0.0574
11867ION     CL14067  19.795   1.602  24.523  0.2127  0.1936 -0.0131
11868ION     CL14068  24.912   5.843   8.077  0.3619  0.4383  0.2520
11869ION     CL14069   8.744   4.144   0.710  0.1633 -0.2621 -0.1326
11870ION     CL14070  23.655   1.053   0.941  0.2322  0.5344 -0.0095
11871ION     CL14071  17.719   5.680   8.603  0.1498 -0.6098  0.3345
11872ION     CL14072  22.632   0.654   5.426  0.1573  0.1363 -0.3338
11873ION     CL14073  19.753   0.239   6.703  0.1047  0.6237 -0.3162
11874ION     CL14074  18.633   4.444  23.224 -0.0063  0.3525 -0.0132
11875ION     CL14075   4.203   0.925  21.044 -0.3109  0.0743 -0.3020
11876ION     CL14076  25.272   3.550   1.765  0.1452  0.1531  0.2336
11877ION     CL14077  20.632   0.739   4.876  0.0882  0.2213 -0.0325
11878ION     CL14078  27.286   0.038   5.625 -0.0908 -0.3349  0.4043
11879ION     CL14079   3.185   6.873  15.347  0.0584  0.0043  0.3690
11880ION     CL14080  23.434   1.413  23.782  0.0145 -0.0223 -0.1457
11881ION     CL14081   2.603   6.427  26.037  0.0478 -0.0051  0.1585
11882ION     CL14082  23.182   7.108   5.094 -0.5171  0.3155 -0.5707
11883ION     CL14083   0.679   7.687  22.635  0.1266 -0.1231  0.0093
11884ION     CL14084  23.769   5.681   8.506 -0.4374 -0.2375  0.2603
11885ION     CL14085  28.625   6.044   6.396  0.1011 -0.2293  0.1087
11886ION     CL14086  25.072   6.524  17.032 -0.1490  0.4034  0.4032
11887ION     CL14087  16.402   4.158  22.148 -0.2290  0.1404  0.1609
11888ION     CL14088  31.342   7.800   7.710  0.0165  0.0229  0.6862
11889ION     CL14089  25.452   4.333   1.484 -0.1307 -0.0002 -0.1613
11890ION     CL14090  14.709   6.949  20.406  0.2359  0.0073  0.0433
11891ION     CL14091  10.693   2.802   7.148 -0.0266 -0.1760 -0.0469
11892ION     CL14092  19.033   4.998   9.152  0.1475 -0.1124  0.3145
11893ION     CL14093  26.970   7.794  24.554 -0.1430  0.0206  0.2378
11894ION     CL14094   4.966   1.397   0.794 -0.1988  0.3231  0.1866
11895ION     CL14095  29.791   2.028   4.672 -0.0511 -0.0078 -0.4776
11896ION     CL14096  28.496   1.265   9.122  0.1240  0.0239  0.0024
11897ION     CL14097  28.761   7.759   5.180 -0.1322 -0.1837 -0.3082
11898ION     CL14098  17.898   4.218  25.830  0.1002  0.4289  0.4231
11899ION     CL14099  15.063   3.676  23.481 -0.5481 -0.2758 -0.0870
11900ION     CL14100  10.483   6.088  24.908 -0.2722 -0.0341 -0.0305
11901ION     CL14101  20.885   3.762   6.629  0.1628  0.0730 -0.1823
11902ION     CL14102  29.776   5.333   3.867  0.3204  0.0221  0.2859
11903ION     CL14103  30.122   1.372   0.731  0.1211 -0.0208 -0.2743
11904ION     CL14104  26.791   6.848   8.785 -0.4896  0.3180  0.2392
11905ION     CL14105  29.398   6.566   2.331 -0.5558  0.0126 -0.1134
11906ION     CL14106  27.469   2.335  16.964  0.6284 -0.5232  0.1045
11907ION     CL14107   6.448   1.816  19.261 -0.3661 -0.5498 -0.1554
11908ION     CL14108   8.641   6.595   9.963 -0.2141  0.2247 -0.4314
11909ION     CL14109   7.135   2.295   0.628  0.2570 -0.3256  0.4811
11910ION     CL14110  13.379   2.132   4.510  0.4081  0.1608  0.0354
11911ION     CL14111   7.213   0.834   6.246  0.2233 -0.2931 -0.2115
11912ION     CL14112  22.593   4.606   4.085  0.0744 -0.2164  0.0409
11913ION     CL14113  22.979   7.040  23.674  0.0324  0.2597  0.1689
11914ION     CL14114   1.182   5.964  22.724 -0.3079 -0.0320  0.2851
11915ION     CL14115  16.447   0.232   8.942 -0.3722 -0.1067 -0.0908
11916ION     CL14116  13.034   6.635  10.146 -0.1965  0.0764 -0.1246
11917ION     CL14117   4.650   6.338  19.785 -0.1826 -0.4125 -0.4477
11918ION     CL14118  10.479   7.197   8.264 -0.0847  0.1269  0.0648
11919ION     CL14119  22.314   7.172  16.484  0.4509 -0.2920  0.0311
11920ION     CL14120  24.327   7.077   4.681  0.0546  0.1814 -0.2906
11921ION     CL14121  27.102   6.565  19.321  0.1108 -0.3752  0.0676
11922ION     CL14122  21.439   6.260   2.718  0.5828 -0.4186 -0.2384
11923ION     CL14123  23.385   4.391  24.652  0.0673 -0.0905 -0.2219
11924ION     CL14124  11.991   6.482   2.070 -0.2198  0.1218 -0.1403
11925ION     CL14125   7.721   3.022  22.386 -0.3917  0.0303  0.0820
11926ION     CL14126   6.746   7.018   5.195  0.3434 -0.3936  0.0685
11927ION     CL14127  20.420   7.479   7.984  0.0863  0.1349 -0.1078
11928ION     CL14128   6.815   6.932   9.942  0.0996 -0.2107 -0.1923
11929ION     CL14129  14.055   2.130   3.857  0.1755  0.2244  0.5315
11930ION     CL14130  30.578   0.311  21.870  0.1692 -0.1922 -0.0123
11931ION     CL14131   0.741   0.985  20.862  0.2014 -0.1223 -0.0716
11932ION     CL14132  12.226   1.216   3.369  0.0153  0.0527 -0.0102
11933ION     CL14133   2.995   0.653   0.465 -0.2418  0.1960  0.0070
11934ION     CL14134  17.254   7.850  19.304  0.4459  0.2929 -0.0381
11935ION     CL14135   5.228   0.230   9.045 -0.0630 -0.2875 -0.1486
11936ION     CL14136  13.861   7.847  23.773 -0.5109 -0.1414  0.2949
11937ION     CL14137  20.045   7.037  21.245 -0.1300 -0.6031 -0.0048
11938ION     CL14138   9.298   5.896  20.067  0.0317 -0.4964  0.2564
11939ION     CL14139  14.896   5.949  21.180  0.1954  0.1527  0.1017
11940ION     CL14140  17.581   4.707  16.865  0.0264 -0.0501 -0.3028
11941ION     CL14141   0.814   0.912  16.378 -0.1086  0.1619  0.0464
11942ION     CL14142   8.221   5.142   2.978  0.1163  0.0243 -0.4436
11943ION     CL14143   8.895   1.819   2.660  0.1036 -0.3997 -0.1007
11944ION     CL14144  10.362   2.465   8.447 -0.4431  0.3000  0.2170
11945ION     CL14145   0.063   6.875   5.094  0.3462 -0.0481 -0.1347
11946ION     CL14146  20.923   3.540  17.932  0.0068  0.2572  0.0531
11947ION     CL14147   3.397   0.533  20.344 -0.0533  0.1316 -0.0164
11948ION     CL14148  21.162   6.390   6.660 -0.2208  0.0783 -0.1114
11949ION     CL14149   6.934   0.422  22.205  0.0189  0.5195  0.1400
11950ION     CL14150  17.771   5.860   4.337 -0.2399  0.0280 -0.2083
11951ION     CL14151  27.009   1.486  17.296  0.1680  0.0293  0.2129
11952ION     CL14152  20.433   0.051   5.313 -0.3176  0.0036  0.1095
11953ION     CL14153  11.329   1.616   5.047  0.2956  0.3480  0.1015
11954ION     CL14154  17.400   4.060  23.644  0.1507 -0.1422 -0.0420
11955ION     CL14155  10.124   4.516  21.707 -0.0233  0.0294  0.2831
11956ION     CL14156  27.706   1.729   0.816 -0.1851  0.1078  0.1824
11957ION     CL14157  31.249   4.923   5.645 -0.2100  0.3342  0.4192
11958ION     CL14158  25.334   5.428   4.337 -0.0034  0.0279 -0.0019
11959ION     CL14159  20.703   5.813   9.537  0.3582  0.6297  0.0673
11960ION     CL14160  17.955   6.308   0.106 -0.2204 -0.1649  0.1340
11961ION     CL14161  24.062   7.102  20.875 -0.0061 -0.1505  0.2039
11962ION     CL14162  15.400   5.349  18.152  0.0014  0.2724 -0.1753
11963ION     CL14163  30.060   3.527  21.159  0.1291  0.3399  0.3196
11964ION     CL14164   2.906   0.156  17.902 -0.1998 -0.2361 -0.1542
11965ION     CL14165  12.162   2.764  18.148  0.1643 -0.0348 -0.2190
11966ION     CL14166  15.743   0.419  25.016 -0.0407 -0.2227 -0.0891
11967ION     CL14167   0.576   7.432   6.434 -0.2144 -0.1647  0.4061
11968ION     CL14168  12.371   0.282  21.280 -0.0083  0.4218 -0.0988
11969ION     CL14169  14.662   2.266  16.742 -0.4310 -0.0373 -0.8574
11970ION     CL14170  13.964   7.659   3.935 -0.3096 -0.1284  0.1300
11971ION     CL14171  24.315   2.262   3.384 -0.3360  0.2344  0.4086
11972ION     CL14172   3.492   0.941  16.754 -0.0825  0.2382 -0.0223
11973ION     CL14173   4.472   1.345   7.991  0.0242  0.3250 -0.3240
11974ION     CL14174  29.586   0.793   6.275 -0.4615  0.0359 -0.1578
11975ION     CL14175  12.393   2.704   6.016 -0.0096 -0.1772 -0.1855
11976ION     CL14176  16.551   1.903  18.688 -0.3175  0.1311 -0.4609
11977ION     CL14177   9.929   5.201  25.304  0.1846 -0.3503  0.0680
11978ION     CL14178  31.124   5.017  20.015  0.0483 -0.0608  0.1517
11979ION     CL14179  27.340   1.946   5.784 -0.2490 -0.0563  0.0176
11980ION     CL14180  18.445   4.266   2.579  0.0130  0.0407  0.3536
11981ION     CL14181  27.278   6.437  21.788 -0.0906  0.1996 -0.0192
11982ION     CL14182  21.718   1.936  19.992 -0.2622 -0.0563  0.0881
11983ION     CL14183  29.906   3.123  19.240  0.0816  0.0099 -0.0421
11984ION     CL14184   7.389   7.534   6.558  0.1480 -0.0479  0.0733
11985ION     CL14185  25.509   5.215   5.361 -0.0107 -0.2108 -0.1461
11986ION     CL14186  25.005   3.177  19.769 -0.0181 -0.2136 -0.1459
11987ION     CL14187   0.797   1.525   6.339 -0.2529 -0.0881 -0.2599
11988DOPC   NC314188   7.010   6.897  14.933 -0.1818  0.3330 -0.2652
11988DOPC   PO414189   6.803   6.686  14.669  0.0471  0.1436 -0.0531
11988DOPC   GL114190   6.994   6.438  14.302  0.1323 -0.1753  0.0501
11988DOPC   GL214191   6.682   6.341  14.287 -0.0231  0.2675  0.0826
11988DOPC   C1A14192   7.095   6.501  13.850  0.2167 -0.0725 -0.1190
11988DOPC   D2A14193   7.124   6.727  13.448  0.0813 -0.0058  0.0628
11988DOPC   C3A14194   7.255   6.537  13.084  0.1356 -0.1425  0.0611
11988DOPC   C4A14195   7.633   6.422  12.815  0.2193  0.3570 -0.0998
11988DOPC   C1B14196   6.497   6.280  13.918  0.0891  0.3022 -0.1117
11988DOPC   D2B14197   6.517   6.113  13.409  0.1884  0.0709  0.1886
11988DOPC   C3B14198   6.521   5.707  13.201 -0.0498  0.0964 -0.1901
11988DOPC   C4B14199   6.485   5.325  12.968 -0.0321  0.4525 -0.1472
11989DOPC   NC314200  22.217   3.336  15.490  0.0199  0.1710 -0.0814
11989DOPC   PO414201  22.019   3.555  15.225 -0.0851  0.0675  0.1045
11989DOPC   GL114202  22.125   3.489  14.767 -0.0224  0.0816 -0.1330
11989DOPC   GL214203  22.320   3.312  14.775 -0.0807  0.0899 -0.2947
11989DOPC   C1A14204  21.918   3.692  14.417 -0.0358 -0.2083 -0.2414
11989DOPC   D2A14205  21.938   3.945  14.036  0.0986  0.3273 -0.5157
11989DOPC   C3A14206  21.886   4.365  13.871  0.0166  0.2016  0.0126
11989DOPC   C4A14207  22.152   4.678  13.587  0.0775  0.0364  0.0690
11989DOPC   C1B14208  22.672   3.181  14.537  0.3180 -0.2064  0.1972
11989DOPC   D2B14209  23.009   2.966  14.246 -0.1183 -0.1213 -0.0367
11989DOPC   C3B14210  23.213   2.882  13.838  0.0927 -0.1537  0.1985
11989DOPC   C4B14211  23.622   2.703  13.601 -0.0930 -0.0055  0.3066
11990DOPC   NC314212  13.438   7.043  15.534 -0.2871  0.1367 -0.1389
11990DOPC   PO414213  13.383   6.750  15.280  0.1404 -0.2331  0.1513
11990DOPC   GL114214  13.095   6.793  14.956  0.0031 -0.0254 -0.1608
11990DOPC   GL214215  13.187   7.055  14.824  0.1487  0.1347 -0.3014
11990DOPC   C1A14216  13.254   6.705  14.493  0.0767  0.3656 -0.1564
11990DOPC   D2A14217  13.277   6.907  14.018 -0.3555  0.2873 -0.0904
11990DOPC   C3A14218  13.515   7.141  13.654  0.1659  0.1612  0.1421
11990DOPC   C4A14219  13.754   7.478  13.406 -0.1054 -0.0282 -0.2512
11990DOPC   C1B14220  13.084   7.148  14.446  0.0899 -0.2576 -0.1358
11990DOPC   D2B14221  12.920   7.335  13.940 -0.1356 -0.0506  0.0795
11990DOPC   C3B14222  13.082   7.403  13.510 -0.1487  0.1494  0.0774
11990DOPC   C4B14223  13.074   7.481  13.060 -0.1562  0.1642  0.0833
11991DOPC   NC314224  29.423   2.953  14.675  0.1675 -0.0546 -0.5502
11991DOPC   PO414225  29.190   3.275  14.565  0.1445 -0.1294 -0.1605
11991DOPC   GL114226  29.225   3.386  14.111  0.1501 -0.0903 -0.5862
11991DOPC   GL214227  29.100   3.146  14.068 -0.0311  0.2865  0.0715
11991DOPC   C1A14228  29.018   3.540  13.691 -0.0922 -0.0753  0.1032
11991DOPC   D2A14229  28.893   3.582  13.205  0.3255  0.0197  0.1430
11991DOPC   C3A14230  28.665   3.966  12.929 -0.2356 -0.3174 -0.1296
11991DOPC   C4A14231  28.597   4.305  12.528  0.0063 -0.1630  0.1119
11991DOPC   C1B14232  28.958   3.055  13.665 -0.1763  0.1351  0.0173
11991DOPC   D2B14233  28.835   2.803  13.240 -0.2344 -0.2019 -0.3231
11991DOPC   C3B14234  28.455   2.839  13.003  0.2818 -0.0046 -0.1144
11991DOPC   C4B14235  28.112   3.022  12.729  0.0123 -0.0449 -0.1569
11992DOPC   NC314236  25.405   6.067  15.464 -0.0113 -0.1649  0.4340
11992DOPC   PO414237  25.093   6.258  15.329  0.0867 -0.0012  0.0211
11992DOPC   GL114238  25.105   6.257  14.934 -0.0973  0.2230 -0.1410
11992DOPC   GL214239  24.745   6.245  14.892  0.1165 -0.3224 -0.0784
11992DOPC   C1A14240  25.406   6.269  14.611 -0.2703 -0.0664 -0.1600
11992DOPC   D2A14241  25.550   6.010  14.226  0.0666 -0.2320 -0.1741
11992DOPC   C3A14242  25.646   5.512  14.307 -0.1014  0.0548 -0.2734
11992DOPC   C4A14243  25.844   5.153  14.066  0.2078  0.0183  0.0009
11992DOPC   C1B14244  24.701   6.516  14.571  0.1087  0.0430  0.0484
11992DOPC   D2B14245  24.659   6.416  14.077  0.3358 -0.4758  0.0354
11992DOPC   C3B14246  24.698   5.951  13.920  0.0901  0.0296  0.0045
11992DOPC   C4B14247  24.918   5.752  13.538  0.1884 -0.0020  0.1367
11993DOPC   NC314248  29.332   4.323  14.928 -0.3557 -0.0663  0.1756
11993DOPC   PO414249  29.631   4.207  14.692 -0.1249 -0.1814  0.2205
11993DOPC   GL114250  29.381   4.408  14.383 -0.6198  0.1234 -0.0237
11993DOPC   GL214251  29.565   4.257  14.254  0.2575 -0.0956 -0.1137
11993DOPC   C1A14252  29.069   4.517  14.152  0.0833 -0.0728  0.0814
11993DOPC   D2A14253  28.816   4.461  13.755 -0.2992 -0.1460  0.0063
11993DOPC   C3A14254  28.396   4.612  13.474 -0.1663 -0.0508 -0.2359
11993DOPC   C4A14255  27.981   4.699  13.239  0.0060  0.0189  0.0717
11993DOPC   C1B14256  29.384   4.386  13.809  0.0690  0.0879  0.0330
11993DOPC   D2B14257  29.246   4.546  13.410 -0.2928 -0.0853  0.2826
11993DOPC   C3B14258  29.400   4.582  12.967 -0.1639 -0.2523 -0.1115
11993DOPC   C4B14259  29.654   4.568  12.552  0.1249  0.0678 -0.0433
11994DOPC   NC314260   8.676   1.419  15.420  0.2741  0.2698  0.3707
11994DOPC   PO414261   8.362   1.554  15.203  0.1055 -0.3324  0.2292
11994DOPC   GL114262   8.311   1.902  14.839 -0.1937 -0.0629 -0.1823
11994DOPC   GL214263   8.580   1.859  14.882 -0.2276 -0.0290  0.2710
11994DOPC   C1A14264   8.131   2.032  14.351  0.0733  0.3094 -0.3134
11994DOPC   D2A14265   8.292   2.344  13.967  0.0695 -0.1928  0.1343
11994DOPC   C3A14266   8.523   2.621  13.734 -0.1749 -0.1550  0.1271
11994DOPC   C4A14267   8.797   2.836  13.373  0.0150 -0.2427 -0.0145
11994DOPC   C1B14268   8.605   2.086  14.439 -0.0490  0.3090 -0.1161
11994DOPC   D2B14269   8.727   2.076  13.942 -0.3049 -0.0588 -0.0168
11994DOPC   C3B14270   8.843   2.232  13.530  0.0858 -0.0037  0.4060
11994DOPC   C4B14271   8.949   2.443  13.056  0.1663  0.1350 -0.0704
11995DOPC   NC314272  15.504   7.799  15.704 -0.1906 -0.0829 -0.3807
11995DOPC   PO414273  15.725   7.844  15.352 -0.2917  0.2742  0.2762
11995DOPC   GL114274  15.643   7.867  14.885 -0.3557  0.2113  0.0813
11995DOPC   GL214275  15.577   8.108  14.972 -0.2696  0.2411  0.3460
11995DOPC   C1A14276  15.932   7.956  14.611  0.0471 -0.3408  0.2689
11995DOPC   D2A14277  16.030   8.225  14.205 -0.0803  0.2204 -0.1292
11995DOPC   C3A14278  15.656   8.236  13.983 -0.2658 -0.0155 -0.0212
11995DOPC   C4A14279  15.245   8.344  14.093  0.1447 -0.1415 -0.0388
11995DOPC   C1B14280  15.596   8.406  14.664 -0.0892  0.0490 -0.0168
11995DOPC   D2B14281  15.618   8.743  14.313  0.1766 -0.2788 -0.1514
11995DOPC   C3B14282  15.655   8.798  13.819  0.1567 -0.0504 -0.1790
11995DOPC   C4B14283  15.874   8.901  13.339 -0.2880  0.0687 -0.4221
11996DOPC   NC314284  18.213   7.370  15.320  0.1937 -0.2436 -0.3037
11996DOPC   PO414285  18.518   7.344  15.050  0.3868  0.1131  0.3060
11996DOPC   GL114286  18.516   7.379  14.611  0.0680  0.0702  0.1006
11996DOPC   GL214287  18.688   7.686  14.671  0.2278 -0.1683 -0.2435
11996DOPC   C1A14288  18.532   7.630  14.264  0.0273  0.0377  0.1091
11996DOPC   D2A14289  18.595   7.866  13.905  0.0707  0.0091 -0.1190
11996DOPC   C3A14290  18.576   7.851  13.455  0.0098 -0.0950 -0.0572
11996DOPC   C4A14291  18.525   7.566  13.037 -0.0282 -0.3901  0.3364
11996DOPC   C1B14292  18.521   8.092  14.406  0.1254  0.1017  0.0927
11996DOPC   D2B14293  18.568   8.452  14.112 -0.2332  0.2767  0.1141
11996DOPC   C3B14294  18.348   8.677  13.778 -0.2425  0.2276 -0.3462
11996DOPC   C4B14295  18.074   8.600  13.299  0.1068 -0.2947 -0.0219
11997DOPC   NC314296   7.982   1.885  15.195 -0.1732 -0.0815 -0.0025
11997DOPC   PO414297   7.868   1.627  14.898 -0.1027 -0.2267  0.0422
11997DOPC   GL114298   8.148   1.560  14.576 -0.1169  0.3038  0.0909
11997DOPC   GL214299   8.316   1.493  14.752 -0.4534  0.1058  0.1357
11997DOPC   C1A14300   8.232   1.529  14.142 -0.0071  0.0363  0.1982
11997DOPC   D2A14301   8.155   1.716  13.706 -0.0390  0.2427  0.2356
11997DOPC   C3A14302   8.209   2.097  13.562  0.1233 -0.0933  0.0197
11997DOPC   C4A14303   8.419   2.461  13.181 -0.0132  0.2120 -0.1618
11997DOPC   C1B14304   8.676   1.582  14.478 -0.0081  0.3070  0.0475
11997DOPC   D2B14305   8.759   1.504  14.017  0.0567  0.1402  0.1761
11997DOPC   C3B14306   8.632   1.744  13.582  0.0311  0.5479  0.1686
11997DOPC   C4B14307   8.656   1.990  13.105  0.0331  0.1487  0.0299
11998DOPC   NC314308   9.708   3.811  15.458  0.1267  0.1325 -0.0585
11998DOPC   PO414309   9.788   4.140  15.247  0.1221  0.0952 -0.4096
11998DOPC   GL114310   9.652   4.250  14.928 -0.1133 -0.1359  0.0466
11998DOPC   GL214311   9.699   4.560  15.063 -0.2712 -0.1366 -0.2770
11998DOPC   C1A14312   9.633   4.109  14.475  0.2341 -0.2924  0.3235
11998DOPC   D2A14313   9.707   3.932  13.999 -0.0033 -0.4261 -0.1152
11998DOPC   C3A14314  10.115   3.756  13.916 -0.4049  0.0721  0.1481
11998DOPC   C4A14315  10.564   3.793  13.627  0.0218 -0.0787  0.0558
11998DOPC   C1B14316  10.133   4.575  14.900 -0.3877  0.2810  0.1804
11998DOPC   D2B14317  10.592   4.446  14.877 -0.0410 -0.3089  0.0842
11998DOPC   C3B14318  10.757   4.246  14.550  0.1098  0.0489 -0.1480
11998DOPC   C4B14319  11.103   3.946  14.295 -0.2086  0.0979  0.0532
11999DOPC   NC314320  20.458   2.790  14.997  0.1648 -0.1455 -0.1324
11999DOPC   PO414321  20.827   2.840  15.156 -0.0919 -0.0073  0.0864
11999DOPC   GL114322  21.186   2.607  14.911  0.0660 -0.2924 -0.0577
11999DOPC   GL214323  20.923   2.549  14.731 -0.2730  0.0857 -0.5726
11999DOPC   C1A14324  21.361   2.733  14.511 -0.0619 -0.1121  0.1288
11999DOPC   D2A14325  21.329   2.860  14.005 -0.0842  0.1946  0.2830
11999DOPC   C3A14326  21.611   2.747  13.601 -0.4353  0.2935 -0.0977
11999DOPC   C4A14327  21.768   2.591  13.123 -0.0229 -0.1397  0.1819
11999DOPC   C1B14328  20.647   2.703  14.499 -0.0275  0.2037 -0.0623
11999DOPC   D2B14329  20.375   2.771  14.068 -0.0260  0.2436 -0.0679
11999DOPC   C3B14330  19.974   2.876  13.901  0.1795  0.0847  0.1308
11999DOPC   C4B14331  19.561   3.022  13.635  0.1016 -0.2609 -0.2196
12000DOPC   NC314332   7.845   2.794  14.903  0.3161  0.0388  0.3085
12000DOPC   PO414333   8.075   3.121  14.799 -0.0296  0.1536 -0.0678
12000DOPC   GL114334   8.293   3.237  14.440  0.0786  0.3619  0.1270
12000DOPC   GL214335   7.984   3.295  14.341 -0.3532  0.1753  0.1613
12000DOPC   C1A14336   8.515   2.960  14.245  0.2564 -0.1835  0.1705
12000DOPC   D2A14337   8.773   2.555  14.209 -0.2659  0.0824  0.0416
12000DOPC   C3A14338   9.029   2.505  13.866 -0.1084  0.2695 -0.0398
12000DOPC   C4A14339   9.265   2.628  13.480 -0.1017  0.2848  0.1362
12000DOPC   C1B14340   7.930   3.506  13.955  0.1296  0.2543 -0.0010
12000DOPC   D2B14341   7.872   3.624  13.484  0.2015  0.1411 -0.0726
12000DOPC   C3B14342   8.201   3.716  13.082  0.0607 -0.0706 -0.0237
12000DOPC   C4B14343   8.392   3.822  12.626  0.2126 -0.1100  0.1268
12001DOPC   NC314344   2.102   3.097  14.070 -0.3644 -0.0825  0.2000
12001DOPC   PO414345   2.468   3.052  14.216 -0.2345 -0.0573  0.0600
12001DOPC   GL114346   2.759   3.338  14.086 -0.0407 -0.3649  0.3082
12001DOPC   GL214347   2.585   3.313  13.805  0.0998  0.0966 -0.1670
12001DOPC   C1A14348   3.235   3.331  14.001 -0.1689  0.1295 -0.0690
12001DOPC   D2A14349   3.745   3.393  13.856  0.1846 -0.1815  0.3453
12001DOPC   C3A14350   3.882   2.956  13.776  0.2683  0.0143 -0.2975
12001DOPC   C4A14351   4.043   2.531  13.604 -0.0056  0.3003  0.0498
12001DOPC   C1B14352   2.942   3.236  13.594 -0.0250 -0.1257  0.2149
12001DOPC   D2B14353   3.377   3.105  13.506  0.0797 -0.1264  0.0485
12001DOPC   C3B14354   3.473   3.008  13.049 -0.0408 -0.0057 -0.1060
12001DOPC   C4B14355   3.607   2.685  12.665  0.0906  0.2344 -0.0892
12002DOPC   NC314356   5.018   3.784  15.228  0.2368 -0.1479 -0.2475
12002DOPC   PO414357   4.961   3.500  14.967  0.0594  0.0935 -0.1294
12002DOPC   GL114358   4.938   3.433  14.483 -0.0694 -0.4238  0.0447
12002DOPC   GL214359   4.947   3.227  14.608  0.2341  0.0977  0.1790
12002DOPC   C1A14360   4.631   3.627  14.211  0.0404  0.0666 -0.0269
12002DOPC   D2A14361   4.579   3.699  13.706  0.0653 -0.1411  0.2143
12002DOPC   C3A14362   4.405   3.456  13.269  0.0906  0.3644  0.0630
12002DOPC   C4A14363   4.323   3.159  12.924 -0.2315 -0.0181 -0.0912
12002DOPC   C1B14364   5.273   3.052  14.390  0.0005 -0.0469  0.0295
12002DOPC   D2B14365   5.691   2.967  14.149 -0.3237 -0.0981  0.1754
12002DOPC   C3B14366   5.744   2.886  13.676  0.0966 -0.0248 -0.1538
12002DOPC   C4B14367   5.756   2.877  13.153 -0.2826 -0.1595 -0.1557
12003DOPC   NC314368  11.280   5.763  15.635 -0.1173  0.1664  0.1269
12003DOPC   PO414369  11.400   5.563  15.292 -0.2405 -0.0835 -0.1733
12003DOPC   GL114370  11.652   5.557  14.944  0.1420 -0.2026  0.2363
12003DOPC   GL214371  11.618   5.255  15.001  0.0182  0.1992  0.1095
12003DOPC   C1A14372  11.740   5.756  14.526 -0.1438  0.0959 -0.1297
12003DOPC   D2A14373  11.619   5.971  14.122  0.2232 -0.3174  0.0810
12003DOPC   C3A14374  11.828   6.179  13.743  0.1834  0.0740 -0.3388
12003DOPC   C4A14375  12.020   6.457  13.418 -0.4161 -0.1927 -0.0774
12003DOPC   C1B14376  11.659   5.297  14.607 -0.0372  0.0727  0.0157
12003DOPC   D2B14377  11.545   5.430  14.145 -0.0847 -0.2464  0.1552
12003DOPC   C3B14378  11.494   5.664  13.707 -0.2425  0.2930  0.0548
12003DOPC   C4B14379  11.592   5.855  13.302 -0.1484 -0.0142 -0.1050
12004DOPC   NC314380   8.853   7.740  15.403 -0.3770 -0.1334  0.0979
12004DOPC   PO414381   8.604   7.848  15.099 -0.1365  0.0511 -0.1619
12004DOPC   GL114382   8.724   8.112  14.661  0.3134  0.2714 -0.0275
12004DOPC   GL214383   8.961   8.066  14.678 -0.0120 -0.2961 -0.0754
12004DOPC   C1A14384   8.719   7.811  14.384 -0.0576  0.2246 -0.2767
12004DOPC   D2A14385   8.562   7.701  13.939 -0.1780 -0.1075 -0.1105
12004DOPC   C3A14386   8.279   7.633  13.611 -0.0638 -0.0112  0.0507
12004DOPC   C4A14387   7.823   7.551  13.404 -0.2910 -0.0509 -0.0773
12004DOPC   C1B14388   9.030   8.208  14.253  0.0495  0.0339 -0.2217
12004DOPC   D2B14389   9.282   8.372  13.816  0.2815 -0.0170 -0.1187
12004DOPC   C3B14390   9.103   8.213  13.416 -0.0383 -0.0810 -0.1377
12004DOPC   C4B14391   9.108   7.979  12.962  0.0874  0.0687  0.3438
12005DOPC   NC314392   0.521   3.280  14.632  0.0868 -0.2800 -0.2052
12005DOPC   PO414393   0.438   2.911  14.594 -0.0977 -0.1447 -0.1719
12005DOPC   GL114394   0.298   2.989  14.264 -0.0342  0.0736  0.3932
12005DOPC   GL214395   0.446   3.220  14.144  0.2675  0.1124  0.0242
12005DOPC   C1A14396   0.211   2.858  13.809 -0.0328 -0.1918 -0.0835
12005DOPC   D2A14397  -0.009   2.947  13.374  0.0310  0.2333  0.2923
12005DOPC   C3A14398   0.060   3.157  12.950 -0.0352 -0.1579 -0.2184
12005DOPC   C4A14399   0.232   3.410  12.557  0.0127 -0.0144  0.0097
12005DOPC   C1B14400   0.459   3.239  13.698 -0.0155  0.0538  0.0370
12005DOPC   D2B14401   0.470   3.170  13.236 -0.2604 -0.0599 -0.0937
12005DOPC   C3B14402   0.677   2.859  13.039 -0.1563  0.0169  0.5150
12005DOPC   C4B14403   0.836   2.421  12.959  0.0049 -0.1088 -0.2927
12006DOPC   NC314404  26.589   0.775  15.068  0.2083  0.0157 -0.0942
12006DOPC   PO414405  26.512   1.128  14.853 -0.2519 -0.1989 -0.2849
12006DOPC   GL114406  26.234   1.012  14.517 -0.3979  0.0239  0.0249
12006DOPC   GL214407  26.348   1.250  14.426 -0.1634  0.2030  0.2926
12006DOPC   C1A14408  26.105   0.790  14.067 -0.2288 -0.0672  0.0452
12006DOPC   D2A14409  26.090   0.715  13.620  0.2296 -0.0504 -0.2173
12006DOPC   C3A14410  25.802   0.527  13.342  0.0410 -0.0873  0.2776
12006DOPC   C4A14411  25.636   0.132  13.026  0.1680  0.1308  0.1935
12006DOPC   C1B14412  26.356   1.237  14.021  0.1320  0.0896 -0.0354
12006DOPC   D2B14413  26.426   1.131  13.553  0.1396  0.0393  0.1374
12006DOPC   C3B14414  26.536   0.872  13.201  0.0604  0.1374 -0.4266
12006DOPC   C4B14415  26.630   1.124  12.814  0.2135 -0.1084  0.3940
12007DOPC   NC314416  15.199   3.780  15.058 -0.2144  0.0284 -0.0030
12007DOPC   PO414417  14.940   4.079  15.137 -0.0849  0.1074  0.0065
12007DOPC   GL114418  14.536   4.075  15.068 -0.3007  0.0026  0.0590
12007DOPC   GL214419  14.620   3.888  14.879  0.1006 -0.1430 -0.2358
12007DOPC   C1A14420  14.297   4.304  14.732  0.0250  0.1970  0.1431
12007DOPC   D2A14421  14.127   4.433  14.313 -0.1601  0.0545  0.1674
12007DOPC   C3A14422  14.246   4.558  13.927  0.0912 -0.2186 -0.0062
12007DOPC   C4A14423  14.341   4.630  13.450  0.3306 -0.3656  0.1536
12007DOPC   C1B14424  14.394   3.745  14.569 -0.1400  0.2106 -0.2339
12007DOPC   D2B14425  14.227   3.471  14.202  0.0653  0.1189 -0.1787
12007DOPC   C3B14426  14.323   3.259  13.809 -0.3643  0.1514 -0.0626
12007DOPC   C4B14427  14.395   3.021  13.301  0.3861  0.1537  0.2850
12008DOPC   NC314428  29.847   7.425  14.556  0.2839 -0.1552 -0.0831
12008DOPC   PO414429  29.943   7.658  14.887  0.2600 -0.1293 -0.1108
12008DOPC   GL114430  29.707   8.014  14.708 -0.0932  0.1547 -0.1071
12008DOPC   GL214431  29.953   7.932  14.552  0.2278 -0.1067  0.1248
12008DOPC   C1A14432  29.522   8.083  14.330  0.0295  0.3543  0.2440
12008DOPC   D2A14433  29.432   8.156  13.804 -0.2196 -0.2016  0.0232
12008DOPC   C3A14434  29.025   8.203  13.695  0.1230 -0.0327  0.2349
12008DOPC   C4A14435  28.845   8.368  13.256  0.0302 -0.1821  0.1262
12008DOPC   C1B14436  30.096   7.694  14.220  0.3490 -0.0261  0.5295
12008DOPC   D2B14437  30.194   7.322  13.911  0.1666  0.2273  0.2049
12008DOPC   C3B14438  30.557   7.238  13.661 -0.1027  0.2804 -0.2386
12008DOPC   C4B14439  31.041   7.419  13.689  0.1866  0.1761  0.0346
12009DOPC   NC314440  13.637   3.994  15.734 -0.0193  0.0693  0.0788
12009DOPC   PO414441  13.760   4.201  15.427  0.0291 -0.1907  0.0946
12009DOPC   GL114442  13.643   4.278  15.057  0.3838  0.0230 -0.1822
12009DOPC   GL214443  13.795   4.371  14.892 -0.2408 -0.4169  0.1285
12009DOPC   C1A14444  13.441   3.918  14.825 -0.2594  0.0866  0.0855
12009DOPC   D2A14445  13.014   3.661  14.730 -0.1478 -0.1315 -0.1065
12009DOPC   C3A14446  12.756   3.600  14.358 -0.2634  0.1316  0.0270
12009DOPC   C4A14447  12.647   3.642  13.893 -0.2540  0.0819  0.0511
12009DOPC   C1B14448  13.779   4.694  14.552 -0.0524  0.1977 -0.3541
12009DOPC   D2B14449  13.691   4.802  14.141 -0.1822  0.0474 -0.0716
12009DOPC   C3B14450  13.312   4.662  14.016  0.0736  0.2276 -0.0095
12009DOPC   C4B14451  12.893   4.529  13.973  0.0509  0.1114 -0.1337
12010DOPC   NC314452   5.357   2.044  15.021  0.0427 -0.0157  0.0430
12010DOPC   PO414453   5.696   2.252  14.991 -0.2064  0.0155  0.3720
12010DOPC   GL114454   5.791   1.984  14.721 -0.4479 -0.0315  0.5665
12010DOPC   GL214455   6.002   2.182  14.674  0.2998 -0.1893  0.1572
12010DOPC   C1A14456   5.820   1.868  14.368  0.2128  0.2359 -0.0305
12010DOPC   D2A14457   5.799   1.652  13.889 -0.1323 -0.1130  0.3527
12010DOPC   C3A14458   5.581   1.478  13.497 -0.1326  0.0823 -0.2079
12010DOPC   C4A14459   5.468   1.413  12.990 -0.0536  0.1286  0.0823
12010DOPC   C1B14460   6.337   2.043  14.355 -0.2521 -0.3331 -0.0184
12010DOPC   D2B14461   6.173   2.053  13.941  0.1407 -0.0839  0.0458
12010DOPC   C3B14462   6.417   2.407  13.909 -0.1151 -0.0818  0.2787
12010DOPC   C4B14463   6.257   2.816  13.692  0.1359 -0.0048  0.0029
12011DOPC   NC314464  28.935   2.194  14.827  0.2695  0.0405 -0.0729
12011DOPC   PO414465  29.080   2.518  14.715  0.1595 -0.3793 -0.0023
12011DOPC   GL114466  28.977   2.849  14.431  0.0916 -0.5218  0.2734
12011DOPC   GL214467  29.183   2.627  14.288 -0.3170  0.0275 -0.1068
12011DOPC   C1A14468  28.762   2.809  14.109  0.2144 -0.0281 -0.2214
12011DOPC   D2A14469  28.534   2.864  13.671  0.0073  0.2165  0.0714
12011DOPC   C3A14470  28.587   3.227  13.356  0.2544  0.3558 -0.0230
12011DOPC   C4A14471  28.730   3.232  12.866 -0.3061 -0.1073 -0.3248
12011DOPC   C1B14472  29.163   2.598  13.815  0.3576 -0.0625 -0.1261
12011DOPC   D2B14473  28.973   2.383  13.421  0.1179  0.2799 -0.1836
12011DOPC   C3B14474  29.310   2.259  13.154 -0.0860 -0.1967  0.1336
12011DOPC   C4B14475  29.719   2.153  12.803  0.0224  0.1558  0.2551
12012DOPC   NC314476  17.955   1.999  15.116  0.2059 -0.0296 -0.0745
12012DOPC   PO414477  17.571   2.191  15.218 -0.1854  0.1019 -0.1525
12012DOPC   GL114478  17.520   2.348  14.928 -0.1022  0.0804  0.0962
12012DOPC   GL214479  17.506   2.064  14.789  0.1288 -0.2383  0.0235
12012DOPC   C1A14480  17.868   2.489  14.728  0.4000  0.1095 -0.1656
12012DOPC   D2A14481  18.185   2.477  14.405 -0.1391 -0.2070  0.0262
12012DOPC   C3A14482  18.283   2.388  13.955 -0.0016  0.0230 -0.1454
12012DOPC   C4A14483  18.097   2.286  13.495 -0.0274  0.1018  0.0179
12012DOPC   C1B14484  17.415   2.313  14.417 -0.1615 -0.0306 -0.0911
12012DOPC   D2B14485  17.178   2.720  14.220 -0.2901 -0.1466 -0.0123
12012DOPC   C3B14486  16.733   2.853  14.050 -0.1414  0.2852 -0.0077
12012DOPC   C4B14487  16.392   3.197  13.967  0.0620  0.0196  0.2837
12013DOPC   NC314488   0.113   4.108  14.843  0.2026 -0.0610  0.0695
12013DOPC   PO414489  -0.021   3.973  14.510  0.1098 -0.3951  0.0172
12013DOPC   GL114490  -0.094   4.255  14.232 -0.4840 -0.0927 -0.0123
12013DOPC   GL214491  -0.136   3.993  14.053  0.1488  0.1183 -0.0119
12013DOPC   C1A14492  -0.333   4.587  13.998 -0.1272  0.3643 -0.2941
12013DOPC   D2A14493  -0.493   4.921  13.669 -0.0586 -0.3767 -0.2803
12013DOPC   C3A14494  -0.410   5.043  13.205 -0.0355  0.4233 -0.0911
12013DOPC   C4A14495  -0.593   5.080  12.723  0.2194  0.2586 -0.4194
12013DOPC   C1B14496  -0.302   4.222  13.669 -0.0681  0.1403  0.0533
12013DOPC   D2B14497  -0.284   4.563  13.317 -0.0988  0.2012 -0.0350
12013DOPC   C3B14498  -0.463   4.594  12.860  0.2741 -0.0403 -0.0750
12013DOPC   C4B14499  -0.733   4.677  12.412  0.0696  0.2002  0.2289
12014DOPC   NC314500   9.528   6.018  15.181 -0.0054 -0.1564  0.0835
12014DOPC   PO414501   9.885   6.210  15.115 -0.1980 -0.3465 -0.0837
12014DOPC   GL114502   9.987   6.413  14.862  0.1067  0.1364 -0.2052
12014DOPC   GL214503  10.288   6.493  14.832  0.2222 -0.0943 -0.0681
12014DOPC   C1A14504  10.031   6.320  14.384 -0.1004 -0.0869  0.0725
12014DOPC   D2A14505  10.099   6.176  13.944 -0.1099  0.2005 -0.0883
12014DOPC   C3A14506   9.920   6.313  13.514  0.3104 -0.1158  0.1699
12014DOPC   C4A14507   9.696   6.556  13.161 -0.0635  0.2651 -0.2148
12014DOPC   C1B14508  10.495   6.465  14.403  0.1133  0.2599  0.1721
12014DOPC   D2B14509  10.698   6.565  13.928  0.0209  0.1154 -0.0457
12014DOPC   C3B14510  10.833   6.172  13.637 -0.1273  0.4700  0.0135
12014DOPC   C4B14511  11.075   5.934  13.298 -0.0472  0.2368 -0.1289
12015DOPC   NC314512  12.693   3.777  15.500  0.3107 -0.0701  0.1146
12015DOPC   PO414513  12.375   3.999  15.540 -0.0177  0.2277  0.0583
12015DOPC   GL114514  12.285   3.989  15.149  0.2534 -0.0588  0.0918
12015DOPC   GL214515  12.564   4.001  15.112 -0.0740 -0.0464 -0.2697
12015DOPC   C1A14516  12.114   3.767  14.755  0.3804  0.0956  0.0740
12015DOPC   D2A14517  11.830   3.735  14.372 -0.3990 -0.5150 -0.1952
12015DOPC   C3A14518  11.538   3.825  13.984 -0.0260 -0.1055  0.1289
12015DOPC   C4A14519  11.589   4.125  13.579 -0.0585  0.0483  0.0384
12015DOPC   C1B14520  12.612   3.931  14.746  0.0052 -0.0978  0.1109
12015DOPC   D2B14521  12.386   3.863  14.274 -0.0398  0.0976  0.0222
12015DOPC   C3B14522  12.788   4.040  14.126  0.1454 -0.1267  0.0899
12015DOPC   C4B14523  13.221   4.136  13.913  0.1234  0.0331  0.1326
12016DOPC   NC314524   0.682   5.885  14.436 -0.0832  0.0178  0.1463
12016DOPC   PO414525   1.002   5.714  14.299 -0.4915 -0.1757  0.1075
12016DOPC   GL114526   0.952   5.666  13.905 -0.0685  0.0472  0.2873
12016DOPC   GL214527   0.691   5.618  13.801  0.2053  0.1995 -0.0181
12016DOPC   C1A14528   1.045   5.807  13.494 -0.1376 -0.1871  0.0533
12016DOPC   D2A14529   0.945   5.892  13.038 -0.1187 -0.1462  0.1103
12016DOPC   C3A14530   0.602   5.945  12.774 -0.0083 -0.2014 -0.2587
12016DOPC   C4A14531   0.356   5.539  12.740 -0.0997 -0.1673 -0.0731
12016DOPC   C1B14532   0.780   5.251  13.624 -0.2111  0.1104  0.2902
12016DOPC   D2B14533   0.758   4.870  13.307 -0.0951  0.1446 -0.4053
12016DOPC   C3B14534   0.902   4.940  12.868 -0.0632 -0.0928  0.1357
12016DOPC   C4B14535   0.975   4.610  12.507  0.1103 -0.0025  0.1429
12017DOPC   NC314536  11.851   2.430  16.074  0.0867  0.0296  0.3071
12017DOPC   PO414537  11.831   2.077  15.881  0.1738 -0.0872  0.0034
12017DOPC   GL114538  11.778   1.987  15.417  0.0089 -0.1169 -0.0270
12017DOPC   GL214539  11.593   1.795  15.409  0.3107  0.0089  0.0460
12017DOPC   C1A14540  11.659   2.211  15.056  0.0218 -0.1341  0.0958
12017DOPC   D2A14541  11.394   2.460  14.669 -0.3089 -0.2019 -0.0903
12017DOPC   C3A14542  11.465   2.413  14.158 -0.0298 -0.0634  0.0441
12017DOPC   C4A14543  11.608   2.316  13.659  0.0883  0.1832 -0.1818
12017DOPC   C1B14544  11.432   1.750  14.974 -0.1351  0.1515 -0.0516
12017DOPC   D2B14545  11.567   1.957  14.552 -0.1201  0.1331 -0.2030
12017DOPC   C3B14546  11.628   1.876  14.043  0.1050  0.0160 -0.0061
12017DOPC   C4B14547  11.649   1.794  13.579  0.1048 -0.0483  0.0140
12018DOPC   NC314548   7.950   1.129  14.715 -0.3483  0.0532  0.3592
12018DOPC   PO414549   8.189   0.847  14.815  0.2689  0.0132  0.2628
12018DOPC   GL114550   8.442   0.573  14.507  0.0220  0.0862 -0.2152
12018DOPC   GL214551   8.297   0.727  14.318 -0.5086  0.1117 -0.0344
12018DOPC   C1A14552   8.444   0.271  14.164 -0.1052  0.2033  0.1627
12018DOPC   D2A14553   8.406   0.265  13.649 -0.1124  0.2426  0.2342
12018DOPC   C3A14554   8.144   0.219  13.306  0.1037  0.1109  0.2424
12018DOPC   C4A14555   7.622   0.133  13.132  0.1958  0.0121  0.0561
12018DOPC   C1B14556   8.203   0.579  13.940 -0.1880 -0.0417 -0.0910
12018DOPC   D2B14557   8.036   0.907  13.664  0.1618  0.3726 -0.3881
12018DOPC   C3B14558   8.129   1.192  13.307 -0.2824  0.0918  0.0324
12018DOPC   C4B14559   8.289   1.607  13.185 -0.0563 -0.0570 -0.0597
12019DOPC   NC314560  10.269   4.379  15.390  0.3522  0.4018 -0.0929
12019DOPC   PO414561  10.401   4.006  15.398 -0.1832 -0.0478 -0.1301
12019DOPC   GL114562  10.682   3.906  15.076  0.2199 -0.1649  0.1750
12019DOPC   GL214563  10.441   3.791  14.870 -0.0512 -0.2437  0.3387
12019DOPC   C1A14564  11.021   4.227  15.001  0.0463  0.2640  0.0078
12019DOPC   D2A14565  11.241   4.444  14.630  0.0540 -0.0202 -0.0408
12019DOPC   C3A14566  11.102   4.393  14.180  0.0167 -0.0505  0.3376
12019DOPC   C4A14567  10.913   4.108  13.865 -0.0436  0.1066 -0.2839
12019DOPC   C1B14568  10.245   4.099  14.533  0.0770 -0.0072  0.0951
12019DOPC   D2B14569  10.343   4.607  14.427  0.1548  0.1366 -0.2256
12019DOPC   C3B14570  10.319   4.917  14.065  0.0921  0.1231 -0.0456
12019DOPC   C4B14571  10.382   4.873  13.598 -0.0274  0.0084 -0.0272
12020DOPC   NC314572   5.556   1.493  15.435 -0.3120  0.1977 -0.1653
12020DOPC   PO414573   5.640   1.704  15.101 -0.3417  0.1558  0.0431
12020DOPC   GL114574   5.366   1.721  14.747  0.0334 -0.0364  0.1099
12020DOPC   GL214575   5.491   1.465  14.639 -0.6526  0.2058 -0.1759
12020DOPC   C1A14576   5.296   1.740  14.256  0.2707 -0.1989 -0.1204
12020DOPC   D2A14577   5.269   1.896  13.771 -0.1366  0.0245  0.2079
12020DOPC   C3A14578   5.123   1.663  13.350  0.0023  0.0248  0.0589
12020DOPC   C4A14579   4.886   1.890  12.976  0.0624  0.1272 -0.2942
12020DOPC   C1B14580   5.239   1.226  14.350 -0.1120  0.1606 -0.0354
12020DOPC   D2B14581   5.038   0.988  13.974  0.1815 -0.1457 -0.1836
12020DOPC   C3B14582   4.744   1.210  13.709  0.2366  0.2271  0.2021
12020DOPC   C4B14583   4.573   1.429  13.323 -0.2104  0.0709 -0.0745
12021DOPC   NC314584   4.802   0.641  15.187 -0.3171  0.1789  0.0280
12021DOPC   PO414585   4.864   0.980  14.931  0.0629  0.1456 -0.1878
12021DOPC   GL114586   4.928   0.961  14.513 -0.1652  0.2264  0.3682
12021DOPC   GL214587   4.757   1.165  14.454  0.2384  0.2400 -0.0006
12021DOPC   C1A14588   4.944   0.559  14.177 -0.1690  0.3154  0.0176
12021DOPC   D2A14589   4.717   0.221  13.879 -0.1247  0.1554 -0.2047
12021DOPC   C3A14590   4.554   0.179  13.448  0.3907  0.1354 -0.2663
12021DOPC   C4A14591   4.535   0.370  13.033  0.0977 -0.0431 -0.0640
12021DOPC   C1B14592   4.911   1.522  14.149  0.0406  0.0006 -0.0879
12021DOPC   D2B14593   4.788   1.820  13.837 -0.2227  0.0837 -0.0061
12021DOPC   C3B14594   4.545   1.873  13.432 -0.0070 -0.1463 -0.3641
12021DOPC   C4B14595   4.382   1.880  12.974 -0.1618  0.0958  0.0327
12022DOPC   NC314596  20.192   4.510  15.679  0.1694 -0.1259  0.1217
12022DOPC   PO414597  20.106   4.869  15.560  0.2868 -0.0422 -0.1084
12022DOPC   GL114598  20.236   4.768  15.168 -0.1516  0.0565 -0.1861
12022DOPC   GL214599  19.963   4.788  15.134  0.3980 -0.0575  0.0805
12022DOPC   C1A14600  20.401   5.012  14.851 -0.3851 -0.0540 -0.1641
12022DOPC   D2A14601  20.592   5.058  14.440  0.0969 -0.0844  0.1558
12022DOPC   C3A14602  20.576   5.227  13.978  0.1471  0.0424  0.0820
12022DOPC   C4A14603  20.555   5.433  13.502  0.0127 -0.0354  0.2128
12022DOPC   C1B14604  19.852   5.059  14.877  0.0182  0.2563  0.1800
12022DOPC   D2B14605  19.587   5.272  14.594  0.1863 -0.1146 -0.1451
12022DOPC   C3B14606  19.611   5.190  14.150 -0.0825  0.3363 -0.1354
12022DOPC   C4B14607  19.576   5.158  13.647  0.2326  0.0078  0.1213
12023DOPC   NC314608  16.822   6.768  15.553 -0.0507 -0.1708  0.1304
12023DOPC   PO414609  16.866   6.593  15.203 -0.0879  0.0166  0.0634
12023DOPC   GL114610  16.494   6.619  14.912  0.0606 -0.1957  0.4145
12023DOPC   GL214611  16.576   6.490  14.682 -0.3446 -0.0032 -0.2686
12023DOPC   C1A14612  16.257   6.859  14.640  0.1731  0.3063 -0.2104
12023DOPC   D2A14613  15.827   7.044  14.473  0.0240  0.0505 -0.1542
12023DOPC   C3A14614  15.814   7.145  13.967 -0.0249  0.3144  0.2753
12023DOPC   C4A14615  15.889   7.166  13.454  0.0391 -0.1874  0.2572
12023DOPC   C1B14616  16.295   6.512  14.272 -0.1267 -0.2000  0.2513
12023DOPC   D2B14617  16.199   6.970  14.134 -0.0859  0.1598  0.1245
12023DOPC   C3B14618  16.295   7.149  13.730 -0.3357  0.0111  0.3502
12023DOPC   C4B14619  16.597   7.232  13.377  0.0095 -0.0900 -0.0729
12024DOPC   NC314620  21.845   0.728  15.271  0.1854 -0.0457  0.0408
12024DOPC   PO414621  21.877   0.311  15.282 -0.1029 -0.0128  0.0170
12024DOPC   GL114622  21.892   0.007  15.022  0.0768  0.1041  0.1875
12024DOPC   GL214623  22.205  -0.002  14.960 -0.2131  0.0786 -0.0552
12024DOPC   C1A14624  21.699  -0.033  14.591 -0.1031 -0.0016 -0.1339
12024DOPC   D2A14625  21.719   0.053  14.159  0.0239 -0.4104  0.1179
12024DOPC   C3A14626  21.427   0.075  13.785  0.0548 -0.3463 -0.1699
12024DOPC   C4A14627  21.022   0.118  13.400  0.0723  0.0714 -0.0693
12024DOPC   C1B14628  22.195  -0.073  14.562 -0.0960 -0.2308  0.0452
12024DOPC   D2B14629  22.033  -0.336  14.166  0.0176 -0.0181  0.0735
12024DOPC   C3B14630  21.803  -0.285  13.777 -0.3401 -0.2699 -0.1092
12024DOPC   C4B14631  21.580  -0.267  13.343  0.2302  0.1768 -0.2730
12025DOPC   NC314632   8.288   3.592  14.816 -0.0408 -0.0167 -0.1689
12025DOPC   PO414633   8.564   3.635  15.123  0.0223  0.3453 -0.2887
12025DOPC   GL114634   8.852   3.706  14.781  0.0457 -0.2514  0.2809
12025DOPC   GL214635   8.698   3.610  14.544  0.0177  0.0226  0.0256
12025DOPC   C1A14636   9.074   3.987  14.572 -0.3302  0.0530  0.1769
12025DOPC   D2A14637   9.272   4.358  14.253  0.0037  0.0239  0.1751
12025DOPC   C3A14638   9.287   4.102  13.815 -0.1557  0.2050 -0.0273
12025DOPC   C4A14639   9.158   3.858  13.418 -0.1368  0.1673  0.1548
12025DOPC   C1B14640   8.697   3.881  14.230 -0.0243  0.0829  0.0027
12025DOPC   D2B14641   8.820   4.248  13.957  0.2656  0.5748 -0.0960
12025DOPC   C3B14642   8.777   4.263  13.499 -0.0959  0.1846 -0.0576
12025DOPC   C4B14643   8.478   4.207  13.082 -0.0129  0.0290 -0.1805
12026DOPC   NC314644  31.255   1.716  14.341  0.0007  0.0051 -0.1072
12026DOPC   PO414645  31.597   1.491  14.217  0.1088  0.2497  0.0216
12026DOPC   GL114646  31.738   1.586  13.863 -0.0253 -0.0916 -0.0859
12026DOPC   GL214647  31.796   1.226  13.815  0.2327 -0.3800  0.3261
12026DOPC   C1A14648  31.644   1.799  13.536 -0.1334  0.1655  0.0639
12026DOPC   D2A14649  31.811   1.702  13.111  0.0030  0.1772 -0.1206
12026DOPC   C3A14650  31.454   1.500  12.860  0.2636  0.0271 -0.3268
12026DOPC   C4A14651  30.937   1.501  12.715  0.0734 -0.1229 -0.1319
12026DOPC   C1B14652  32.178   1.164  13.606 -0.0990 -0.5124  0.0046
12026DOPC   D2B14653  32.391   0.734  13.502 -0.2431 -0.1686 -0.0851
12026DOPC   C3B14654  32.435   0.416  13.889 -0.0494 -0.0753  0.0124
12026DOPC   C4B14655  32.115   0.037  14.100 -0.3324  0.2333 -0.1607
12027DOPC   NC314656   4.393   7.267  15.078 -0.1502 -0.0607 -0.2600
12027DOPC   PO414657   4.736   7.150  14.885  0.0090  0.1287  0.0806
12027DOPC   GL114658   4.778   7.308  14.479 -0.1234 -0.4070  0.3142
12027DOPC   GL214659   4.594   7.199  14.364 -0.1243  0.3495 -0.2793
12027DOPC   C1A14660   5.036   7.420  14.148 -0.2268  0.1500 -0.2380
12027DOPC   D2A14661   5.445   7.453  13.855  0.0311  0.0527  0.0147
12027DOPC   C3A14662   5.492   7.857  13.590 -0.0386 -0.0020 -0.0503
12027DOPC   C4A14663   5.515   8.312  13.352 -0.0065 -0.3198 -0.2540
12027DOPC   C1B14664   4.444   7.149  13.916 -0.2314  0.0151 -0.1140
12027DOPC   D2B14665   4.425   7.082  13.491 -0.1364  0.2214 -0.0201
12027DOPC   C3B14666   4.072   7.062  13.198  0.0583  0.1045 -0.1503
12027DOPC   C4B14667   3.681   7.267  12.990  0.0810  0.0678  0.2476
12028DOPC   NC314668  19.024   2.619  15.315  0.2497  0.2196 -0.0951
12028DOPC   PO414669  18.740   2.869  15.403  0.2433 -0.1317  0.0458
12028DOPC   GL114670  18.525   2.920  15.107  0.1127  0.1466 -0.1161
12028DOPC   GL214671  18.809   2.920  14.943 -0.3333 -0.1419 -0.1805
12028DOPC   C1A14672  18.207   3.048  14.856  0.4526 -0.2095 -0.0472
12028DOPC   D2A14673  17.914   3.071  14.413 -0.2701 -0.0193 -0.0994
12028DOPC   C3A14674  17.941   3.304  13.968  0.1529 -0.0124  0.1673
12028DOPC   C4A14675  18.110   3.294  13.505  0.3649  0.1623 -0.1798
12028DOPC   C1B14676  18.646   2.795  14.536 -0.2218  0.0849 -0.0088
12028DOPC   D2B14677  18.453   2.830  14.054 -0.0555 -0.3616  0.3470
12028DOPC   C3B14678  17.992   2.841  13.927 -0.1255  0.1783  0.0774
12028DOPC   C4B14679  17.911   2.863  13.460  0.0802 -0.0722 -0.1644
12029DOPC   NC314680  10.629   7.333  15.042  0.0523 -0.0575  0.2732
12029DOPC   PO414681  10.460   6.969  14.978  0.2102  0.2258 -0.1966
12029DOPC   GL114682  10.523   6.808  14.699  0.0866  0.2922 -0.1657
12029DOPC   GL214683  10.761   6.697  14.691 -0.0638  0.0604 -0.1115
12029DOPC   C1A14684  10.523   6.898  14.275 -0.2668 -0.0360  0.1121
12029DOPC   D2A14685  10.557   7.035  13.811 -0.0364  0.2143  0.0109
12029DOPC   C3A14686  10.820   6.694  13.484  0.0462 -0.2398  0.0124
12029DOPC   C4A14687  11.186   6.416  13.237 -0.0153  0.1506 -0.2237
12029DOPC   C1B14688  11.010   6.696  14.337  0.0663  0.3357  0.0116
12029DOPC   D2B14689  11.192   6.630  13.882  0.4018  0.2163  0.2032
12029DOPC   C3B14690  11.550   6.469  14.099 -0.0749 -0.1488  0.1406
12029DOPC   C4B14691  11.958   6.270  14.330  0.1657  0.0200  0.0100
12030DOPC   NC314692  22.753   1.766  14.828 -0.1615 -0.2519  0.0256
12030DOPC   PO414693  22.579   1.421  14.920 -0.0155 -0.1960 -0.0849
12030DOPC   GL114694  22.486   1.266  14.453  0.2776 -0.0765  0.0494
12030DOPC   GL214695  22.522   1.505  14.313 -0.0983 -0.2287 -0.0667
12030DOPC   C1A14696  22.709   1.140  14.055  0.2214 -0.1016 -0.1015
12030DOPC   D2A14697  22.830   1.256  13.578  0.0294  0.0422  0.0471
12030DOPC   C3A14698  22.767   1.660  13.455  0.0806 -0.0088  0.1482
12030DOPC   C4A14699  22.525   2.054  13.273  0.0126  0.1757  0.0783
12030DOPC   C1B14700  22.310   1.686  13.973  0.0371  0.0179 -0.1890
12030DOPC   D2B14701  22.218   1.717  13.553 -0.0553 -0.3289  0.2668
12030DOPC   C3B14702  22.165   2.175  13.754 -0.2769 -0.1802 -0.2227
12030DOPC   C4B14703  22.237   2.650  13.860  0.1183  0.2324 -0.1416
12031DOPC   NC314704  13.152   0.496  15.358  0.0912  0.0034  0.0353
12031DOPC   PO414705  13.313   0.181  15.555 -0.0274  0.1764 -0.1166
12031DOPC   GL114706  13.487  -0.075  15.173 -0.1750  0.0864  0.1623
12031DOPC   GL214707  13.257   0.146  15.103  0.2743  0.1768  0.0174
12031DOPC   C1A14708  13.755   0.226  14.955  0.4113 -0.3516  0.0494
12031DOPC   D2A14709  13.876   0.406  14.529 -0.1351  0.1750  0.2822
12031DOPC   C3A14710  13.832   0.429  14.066 -0.1179  0.4349 -0.0240
12031DOPC   C4A14711  13.727   0.496  13.571 -0.2509  0.0438  0.2210
12031DOPC   C1B14712  13.344   0.261  14.641 -0.1784  0.0931 -0.2168
12031DOPC   D2B14713  13.419   0.593  14.310  0.0680 -0.4636  0.1408
12031DOPC   C3B14714  13.212   0.777  13.974 -0.1443 -0.1229  0.2496
12031DOPC   C4B14715  13.185   1.076  13.674 -0.0110  0.0262  0.2443
12032DOPC   NC314716   6.453   7.655  13.773  0.0831  0.0634  0.0201
12032DOPC   PO414717   6.584   7.497  14.151 -0.2452 -0.2838 -0.0921
12032DOPC   GL114718   6.936   7.338  14.071 -0.1823 -0.4503 -0.0611
12032DOPC   GL214719   6.971   7.613  13.927  0.1625 -0.0901  0.1356
12032DOPC   C1A14720   7.185   7.061  13.827  0.0453 -0.3851 -0.2432
12032DOPC   D2A14721   7.503   6.762  13.739  0.1720  0.2442  0.3513
12032DOPC   C3A14722   7.766   6.735  13.284 -0.1509 -0.1821  0.1303
12032DOPC   C4A14723   8.038   6.822  12.893 -0.0715  0.0266  0.0714
12032DOPC   C1B14724   6.996   7.484  13.572  0.4792  0.2069  0.1000
12032DOPC   D2B14725   6.927   7.370  13.143  0.0452  0.0349  0.0487
12032DOPC   C3B14726   6.627   7.261  12.815 -0.0991 -0.0032 -0.0900
12032DOPC   C4B14727   6.452   7.460  12.379 -0.0537  0.0868 -0.1145
12033DOPC   NC314728  25.191   1.545  15.182  0.2496 -0.0049  0.0216
12033DOPC   PO414729  24.964   1.868  15.191  0.0850 -0.2218  0.1228
12033DOPC   GL114730  24.849   1.986  14.784 -0.1168  0.1610  0.1026
12033DOPC   GL214731  24.959   1.678  14.759  0.0448 -0.3345 -0.0981
12033DOPC   C1A14732  25.044   2.111  14.360  0.1149  0.3214 -0.2279
12033DOPC   D2A14733  25.186   2.024  13.924  0.2642 -0.0007 -0.0480
12033DOPC   C3A14734  25.152   2.055  13.448 -0.1501 -0.2361 -0.3224
12033DOPC   C4A14735  25.246   2.019  12.985  0.2226 -0.2249 -0.0925
12033DOPC   C1B14736  24.964   1.588  14.266  0.1972 -0.2674  0.0917
12033DOPC   D2B14737  25.115   1.537  13.779 -0.2598 -0.1138 -0.1048
12033DOPC   C3B14738  24.822   1.647  13.423  0.3462 -0.1438 -0.0578
12033DOPC   C4B14739  24.407   1.886  13.400 -0.0370  0.1415 -0.0031
12034DOPC   NC314740  17.777   3.640  15.229 -0.0850  0.0776 -0.2027
12034DOPC   PO414741  18.032   3.731  15.517 -0.0999 -0.0802  0.2218
12034DOPC   GL114742  18.223   3.590  15.171  0.0175 -0.1717  0.2703
12034DOPC   GL214743  18.183   3.891  15.082  0.2188 -0.2980  0.1303
12034DOPC   C1A14744  18.176   3.528  14.693  0.2449  0.0221 -0.0585
12034DOPC   D2A14745  18.445   3.351  14.256  0.1604  0.1901 -0.6348
12034DOPC   C3A14746  18.502   3.264  13.814  0.1561 -0.3306  0.1214
12034DOPC   C4A14747  18.603   3.205  13.299 -0.0876  0.2098  0.0313
12034DOPC   C1B14748  17.792   3.929  14.826  0.0201 -0.3742  0.0957
12034DOPC   D2B14749  17.725   4.261  14.451  0.1278 -0.0540  0.3526
12034DOPC   C3B14750  18.036   4.361  14.055 -0.3349  0.3614  0.5172
12034DOPC   C4B14751  18.196   4.192  13.595 -0.1721 -0.0694  0.0793
12035DOPC   NC314752  20.183   3.412  14.825  0.3618 -0.3840  0.0177
12035DOPC   PO414753  20.526   3.349  15.064 -0.1109  0.0528  0.1567
12035DOPC   GL114754  20.742   3.354  14.764  0.2696 -0.2122 -0.0951
12035DOPC   GL214755  20.634   3.130  14.640 -0.2121 -0.3690  0.3575
12035DOPC   C1A14756  20.994   3.538  14.468  0.1051  0.0292  0.3156
12035DOPC   D2A14757  21.169   3.378  14.047  0.3001 -0.0988  0.1068
12035DOPC   C3A14758  21.389   3.272  13.607  0.1069  0.1762  0.2449
12035DOPC   C4A14759  21.686   3.228  13.284 -0.3653 -0.4791 -0.4867
12035DOPC   C1B14760  20.674   3.326  14.185 -0.2087 -0.0090  0.2742
12035DOPC   D2B14761  20.884   3.399  13.658 -0.0421 -0.1093  0.3855
12035DOPC   C3B14762  20.900   3.327  13.225  0.0698  0.0895 -0.1070
12035DOPC   C4B14763  20.868   3.253  12.771 -0.0928  0.1421  0.4255
12036DOPC   NC314764  11.150   7.277  15.671  0.0665  0.0337 -0.0985
12036DOPC   PO414765  11.086   7.419  15.298 -0.1059  0.2254  0.3791
12036DOPC   GL114766  11.043   7.574  14.947  0.0396  0.0763  0.2137
12036DOPC   GL214767  11.229   7.366  14.814  0.1347 -0.2391  0.0780
12036DOPC   C1A14768  10.840   7.611  14.565  0.2300  0.3517 -0.0383
12036DOPC   D2A14769  10.837   7.919  14.144  0.1083  0.3118 -0.1444
12036DOPC   C3A14770  11.023   8.109  13.775  0.0330 -0.2152  0.0779
12036DOPC   C4A14771  11.288   8.147  13.328  0.1603  0.3111  0.2452
12036DOPC   C1B14772  11.360   7.424  14.380  0.1371 -0.0118  0.0323
12036DOPC   D2B14773  11.307   7.555  13.893  0.0208 -0.0345 -0.2030
12036DOPC   C3B14774  11.360   7.577  13.361 -0.2424 -0.0357 -0.0739
12036DOPC   C4B14775  11.408   7.357  12.965 -0.0478  0.4000 -0.0069
12037DOPC   NC314776   7.228   6.848  14.275  0.1683 -0.2475  0.0146
12037DOPC   PO414777   7.463   7.116  14.507 -0.0653  0.0678 -0.2191
12037DOPC   GL114778   7.746   7.271  14.289 -0.0164  0.0056  0.0143
12037DOPC   GL214779   7.597   7.106  14.032 -0.2326 -0.0361  0.1468
12037DOPC   C1A14780   8.118   7.434  14.233 -0.1264  0.2318  0.2995
12037DOPC   D2A14781   8.547   7.228  14.224 -0.2024  0.0801  0.0242
12037DOPC   C3A14782   9.011   7.227  14.110  0.0645  0.1084  0.1134
12037DOPC   C4A14783   9.379   7.360  13.728 -0.0784 -0.1418 -0.0429
12037DOPC   C1B14784   7.891   7.109  13.669 -0.2368 -0.0872  0.2695
12037DOPC   D2B14785   8.161   7.126  13.271  0.2806  0.0741 -0.2160
12037DOPC   C3B14786   8.440   7.487  13.180 -0.1096  0.0880  0.2748
12037DOPC   C4B14787   8.726   7.809  13.387 -0.2352  0.0042 -0.0036
12038DOPC   NC314788   7.829   5.341  15.061 -0.0394  0.1052  0.2409
12038DOPC   PO414789   8.186   5.481  15.037  0.1489 -0.0596  0.1567
12038DOPC   GL114790   8.270   5.835  14.690  0.1084  0.0223  0.3074
12038DOPC   GL214791   7.981   5.665  14.607 -0.1027  0.1205  0.1282
12038DOPC   C1A14792   8.377   6.148  14.352  0.0834 -0.3066  0.1503
12038DOPC   D2A14793   8.425   6.310  13.950  0.0236  0.4791  0.1304
12038DOPC   C3A14794   8.391   6.088  13.486 -0.0972  0.0506  0.1068
12038DOPC   C4A14795   8.422   5.883  13.070  0.1495  0.1021  0.3202
12038DOPC   C1B14796   7.956   5.225  14.433  0.1411  0.1674 -0.0242
12038DOPC   D2B14797   8.322   4.837  14.303  0.3653 -0.0037 -0.0134
12038DOPC   C3B14798   8.308   4.378  14.150 -0.1318  0.1488 -0.0189
12038DOPC   C4B14799   8.152   3.969  13.959 -0.0321 -0.0752 -0.1028
12039DOPC   NC314800   3.105   5.576  14.643  0.1609  0.0800  0.0541
12039DOPC   PO414801   2.842   5.847  14.532  0.0775 -0.2392 -0.0411
12039DOPC   GL114802   2.897   5.648  14.135  0.2305  0.2282  0.0081
12039DOPC   GL214803   3.146   5.499  14.155 -0.1665 -0.1761  0.0273
12039DOPC   C1A14804   2.652   5.537  13.761  0.3791  0.0466  0.1381
12039DOPC   D2A14805   2.403   5.201  13.494 -0.2158 -0.0726 -0.0013
12039DOPC   C3A14806   2.096   5.247  13.217  0.0266  0.2025 -0.1937
12039DOPC   C4A14807   1.772   5.496  12.940  0.1321  0.0851 -0.2605
12039DOPC   C1B14808   3.254   5.364  13.765 -0.1633  0.2253 -0.1757
12039DOPC   D2B14809   3.069   5.468  13.318 -0.1187  0.0332 -0.1694
12039DOPC   C3B14810   3.238   5.243  12.906  0.2157  0.1485 -0.0897
12039DOPC   C4B14811   3.104   4.929  12.564  0.0003 -0.2136  0.2301
12040DOPC   NC314812  22.203   0.759  15.937  0.1282  0.2033  0.0042
12040DOPC   PO414813  22.282   0.710  15.553  0.2480  0.2646  0.0641
12040DOPC   GL114814  22.562   0.606  15.181 -0.2534  0.0758 -0.0736
12040DOPC   GL214815  22.289   0.529  15.064 -0.2644 -0.2608  0.0175
12040DOPC   C1A14816  22.732   0.365  14.903 -0.1915 -0.0705  0.3096
12040DOPC   D2A14817  23.121  -0.005  14.726 -0.1732  0.0546 -0.4925
12040DOPC   C3A14818  23.424  -0.197  14.443  0.1158  0.0300  0.1301
12040DOPC   C4A14819  23.723  -0.427  14.202  0.0968  0.1409  0.1692
12040DOPC   C1B14820  22.337   0.458  14.676 -0.1430 -0.0195  0.0459
12040DOPC   D2B14821  22.355   0.300  14.244  0.0721  0.0001  0.1655
12040DOPC   C3B14822  22.284  -0.005  13.893 -0.1633 -0.1938 -0.0156
12040DOPC   C4B14823  22.504  -0.062  13.452  0.1557  0.0871 -0.0093
12041DOPC   NC314824   5.600   7.552  14.421  0.1860  0.2478  0.0954
12041DOPC   PO414825   5.620   7.175  14.609 -0.0684  0.0852  0.0426
12041DOPC   GL114826   5.529   6.807  14.335 -0.2132 -0.2586 -0.0346
12041DOPC   GL214827   5.772   6.709  14.492  0.1515  0.3098  0.0878
12041DOPC   C1A14828   5.404   6.925  13.925  0.0447 -0.1921  0.1288
12041DOPC   D2A14829   5.179   6.775  13.532 -0.0738  0.0057  0.0354
12041DOPC   C3A14830   5.293   6.536  13.156 -0.0124 -0.0903 -0.0073
12041DOPC   C4A14831   5.339   6.348  12.731 -0.1729  0.1761 -0.2352
12041DOPC   C1B14832   5.817   6.712  14.009  0.0051 -0.1438  0.3176
12041DOPC   D2B14833   6.026   6.340  13.700  0.1316  0.2653  0.0494
12041DOPC   C3B14834   5.950   5.977  13.478  0.4727 -0.2142  0.0378
12041DOPC   C4B14835   5.693   5.558  13.335  0.0088  0.0589  0.1754
12042DOPC   NC314836  13.523   4.761  15.123 -0.1163 -0.3399 -0.0562
12042DOPC   PO414837  13.764   5.077  15.225 -0.1907  0.0283  0.2264
12042DOPC   GL114838  13.877   5.072  14.859 -0.0690  0.0504  0.4970
12042DOPC   GL214839  13.537   5.140  14.744 -0.3308 -0.1023  0.7613
12042DOPC   C1A14840  14.279   4.992  14.689 -0.0382  0.2605  0.2127
12042DOPC   D2A14841  14.534   4.638  14.451 -0.4503 -0.3171  0.0253
12042DOPC   C3A14842  14.449   4.958  14.211 -0.2532 -0.1598 -0.0974
12042DOPC   C4A14843  14.398   5.460  14.147  0.1454  0.0892  0.0094
12042DOPC   C1B14844  13.334   4.914  14.465  0.0208 -0.2238  0.0634
12042DOPC   D2B14845  12.976   5.118  14.202 -0.1346 -0.0848 -0.1599
12042DOPC   C3B14846  12.722   5.101  13.840 -0.0009  0.0720 -0.1141
12042DOPC   C4B14847  12.408   5.269  13.471  0.1123  0.1511  0.0213
12043DOPC   NC314848  29.037   4.951  15.379 -0.0413  0.0781 -0.3946
12043DOPC   PO414849  29.198   4.758  15.112  0.3384  0.0708  0.1625
12043DOPC   GL114850  29.362   4.715  14.699  0.2807 -0.1577 -0.0525
12043DOPC   GL214851  29.288   4.991  14.679 -0.1590  0.3997 -0.2017
12043DOPC   C1A14852  29.474   4.873  14.319 -0.1874  0.0718  0.1717
12043DOPC   D2A14853  29.430   4.897  13.813 -0.2388  0.1821  0.1608
12043DOPC   C3A14854  29.559   4.965  13.346  0.1349  0.2241 -0.5972
12043DOPC   C4A14855  29.484   5.314  12.994 -0.1593  0.0887  0.0800
12043DOPC   C1B14856  29.038   5.153  14.439  0.1664  0.2982  0.2653
12043DOPC   D2B14857  29.010   5.385  13.956  0.1339 -0.0862  0.0606
12043DOPC   C3B14858  28.945   5.279  13.536 -0.2562  0.1072  0.1062
12043DOPC   C4B14859  29.048   5.518  13.120  0.1056  0.1223 -0.1774
12044DOPC   NC314860  19.469   5.851  16.094 -0.2419 -0.1038 -0.1633
12044DOPC   PO414861  19.659   6.144  15.848  0.1431 -0.0247 -0.3218
12044DOPC   GL114862  19.580   6.088  15.438 -0.2916  0.1986 -0.3070
12044DOPC   GL214863  19.842   6.231  15.430  0.1814  0.4224  0.0177
12044DOPC   C1A14864  19.492   5.950  15.040  0.2552  0.0590 -0.2879
12044DOPC   D2A14865  19.407   5.752  14.569 -0.0361 -0.1529  0.0021
12044DOPC   C3A14866  19.282   5.605  14.119 -0.1608  0.1707 -0.2337
12044DOPC   C4A14867  19.213   5.502  13.662  0.3285  0.3455  0.0579
12044DOPC   C1B14868  20.128   6.025  15.073 -0.1731 -0.0173 -0.0309
12044DOPC   D2B14869  20.565   5.942  14.841 -0.0808 -0.2373 -0.1082
12044DOPC   C3B14870  21.018   5.876  14.662 -0.2101 -0.0121  0.3049
12044DOPC   C4B14871  21.510   5.947  14.454  0.1120 -0.1561  0.0525
12045DOPC   NC314872   7.005   3.340  15.012 -0.0711 -0.0699  0.1825
12045DOPC   PO414873   7.282   3.531  15.187 -0.0147  0.0575  0.0793
12045DOPC   GL114874   7.389   3.402  14.786 -0.2356 -0.1264 -0.1636
12045DOPC   GL214875   7.313   3.604  14.708 -0.1763 -0.1546  0.0165
12045DOPC   C1A14876   7.537   3.277  14.377  0.1374 -0.4453 -0.1359
12045DOPC   D2A14877   7.607   3.153  13.892 -0.2454  0.0588  0.0900
12045DOPC   C3A14878   7.670   3.134  13.411  0.0694  0.0439  0.0468
12045DOPC   C4A14879   7.969   3.167  12.997 -0.1296 -0.0756  0.2234
12045DOPC   C1B14880   6.954   3.536  14.480 -0.0690  0.2021  0.1402
12045DOPC   D2B14881   6.612   3.459  14.039 -0.0801  0.1945 -0.0121
12045DOPC   C3B14882   6.732   3.263  13.605 -0.0626 -0.2597  0.1645
12045DOPC   C4B14883   6.539   3.022  13.178 -0.2623 -0.0049 -0.2298
12046DOPC   NC314884  11.987   4.691  15.382  0.3849 -0.1071  0.1717
12046DOPC   PO414885  12.002   5.015  15.144  0.1287 -0.0779  0.0251
12046DOPC   GL114886  12.140   5.080  14.783 -0.3621  0.1723 -0.3710
12046DOPC   GL214887  12.228   4.746  14.714  0.0196  0.0175  0.1715
12046DOPC   C1A14888  12.119   5.279  14.401 -0.1611  0.0558 -0.1638
12046DOPC   D2A14889  11.996   5.632  14.090 -0.0041  0.0177  0.3518
12046DOPC   C3A14890  11.949   5.382  13.735  0.2209 -0.1147 -0.0612
12046DOPC   C4A14891  11.794   5.324  13.287 -0.3644  0.0578 -0.0289
12046DOPC   C1B14892  12.049   4.763  14.340 -0.3925 -0.0180 -0.0170
12046DOPC   D2B14893  11.719   4.946  14.060 -0.3499 -0.0066  0.0433
12046DOPC   C3B14894  11.495   5.110  13.679 -0.1094 -0.2554 -0.0077
12046DOPC   C4B14895  11.135   4.870  13.430 -0.0872  0.2609  0.1296
12047DOPC   NC314896   7.278   2.180  14.978  0.3449  0.0914 -0.1123
12047DOPC   PO414897   7.366   2.579  15.041  0.1431 -0.1329 -0.1038
12047DOPC   GL114898   7.358   2.612  14.666 -0.2084  0.1101  0.3709
12047DOPC   GL214899   7.381   2.850  14.544 -0.5262  0.0667 -0.0162
12047DOPC   C1A14900   7.272   2.301  14.417  0.0071  0.4400  0.1892
12047DOPC   D2A14901   7.264   2.117  13.981 -0.3214  0.0023  0.0334
12047DOPC   C3A14902   7.228   2.335  13.548  0.1410 -0.1139  0.1865
12047DOPC   C4A14903   7.369   2.789  13.253 -0.1419  0.0331  0.0154
12047DOPC   C1B14904   7.428   2.752  14.131 -0.1861 -0.0070  0.1257
12047DOPC   D2B14905   7.610   2.527  13.825 -0.0502  0.3941 -0.2836
12047DOPC   C3B14906   7.728   2.490  13.408 -0.1028  0.0995  0.2135
12047DOPC   C4B14907   7.989   2.224  13.047 -0.4978  0.0823 -0.0505
12048DOPC   NC314908   9.609   7.309  14.910 -0.0800 -0.0124 -0.1788
12048DOPC   PO414909   9.305   7.134  15.106  0.2225  0.0618  0.1921
12048DOPC   GL114910   9.002   6.877  14.831 -0.0906  0.0173 -0.1802
12048DOPC   GL214911   9.372   6.861  14.750 -0.1996 -0.0708 -0.3358
12048DOPC   C1A14912   9.021   6.717  14.412 -0.3471 -0.0671  0.0753
12048DOPC   D2A14913   9.200   6.626  13.923  0.0977 -0.0172 -0.0028
12048DOPC   C3A14914   8.939   6.385  13.654  0.0515  0.0664 -0.0102
12048DOPC   C4A14915   9.037   6.323  13.216  0.2103  0.2401 -0.1984
12048DOPC   C1B14916   9.465   6.981  14.313 -0.4903 -0.0779  0.0157
12048DOPC   D2B14917   9.755   6.921  13.907 -0.2110  0.1506 -0.0005
12048DOPC   C3B14918   9.867   6.914  13.475 -0.0738 -0.0984 -0.1148
12048DOPC   C4B14919   9.958   7.210  13.122 -0.1656 -0.0681  0.0405
12049DOPC   NC314920  15.247   0.078  15.227  0.1696  0.4167 -0.1526
12049DOPC   PO414921  14.835   0.057  15.216 -0.1899 -0.0530  0.0088
12049DOPC   GL114922  14.667  -0.110  14.867  0.2131  0.1584 -0.2051
12049DOPC   GL214923  14.717   0.126  14.748  0.1103  0.0464 -0.2874
12049DOPC   C1A14924  14.589  -0.277  14.467  0.0332  0.2027 -0.2460
12049DOPC   D2A14925  14.489  -0.238  13.994  0.0838 -0.2247 -0.0810
12049DOPC   C3A14926  14.249  -0.375  13.589  0.0181  0.0701 -0.4141
12049DOPC   C4A14927  14.217  -0.460  13.116  0.0474  0.0559 -0.1468
12049DOPC   C1B14928  14.650   0.220  14.296  0.1654 -0.1308  0.0772
12049DOPC   D2B14929  14.906  -0.006  13.929  0.2421 -0.2523  0.2072
12049DOPC   C3B14930  15.121   0.278  13.615 -0.0424 -0.1023  0.1555
12049DOPC   C4B14931  15.398   0.173  13.223  0.0065  0.1722  0.0709
12050DOPC   NC314932  11.220   3.234  15.428 -0.1496 -0.1251  0.0366
12050DOPC   PO414933  11.512   3.514  15.385  0.1560 -0.3554 -0.2826
12050DOPC   GL114934  11.717   3.424  15.063 -0.1835 -0.0382 -0.4114
12050DOPC   GL214935  11.559   3.161  15.138 -0.4478  0.0761 -0.4085
12050DOPC   C1A14936  11.790   3.290  14.644  0.1934 -0.3053 -0.1577
12050DOPC   D2A14937  11.674   3.244  14.131  0.1366 -0.0079 -0.1902
12050DOPC   C3A14938  11.408   3.375  13.819 -0.0303  0.0449  0.2374
12050DOPC   C4A14939  11.193   3.735  13.539 -0.0539  0.0568 -0.1865
12050DOPC   C1B14940  11.758   2.771  15.031 -0.0400  0.2185 -0.0992
12050DOPC   D2B14941  11.930   2.416  14.707  0.1275  0.2755 -0.0018
12050DOPC   C3B14942  11.926   2.231  14.287 -0.1297 -0.0805 -0.2246
12050DOPC   C4B14943  12.042   2.363  13.847  0.1109  0.0395 -0.4364
12051DOPC   NC314944   2.869   0.301  14.271  0.0012  0.0617 -0.1676
12051DOPC   PO414945   3.264   0.273  14.285 -0.0061  0.0302 -0.1379
12051DOPC   GL114946   3.368   0.398  13.861  0.2672  0.0532  0.0792
12051DOPC   GL214947   3.532   0.619  13.919  0.2244 -0.1842  0.3667
12051DOPC   C1A14948   3.343   0.305  13.435 -0.0041 -0.0430 -0.2295
12051DOPC   D2A14949   3.164   0.277  12.976 -0.0921  0.0009 -0.0592
12051DOPC   C3A14950   3.311   0.053  12.618 -0.2452  0.0449  0.0792
12051DOPC   C4A14951   3.307  -0.426  12.627 -0.0918  0.0726 -0.0683
12051DOPC   C1B14952   3.954   0.676  13.766  0.1044 -0.3217 -0.0537
12051DOPC   D2B14953   4.299   0.660  13.358  0.0239 -0.0877 -0.0972
12051DOPC   C3B14954   4.671   0.970  13.255 -0.2273 -0.0016  0.0040
12051DOPC   C4B14955   5.048   1.240  13.050  0.0240  0.2773 -0.0848
12052DOPC   NC314956  26.644   2.191  15.362  0.2292 -0.2359 -0.1032
12052DOPC   PO414957  26.954   2.400  15.313 -0.1021 -0.1214 -0.3314
12052DOPC   GL114958  26.813   2.570  15.010 -0.1558 -0.1099  0.0438
12052DOPC   GL214959  26.558   2.566  15.020  0.3637 -0.2324  0.0672
12052DOPC   C1A14960  26.878   2.496  14.576  0.2196  0.0971  0.1511
12052DOPC   D2A14961  26.960   2.727  14.051  0.0703 -0.0667 -0.1499
12052DOPC   C3A14962  26.721   2.597  13.677 -0.1802 -0.0321  0.0659
12052DOPC   C4A14963  26.368   2.617  13.351  0.1434 -0.1258 -0.0122
12052DOPC   C1B14964  26.347   2.440  14.703 -0.0086 -0.0688 -0.1103
12052DOPC   D2B14965  26.196   2.087  14.430 -0.1879 -0.0519  0.2493
12052DOPC   C3B14966  26.405   1.665  14.287  0.0106 -0.2533  0.0243
12052DOPC   C4B14967  26.796   1.785  14.083  0.2218 -0.0391  0.0708
12053DOPC   NC314968  15.392   1.840  15.334  0.0957  0.1667  0.0517
12053DOPC   PO414969  15.741   1.673  15.278  0.1455 -0.3395  0.0271
12053DOPC   GL114970  15.670   1.823  14.947 -0.0527 -0.2799  0.2832
12053DOPC   GL214971  15.426   1.912  14.897 -0.3785 -0.2213  0.2730
12053DOPC   C1A14972  15.885   1.871  14.623 -0.1606  0.1115  0.0946
12053DOPC   D2A14973  16.309   1.980  14.368 -0.1441  0.4276  0.2640
12053DOPC   C3A14974  16.266   1.993  13.867 -0.1109  0.0626  0.0923
12053DOPC   C4A14975  16.201   1.967  13.336  0.0099  0.0160  0.0590
12053DOPC   C1B14976  15.418   2.065  14.485  0.1322  0.3505  0.0123
12053DOPC   D2B14977  15.509   2.271  14.063  0.0218 -0.0389  0.0415
12053DOPC   C3B14978  15.294   2.272  13.616  0.0866 -0.1632 -0.2835
12053DOPC   C4B14979  15.219   2.386  13.155  0.1363  0.1585  0.2182
12054DOPC   NC314980  14.739   7.494  15.334  0.2658 -0.2381  0.1470
12054DOPC   PO414981  15.102   7.333  15.385 -0.1957 -0.0561 -0.0819
12054DOPC   GL114982  15.216   7.073  14.959  0.4029  0.1237  0.1328
12054DOPC   GL214983  14.875   7.039  14.946 -0.0029 -0.4505  0.2056
12054DOPC   C1A14984  15.393   7.004  14.602  0.0848  0.0074 -0.3575
12054DOPC   D2A14985  15.282   6.905  14.137 -0.1369  0.0229 -0.3299
12054DOPC   C3A14986  15.035   6.942  13.736 -0.1071 -0.1203 -0.0838
12054DOPC   C4A14987  14.831   7.350  13.625 -0.0776 -0.0833 -0.2022
12054DOPC   C1B14988  14.757   7.081  14.549 -0.1009 -0.0576  0.0577
12054DOPC   D2B14989  14.808   7.218  14.084  0.0090 -0.0965 -0.4315
12054DOPC   C3B14990  14.544   6.996  13.858  0.0079  0.1257 -0.1554
12054DOPC   C4B14991  14.357   6.674  13.498  0.0424  0.0932  0.3893
12055DOPC   NC314992  10.050   3.229  14.874  0.3254 -0.0483  0.0232
12055DOPC   PO414993   9.640   3.323  14.868  0.1014 -0.2057 -0.1828
12055DOPC   GL114994   9.657   3.653  14.584  0.0541  0.0865  0.0446
12055DOPC   GL214995   9.938   3.703  14.687  0.0082  0.7006 -0.1294
12055DOPC   C1A14996   9.398   3.620  14.226 -0.2892  0.1118 -0.0995
12055DOPC   D2A14997   9.327   3.609  13.803 -0.2580  0.0602 -0.0845
12055DOPC   C3A14998   9.684   3.697  13.575  0.0231  0.0454 -0.0799
12055DOPC   C4A14999  10.060   3.859  13.300  0.0763 -0.2564  0.1016
12055DOPC   C1B15000  10.213   3.510  14.445 -0.0331  0.1166  0.0843
12055DOPC   D2B15001  10.002   3.269  14.027 -0.0953 -0.2350 -0.1036
12055DOPC   C3B15002  10.276   3.027  13.768  0.3144  0.1944 -0.2028
12055DOPC   C4B15003  10.699   2.883  13.745  0.1563 -0.0324  0.0848
12056DOPC   NC315004  12.723   6.133  15.428  0.0183  0.0636  0.0684
12056DOPC   PO415005  13.044   5.873  15.415 -0.0059  0.2507  0.3987
12056DOPC   GL115006  13.024   5.626  15.075 -0.0573 -0.2075 -0.1799
12056DOPC   GL215007  13.264   5.818  14.983  0.1321 -0.3784 -0.0343
12056DOPC   C1A15008  12.853   5.743  14.703  0.1023  0.2491 -0.1394
12056DOPC   D2A15009  12.725   6.008  14.332  0.1759  0.0874 -0.2676
12056DOPC   C3A15010  12.852   5.973  13.901 -0.1624  0.1016 -0.1214
12056DOPC   C4A15011  12.855   5.813  13.395  0.2685  0.0493 -0.1590
12056DOPC   C1B15012  13.317   5.515  14.704 -0.1168  0.2546  0.0997
12056DOPC   D2B15013  13.560   5.362  14.287 -0.2099 -0.0404 -0.2007
12056DOPC   C3B15014  13.367   5.170  13.938  0.0575  0.2308 -0.0339
12056DOPC   C4B15015  13.168   4.864  13.568 -0.3525  0.0487 -0.0257
12057DOPC   NC315016  15.048   2.701  14.975  0.0920  0.2243 -0.1119
12057DOPC   PO415017  14.685   2.623  15.129 -0.3087 -0.0182  0.0391
12057DOPC   GL115018  14.436   2.415  14.797 -0.2009 -0.0805  0.1051
12057DOPC   GL215019  14.471   2.699  14.676  0.3131 -0.0393  0.0734
12057DOPC   C1A15020  14.435   2.010  14.632 -0.0295  0.1081  0.0495
12057DOPC   D2A15021  14.427   1.530  14.470 -0.0109  0.0841  0.1097
12057DOPC   C3A15022  14.355   1.639  14.007  0.2481  0.0067 -0.1082
12057DOPC   C4A15023  14.402   1.635  13.512 -0.1874  0.3486  0.0429
12057DOPC   C1B15024  14.438   2.729  14.251  0.1121  0.3052 -0.0720
12057DOPC   D2B15025  14.264   2.683  13.798 -0.1440  0.1463  0.0421
12057DOPC   C3B15026  14.064   2.499  13.389  0.0917  0.1032 -0.2256
12057DOPC   C4B15027  13.728   2.312  13.057 -0.2545 -0.0508 -0.0791
12058DOPC   NC315028  27.529   0.639  14.806 -0.2719  0.1798 -0.3364
12058DOPC   PO415029  27.765   0.924  14.748 -0.0486 -0.1187 -0.1657
12058DOPC   GL115030  27.801   0.997  14.330  0.1474  0.0146  0.1219
12058DOPC   GL215031  27.512   0.973  14.313 -0.0717  0.4299 -0.1790
12058DOPC   C1A15032  28.156   0.843  14.020  0.1909  0.1195  0.3110
12058DOPC   D2A15033  28.600   0.590  13.931  0.0506  0.1368  0.0562
12058DOPC   C3A15034  28.653   1.057  13.789 -0.0411 -0.0546  0.0560
12058DOPC   C4A15035  28.338   1.406  13.658 -0.1143  0.0877 -0.2281
12058DOPC   C1B15036  27.392   1.062  13.903 -0.1274  0.0679  0.0946
12058DOPC   D2B15037  27.422   1.156  13.401 -0.0444 -0.3156  0.1214
12058DOPC   C3B15038  27.451   1.622  13.230  0.0698 -0.0910 -0.0139
12058DOPC   C4B15039  27.740   1.946  13.118 -0.0948  0.1172 -0.1024
12059DOPC   NC315040   7.665   2.548  15.477 -0.0447  0.0165 -0.1222
12059DOPC   PO415041   7.725   2.305  15.202 -0.0435  0.1040 -0.0201
12059DOPC   GL115042   7.677   2.347  14.790 -0.1652 -0.0973  0.3934
12059DOPC   GL215043   7.739   2.084  14.724  0.0871 -0.0600 -0.1470
12059DOPC   C1A15044   7.804   2.466  14.371 -0.1888  0.0670 -0.0489
12059DOPC   D2A15045   7.935   2.866  14.129 -0.0983 -0.0064  0.1447
12059DOPC   C3A15046   8.152   3.052  13.794  0.0552 -0.1238 -0.2082
12059DOPC   C4A15047   8.332   2.946  13.334  0.2756  0.0738  0.0020
12059DOPC   C1B15048   7.653   1.926  14.305  0.0049 -0.1953 -0.0583
12059DOPC   D2B15049   7.866   2.045  13.884  0.0598  0.1938 -0.1855
12059DOPC   C3B15050   7.744   2.009  13.434  0.2040 -0.1790  0.0466
12059DOPC   C4B15051   7.776   1.739  13.012 -0.1462 -0.1452 -0.3277
12060DOPC   NC315052   3.186   1.044  14.600  0.0813  0.3920  0.0985
12060DOPC   PO415053   3.046   0.699  14.627 -0.1621 -0.1234 -0.0366
12060DOPC   GL115054   2.936   0.785  14.235 -0.0575  0.3683  0.0426
12060DOPC   GL215055   3.106   0.632  14.087  0.2712 -0.3333 -0.1516
12060DOPC   C1A15056   2.767   1.072  13.951 -0.0079 -0.0255 -0.1259
12060DOPC   D2A15057   2.718   1.300  13.472 -0.0916 -0.1760  0.0742
12060DOPC   C3A15058   2.825   1.064  13.105 -0.0938  0.1259  0.1212
12060DOPC   C4A15059   2.874   0.663  12.827  0.1064  0.0488  0.0892
12060DOPC   C1B15060   2.808   0.539  13.817  0.0264  0.1375 -0.1594
12060DOPC   D2B15061   2.402   0.515  13.539  0.0104 -0.0039 -0.0553
12060DOPC   C3B15062   2.418   0.674  13.153 -0.1924  0.1877 -0.0274
12060DOPC   C4B15063   2.420   0.939  12.739 -0.3531  0.0366  0.0221
12061DOPC   NC315064  29.517   2.183  14.695  0.3034 -0.0920  0.0842
12061DOPC   PO415065  29.328   1.891  14.839 -0.1778 -0.2824 -0.0901
12061DOPC   GL115066  29.082   1.814  14.453  0.2326  0.0124 -0.1050
12061DOPC   GL215067  29.113   2.120  14.436 -0.1145  0.2000  0.0465
12061DOPC   C1A15068  29.272   1.639  14.012 -0.3707 -0.2094  0.5437
12061DOPC   D2A15069  29.077   1.385  13.667 -0.2116  0.0368 -0.0313
12061DOPC   C3A15070  28.737   1.334  13.384 -0.0599  0.1788 -0.0047
12061DOPC   C4A15071  28.889   1.493  12.915 -0.1806 -0.3496  0.2168
12061DOPC   C1B15072  29.396   2.235  14.131  0.2182 -0.3142 -0.1346
12061DOPC   D2B15073  29.690   2.451  13.788 -0.1435  0.2358 -0.4380
12061DOPC   C3B15074  29.817   2.424  13.299  0.0574 -0.3786  0.0345
12061DOPC   C4B15075  30.156   2.508  12.930  0.1181 -0.1832 -0.1819
12062DOPC   NC315076   9.890   5.325  15.492  0.1493  0.1428  0.3053
12062DOPC   PO415077   9.663   5.546  15.251  0.0832 -0.1376 -0.3853
12062DOPC   GL115078   9.660   5.381  14.885 -0.0665  0.0380 -0.1400
12062DOPC   GL215079   9.407   5.427  14.820  0.0060 -0.0141  0.1782
12062DOPC   C1A15080   9.892   5.279  14.474  0.0892 -0.2864 -0.0568
12062DOPC   D2A15081   9.905   5.191  13.966  0.0653  0.0519 -0.0726
12062DOPC   C3A15082   9.860   4.868  13.641  0.2560  0.1810  0.1735
12062DOPC   C4A15083   9.606   4.639  13.289  0.4854  0.0679 -0.0655
12062DOPC   C1B15084   9.303   5.556  14.417 -0.1912  0.2013  0.2733
12062DOPC   D2B15085   9.453   5.508  13.995 -0.0692  0.0812 -0.1420
12062DOPC   C3B15086   9.422   5.689  13.600 -0.2629  0.0809 -0.3703
12062DOPC   C4B15087   9.525   5.904  13.175 -0.3367 -0.0199  0.3180
12063DOPC   NC315088  10.881   0.535  15.016 -0.2585  0.0130 -0.2167
12063DOPC   PO415089  10.863   0.958  15.009 -0.0699  0.2214 -0.1863
12063DOPC   GL115090  10.968   1.200  14.661 -0.2946  0.2310 -0.5213
12063DOPC   GL215091  10.680   1.274  14.566 -0.2198 -0.2331  0.0405
12063DOPC   C1A15092  11.238   1.122  14.336 -0.0056 -0.1658 -0.0822
12063DOPC   D2A15093  11.304   1.298  13.838  0.0181 -0.0012  0.0988
12063DOPC   C3A15094  11.162   1.590  13.468  0.1121  0.1624  0.0606
12063DOPC   C4A15095  11.014   1.850  13.056  0.0003 -0.3108 -0.0218
12063DOPC   C1B15096  10.761   1.086  14.181  0.0553 -0.2925 -0.0282
12063DOPC   D2B15097  10.915   1.043  13.711 -0.1895  0.1604  0.2568
12063DOPC   C3B15098  11.145   1.155  13.340 -0.0694 -0.0587  0.3805
12063DOPC   C4B15099  11.085   1.279  12.894  0.1793 -0.0109 -0.1629
12064DOPC   NC315100  21.638   3.295  14.953  0.0948  0.4088  0.3548
12064DOPC   PO415101  21.496   3.601  15.118 -0.6358  0.2295  0.0704
12064DOPC   GL115102  21.236   3.786  14.729  0.0536  0.1642 -0.4716
12064DOPC   GL215103  21.466   3.668  14.616 -0.1521  0.2760 -0.0045
12064DOPC   C1A15104  21.054   4.129  14.477 -0.0685 -0.1741  0.1987
12064DOPC   D2A15105  21.173   4.322  14.051  0.0026  0.4111  0.0050
12064DOPC   C3A15106  21.059   4.237  13.611 -0.0180  0.2395 -0.0685
12064DOPC   C4A15107  21.094   4.153  13.108 -0.0237 -0.0156  0.1152
12064DOPC   C1B15108  21.390   3.798  14.219  0.0387 -0.2623 -0.1567
12064DOPC   D2B15109  21.308   3.832  13.741  0.0517  0.0803  0.2787
12064DOPC   C3B15110  21.275   3.713  13.295  0.1182 -0.1128 -0.1774
12064DOPC   C4B15111  21.352   3.412  12.913  0.1128 -0.0002 -0.1956
12065DOPC   NC315112   1.799   0.940  14.520  0.2650  0.2275 -0.0370
12065DOPC   PO415113   2.170   1.057  14.488 -0.0176 -0.0297 -0.1997
12065DOPC   GL115114   2.298   1.126  14.163  0.1674 -0.0381  0.0520
12065DOPC   GL215115   2.337   0.877  13.990  0.1533  0.2728 -0.1738
12065DOPC   C1A15116   2.319   1.476  13.790  0.2185 -0.2350 -0.0801
12065DOPC   D2A15117   2.434   1.774  13.428  0.1620  0.1670 -0.2144
12065DOPC   C3A15118   2.770   1.752  13.134 -0.2178 -0.0035 -0.1582
12065DOPC   C4A15119   3.101   1.496  12.899  0.0265  0.3425 -0.0649
12065DOPC   C1B15120   2.247   1.070  13.535 -0.1949 -0.1223 -0.0698
12065DOPC   D2B15121   2.000   1.472  13.355 -0.0483 -0.1050  0.1147
12065DOPC   C3B15122   2.398   1.362  13.047 -0.1078 -0.1294  0.0928
12065DOPC   C4B15123   2.722   1.329  12.645 -0.2473 -0.2812 -0.0343
12066DOPC   NC315124  25.003   2.353  15.142  0.2268  0.3310  0.1134
12066DOPC   PO415125  25.204   2.669  15.081 -0.1850 -0.0787  0.0192
12066DOPC   GL115126  25.226   2.803  14.607  0.0605 -0.0029  0.2593
12066DOPC   GL215127  25.515   2.694  14.608  0.1768  0.3527 -0.2015
12066DOPC   C1A15128  25.171   2.583  14.242  0.1918  0.3148 -0.1711
12066DOPC   D2A15129  25.139   2.497  13.764 -0.0189  0.1475  0.3404
12066DOPC   C3A15130  25.051   2.700  13.354 -0.0949  0.2725 -0.3104
12066DOPC   C4A15131  25.073   3.021  12.981 -0.1880  0.0588  0.1548
12066DOPC   C1B15132  25.604   2.886  14.232  0.0755 -0.0770  0.3038
12066DOPC   D2B15133  25.702   3.373  14.063 -0.0420  0.1876  0.3399
12066DOPC   C3B15134  25.415   3.471  13.750 -0.0851  0.1313 -0.0582
12066DOPC   C4B15135  24.985   3.635  13.504 -0.2081 -0.2472 -0.1204
12067DOPC   NC315136  28.452   7.594  15.034  0.2231 -0.1928  0.2851
12067DOPC   PO415137  28.805   7.579  14.861  0.1286  0.1257  0.1462
12067DOPC   GL115138  28.841   7.671  14.409  0.3090 -0.1066 -0.1862
12067DOPC   GL215139  29.097   7.810  14.391 -0.5464  0.2624 -0.1849
12067DOPC   C1A15140  28.780   7.480  14.004  0.0813  0.4502  0.0093
12067DOPC   D2A15141  28.871   7.319  13.540 -0.0367 -0.0276 -0.3503
12067DOPC   C3A15142  28.962   7.705  13.319  0.0612  0.1157  0.1131
12067DOPC   C4A15143  29.259   8.044  13.260  0.0413  0.0152 -0.1628
12067DOPC   C1B15144  29.170   7.773  13.938  0.1375 -0.0585  0.0975
12067DOPC   D2B15145  29.453   7.609  13.496 -0.2550  0.1185 -0.1469
12067DOPC   C3B15146  29.738   7.699  13.113 -0.0042 -0.1192 -0.2952
12067DOPC   C4B15147  30.207   7.884  13.164 -0.0382  0.1118 -0.2746
12068DOPC   NC315148  14.594   6.431  15.371 -0.1176  0.1989  0.2685
12068DOPC   PO415149  14.868   6.245  15.124  0.2363 -0.1899 -0.1826
12068DOPC   GL115150  14.859   6.234  14.682  0.0973  0.1153 -0.0775
12068DOPC   GL215151  14.814   5.944  14.698 -0.1415  0.1515  0.1397
12068DOPC   C1A15152  15.175   6.233  14.344  0.2806 -0.0446 -0.0190
12068DOPC   D2A15153  15.231   6.475  13.898  0.0178 -0.0014 -0.0283
12068DOPC   C3A15154  14.789   6.413  13.679 -0.0287  0.0814  0.0526
12068DOPC   C4A15155  14.427   6.184  13.507 -0.1267  0.2275  0.1538
12068DOPC   C1B15156  14.443   5.862  14.554  0.2204  0.2366  0.0679
12068DOPC   D2B15157  13.924   5.852  14.619 -0.1614 -0.0767  0.0928
12068DOPC   C3B15158  13.912   5.715  14.171  0.1515 -0.0380  0.0508
12068DOPC   C4B15159  14.040   5.491  13.748 -0.2002 -0.0116  0.1659
12069DOPC   NC315160   2.099   4.460  14.111  0.1003 -0.0657 -0.2665
12069DOPC   PO415161   1.835   4.399  14.417 -0.1361 -0.0371 -0.0394
12069DOPC   GL115162   1.459   4.267  14.197  0.1346 -0.3413 -0.3374
12069DOPC   GL215163   1.680   4.183  14.110 -0.0736 -0.1623 -0.0291
12069DOPC   C1A15164   1.130   4.316  13.904 -0.0861 -0.0915 -0.1178
12069DOPC   D2A15165   0.842   4.397  13.548  0.0948 -0.1358 -0.0728
12069DOPC   C3A15166   1.046   4.194  13.224 -0.0201  0.0174  0.1204
12069DOPC   C4A15167   1.313   4.021  12.865  0.0831  0.4775 -0.1899
12069DOPC   C1B15168   2.008   4.049  13.748  0.0628  0.1113 -0.3506
12069DOPC   D2B15169   2.160   3.929  13.310  0.1368  0.0259 -0.0616
12069DOPC   C3B15170   2.304   3.820  12.877 -0.0811 -0.2345 -0.1630
12069DOPC   C4B15171   2.385   3.692  12.476 -0.0563  0.2528 -0.1485
12070DOPC   NC315172   8.723   2.582  15.225 -0.0165 -0.0720  0.1816
12070DOPC   PO415173   8.888   2.287  15.033  0.1184  0.0466 -0.0020
12070DOPC   GL115174   8.935   2.318  14.604 -0.0349 -0.2872  0.0563
12070DOPC   GL215175   9.191   2.526  14.657  0.2486  0.1542 -0.1271
12070DOPC   C1A15176   9.087   2.099  14.259  0.2551  0.3884  0.1901
12070DOPC   D2A15177   9.279   1.633  14.105 -0.0685 -0.0992  0.2506
12070DOPC   C3A15178   9.531   1.315  13.883 -0.1001 -0.0849  0.2084
12070DOPC   C4A15179   9.596   1.261  13.426  0.0133  0.0422  0.2417
12070DOPC   C1B15180   9.433   2.598  14.293  0.1430 -0.0392 -0.1079
12070DOPC   D2B15181   9.525   2.832  13.879 -0.1011  0.0074 -0.1910
12070DOPC   C3B15182   9.782   3.049  13.474 -0.1199  0.1757  0.1121
12070DOPC   C4B15183  10.105   3.088  13.111 -0.0465  0.2173 -0.1515
12071DOPC   NC315184   6.359   5.395  14.933 -0.0140  0.1242  0.0112
12071DOPC   PO415185   6.630   5.670  14.795 -0.1354 -0.1613  0.0541
12071DOPC   GL115186   6.941   5.715  14.514 -0.0138 -0.1684  0.0906
12071DOPC   GL215187   6.780   5.929  14.374 -0.2154  0.1584  0.1601
12071DOPC   C1A15188   7.098   5.592  14.114 -0.0084 -0.3029  0.1931
12071DOPC   D2A15189   7.253   5.318  13.756 -0.2725  0.2388 -0.0210
12071DOPC   C3A15190   6.947   4.984  13.608  0.0768  0.1301 -0.0051
12071DOPC   C4A15191   6.573   4.641  13.535 -0.1283 -0.3323  0.0324
12071DOPC   C1B15192   6.954   6.059  13.981  0.1422  0.2672  0.0551
12071DOPC   D2B15193   6.985   6.214  13.481 -0.0842  0.0869 -0.0818
12071DOPC   C3B15194   6.792   6.387  13.031  0.3950  0.0846  0.2074
12071DOPC   C4B15195   6.997   6.537  12.602 -0.4405  0.0466  0.1268
12072DOPC   NC315196   6.976   3.828  14.979  0.2917  0.2737 -0.0114
12072DOPC   PO415197   6.678   3.683  15.200  0.0467  0.0252 -0.0435
12072DOPC   GL115198   6.421   3.565  14.955 -0.4537 -0.1769  0.1985
12072DOPC   GL215199   6.192   3.413  15.073  0.3703 -0.1711  0.1980
12072DOPC   C1A15200   6.463   3.648  14.539  0.1419  0.3613  0.0619
12072DOPC   D2A15201   6.118   3.643  14.127 -0.1865  0.1987  0.0752
12072DOPC   C3A15202   6.076   4.046  13.908 -0.0220  0.0262  0.1987
12072DOPC   C4A15203   6.074   4.449  13.582  0.1001  0.0654 -0.2411
12072DOPC   C1B15204   5.904   3.575  14.739 -0.1420 -0.4598 -0.1265
12072DOPC   D2B15205   5.701   3.458  14.297 -0.0424  0.1762  0.4202
12072DOPC   C3B15206   5.546   3.396  13.871 -0.0353 -0.0280 -0.0183
12072DOPC   C4B15207   5.515   3.220  13.382  0.3310  0.1464  0.1099
12073DOPC   NC315208  11.864   5.484  15.375 -0.2236 -0.0483 -0.2286
12073DOPC   PO415209  12.140   5.789  15.351  0.0366  0.0683 -0.2286
12073DOPC   GL115210  12.073   5.743  14.893 -0.3958 -0.0477  0.2442
12073DOPC   GL215211  12.096   5.474  14.957 -0.2692  0.0802  0.0752
12073DOPC   C1A15212  12.268   5.902  14.525 -0.0419 -0.0289  0.0030
12073DOPC   D2A15213  12.260   6.036  14.027  0.0372  0.1589  0.0179
12073DOPC   C3A15214  12.514   6.161  13.635  0.1058  0.1030  0.0333
12073DOPC   C4A15215  12.397   6.102  13.172  0.0518 -0.0525 -0.0170
12073DOPC   C1B15216  12.434   5.447  14.692 -0.0385  0.0942 -0.1693
12073DOPC   D2B15217  12.517   5.528  14.241 -0.0460 -0.0458  0.0710
12073DOPC   C3B15218  12.482   5.633  13.780  0.0721 -0.1128 -0.3342
12073DOPC   C4B15219  12.158   5.785  13.466 -0.2661  0.2260 -0.0776
12074DOPC   NC315220  25.082   7.565  15.164 -0.1801 -0.0703  0.0820
12074DOPC   PO415221  25.360   7.865  15.298 -0.3362 -0.0601 -0.0460
12074DOPC   GL115222  25.263   7.997  14.894 -0.1943 -0.0954 -0.0571
12074DOPC   GL215223  25.510   8.072  14.843  0.0682  0.0722 -0.0473
12074DOPC   C1A15224  25.224   7.610  14.590  0.3386  0.1473 -0.0133
12074DOPC   D2A15225  25.156   7.495  14.113 -0.1168  0.0828 -0.0666
12074DOPC   C3A15226  25.281   7.196  13.679  0.4155  0.1629 -0.2944
12074DOPC   C4A15227  25.767   7.282  13.525 -0.0354 -0.1508 -0.0629
12074DOPC   C1B15228  25.769   7.785  14.675 -0.1560  0.0964 -0.0576
12074DOPC   D2B15229  25.614   7.317  14.569 -0.0190  0.0827  0.0407
12074DOPC   C3B15230  25.805   6.900  14.498  0.1620 -0.2207 -0.2391
12074DOPC   C4B15231  26.215   6.636  14.561  0.0122  0.1197 -0.0834
12075DOPC   NC315232   5.012   6.063  14.747  0.0295 -0.0817  0.0321
12075DOPC   PO415233   4.644   5.943  14.741  0.2586  0.2706  0.0080
12075DOPC   GL115234   4.660   5.734  14.361  0.1169 -0.0927  0.0941
12075DOPC   GL215235   4.940   5.842  14.321  0.0821  0.0917  0.1487
12075DOPC   C1A15236   4.474   5.807  13.965  0.0524  0.1960 -0.2563
12075DOPC   D2A15237   4.190   5.813  13.523 -0.0915 -0.1554  0.0382
12075DOPC   C3A15238   3.927   5.732  13.166 -0.0818 -0.1775 -0.2861
12075DOPC   C4A15239   3.489   5.650  12.894 -0.0172  0.2373 -0.0823
12075DOPC   C1B15240   5.037   5.970  13.918 -0.1396 -0.1122 -0.1425
12075DOPC   D2B15241   5.021   6.270  13.514 -0.2618  0.0671  0.2314
12075DOPC   C3B15242   4.614   6.260  13.238 -0.2102 -0.2530 -0.1887
12075DOPC   C4B15243   4.529   5.922  12.952  0.3162 -0.1728  0.0257
12076DOPC   NC315244  25.121   3.105  15.299  0.1203 -0.1142  0.0040
12076DOPC   PO415245  25.332   3.458  15.206  0.1138 -0.2422  0.1812
12076DOPC   GL115246  25.363   3.659  14.810 -0.1923  0.4771 -0.2854
12076DOPC   GL215247  25.538   3.500  14.754 -0.2533  0.0755  0.2624
12076DOPC   C1A15248  25.024   3.770  14.536  0.1506 -0.1578  0.0009
12076DOPC   D2A15249  24.729   3.932  14.125 -0.0193  0.1076  0.0247
12076DOPC   C3A15250  24.622   3.937  13.680 -0.2277 -0.1738  0.2433
12076DOPC   C4A15251  24.449   3.785  13.227 -0.1654 -0.0594  0.0918
12076DOPC   C1B15252  25.330   3.374  14.395  0.2885  0.2727  0.2235
12076DOPC   D2B15253  25.052   3.095  14.157 -0.0548  0.1740  0.0185
12076DOPC   C3B15254  24.839   3.070  13.697  0.1421  0.0932 -0.0631
12076DOPC   C4B15255  24.646   3.317  13.333  0.0363 -0.0732  0.1123
12077DOPC   NC315256  29.378   7.542  15.031  0.1859 -0.2371  0.0216
12077DOPC   PO415257  29.371   7.461  14.608  0.1629  0.2595  0.1671
12077DOPC   GL115258  29.353   7.481  14.214  0.0941 -0.0531  0.0747
12077DOPC   GL215259  29.584   7.674  14.174  0.1771  0.3678 -0.0128
12077DOPC   C1A15260  29.291   7.265  13.790  0.2640  0.1646 -0.2499
12077DOPC   D2A15261  29.323   7.147  13.282 -0.0716 -0.4396 -0.0842
12077DOPC   C3A15262  29.297   7.494  13.026 -0.4435 -0.0431  0.0659
12077DOPC   C4A15263  29.420   7.931  12.703  0.3407 -0.0352 -0.1567
12077DOPC   C1B15264  29.821   7.661  13.814 -0.2087 -0.1312  0.0327
12077DOPC   D2B15265  30.056   7.437  13.360  0.1855 -0.1330 -0.0740
12077DOPC   C3B15266  30.369   7.473  12.985 -0.0902 -0.2167 -0.1991
12077DOPC   C4B15267  30.616   7.786  12.625 -0.2078  0.1876  0.0492
12078DOPC   NC315268  31.239   0.016  14.735  0.0199  0.0988  0.1266
12078DOPC   PO415269  30.863  -0.112  14.674  0.2148  0.2801 -0.4107
12078DOPC   GL115270  30.786   0.063  14.317 -0.0820  0.5520 -0.0088
12078DOPC   GL215271  31.083   0.170  14.252  0.1320 -0.0227 -0.1882
12078DOPC   C1A15272  30.554   0.272  13.999  0.1101  0.0101  0.1664
12078DOPC   D2A15273  30.334   0.470  13.613 -0.0651  0.0485  0.0392
12078DOPC   C3A15274  30.117   0.512  13.166  0.2263 -0.0073  0.1855
12078DOPC   C4A15275  30.295   0.363  12.733  0.0059 -0.4305 -0.1433
12078DOPC   C1B15276  31.147   0.017  13.887 -0.1007  0.1295  0.2412
12078DOPC   D2B15277  31.166  -0.086  13.398  0.1295  0.1156  0.0629
12078DOPC   C3B15278  31.386  -0.100  13.007 -0.0090 -0.0371  0.1019
12078DOPC   C4B15279  31.721  -0.253  12.698  0.1546 -0.2562 -0.0875
12079DOPC   NC315280   7.638   6.376  15.159 -0.3409  0.3054 -0.0092
12079DOPC   PO415281   7.408   6.109  14.971 -0.2263  0.0398  0.2451
12079DOPC   GL115282   7.548   6.117  14.520 -0.0269 -0.3942  0.0860
12079DOPC   GL215283   7.326   6.170  14.416  0.3460 -0.2797  0.0240
12079DOPC   C1A15284   7.859   6.025  14.296  0.5345  0.1486  0.0014
12079DOPC   D2A15285   8.098   5.943  13.856  0.2163 -0.0105 -0.0942
12079DOPC   C3A15286   8.179   5.565  13.587 -0.0053  0.0672 -0.0915
12079DOPC   C4A15287   8.325   5.225  13.250 -0.0576  0.1012 -0.2079
12079DOPC   C1B15288   7.445   6.076  13.972  0.1545  0.0528  0.1185
12079DOPC   D2B15289   7.286   5.814  13.581 -0.2158 -0.1851  0.0306
12079DOPC   C3B15290   7.049   5.842  13.157 -0.3012  0.1295 -0.0124
12079DOPC   C4B15291   6.817   5.698  12.770  0.0939  0.1615  0.1444
12080DOPC   NC315292   6.314   2.104  14.997  0.0935 -0.0727 -0.0542
12080DOPC   PO415293   6.707   2.123  14.961  0.2436  0.0537  0.0898
12080DOPC   GL115294   6.697   2.140  14.589 -0.1535 -0.0454 -0.1785
12080DOPC   GL215295   6.466   2.427  14.667  0.3676 -0.4880  0.2967
12080DOPC   C1A15296   6.794   2.117  14.165  0.3781 -0.1676 -0.0081
12080DOPC   D2A15297   6.803   2.203  13.682  0.0243  0.3061 -0.0300
12080DOPC   C3A15298   6.868   2.061  13.175 -0.0385  0.0073 -0.0784
12080DOPC   C4A15299   6.839   2.274  12.756 -0.0082  0.0605 -0.0567
12080DOPC   C1B15300   6.180   2.616  14.333  0.0412 -0.0592 -0.2092
12080DOPC   D2B15301   5.922   2.444  13.929 -0.1384 -0.0159  0.1304
12080DOPC   C3B15302   6.108   2.351  13.460 -0.3086 -0.1128 -0.1253
12080DOPC   C4B15303   6.238   2.620  13.090  0.2050 -0.2431  0.0836
12081DOPC   NC315304  20.964   1.115  15.480  0.2444  0.0362 -0.6311
12081DOPC   PO415305  20.570   1.090  15.513 -0.1073 -0.1582 -0.2573
12081DOPC   GL115306  20.275   1.002  15.262  0.3630  0.4493 -0.2632
12081DOPC   GL215307  20.109   1.108  15.227  0.2800 -0.0804 -0.3009
12081DOPC   C1A15308  20.438   1.086  14.818 -0.3449  0.1517 -0.1039
12081DOPC   D2A15309  20.844   0.912  14.579 -0.3338  0.3169 -0.0016
12081DOPC   C3A15310  21.002   0.713  14.193 -0.0387 -0.1960  0.1341
12081DOPC   C4A15311  21.033   0.426  13.808  0.0140  0.0352  0.6294
12081DOPC   C1B15312  19.942   0.830  14.914 -0.2140  0.2757  0.1269
12081DOPC   D2B15313  19.803   0.761  14.450 -0.2522 -0.1540 -0.2767
12081DOPC   C3B15314  19.546   0.491  14.119 -0.0292 -0.1686  0.0274
12081DOPC   C4B15315  19.339   0.426  13.723 -0.1841  0.1334 -0.0635
12082DOPC   NC315316  19.585   1.525  15.521  0.1720  0.1689 -0.0532
12082DOPC   PO415317  19.242   1.322  15.419 -0.1008  0.1079 -0.1611
12082DOPC   GL115318  19.157   1.233  14.978 -0.0283 -0.2442 -0.0343
12082DOPC   GL215319  18.962   1.414  15.031  0.0451 -0.0942  0.0056
12082DOPC   C1A15320  19.049   1.072  14.685 -0.0464  0.0453 -0.2617
12082DOPC   D2A15321  18.966   0.957  14.283 -0.2385 -0.1343  0.0985
12082DOPC   C3A15322  18.765   1.094  13.853  0.0358 -0.0793 -0.3057
12082DOPC   C4A15323  18.962   1.467  13.546 -0.0492  0.1232  0.2983
12082DOPC   C1B15324  18.594   1.397  14.746  0.0568  0.1860  0.1098
12082DOPC   D2B15325  18.105   1.296  14.624 -0.1606 -0.1156  0.2929
12082DOPC   C3B15326  17.963   0.890  14.572  0.1684 -0.2218  0.3169
12082DOPC   C4B15327  17.459   0.709  14.532 -0.0768  0.1894  0.0416
12083DOPC   NC315328  17.221   2.328  15.624 -0.1996 -0.2043 -0.0494
12083DOPC   PO415329  17.055   2.671  15.526 -0.2191  0.1201  0.2873
12083DOPC   GL115330  17.019   2.785  15.099 -0.0012  0.0623  0.1076
12083DOPC   GL215331  17.289   2.785  15.150 -0.2373 -0.0111  0.0555
12083DOPC   C1A15332  16.813   2.600  14.737  0.1094 -0.0494 -0.2535
12083DOPC   D2A15333  16.581   2.458  14.338 -0.0294  0.1712  0.1272
12083DOPC   C3A15334  16.540   2.453  13.859  0.1048  0.4123 -0.3219
12083DOPC   C4A15335  16.620   2.261  13.423 -0.1603 -0.1075 -0.2130
12083DOPC   C1B15336  17.368   2.699  14.723 -0.0228 -0.0666  0.0713
12083DOPC   D2B15337  17.646   2.700  14.303  0.1937  0.0322  0.0107
12083DOPC   C3B15338  17.564   2.486  13.883 -0.0933 -0.0907  0.0322
12083DOPC   C4B15339  17.676   2.085  13.599 -0.1321  0.4307  0.3066
12084DOPC   NC315340  20.167   5.869  15.535  0.0831  0.0021  0.2128
12084DOPC   PO415341  19.837   5.703  15.640  0.3089  0.0503  0.1597
12084DOPC   GL115342  19.593   5.649  15.329  0.0174 -0.0187  0.3032
12084DOPC   GL215343  19.818   5.625  15.139 -0.0278  0.1290  0.0833
12084DOPC   C1A15344  19.342   5.421  15.054 -0.0334  0.0367 -0.1365
12084DOPC   D2A15345  19.039   5.388  14.636  0.0605  0.1062 -0.1114
12084DOPC   C3A15346  18.990   5.240  14.159 -0.2214  0.0373 -0.0014
12084DOPC   C4A15347  18.981   5.045  13.708 -0.0004 -0.2315  0.1128
12084DOPC   C1B15348  19.898   5.788  14.709 -0.1157 -0.1797  0.1403
12084DOPC   D2B15349  20.152   5.972  14.249  0.0672 -0.0759 -0.0961
12084DOPC   C3B15350  20.276   5.722  13.862 -0.0456 -0.0540  0.2763
12084DOPC   C4B15351  20.093   5.266  13.729  0.0994  0.1096  0.1804
12085DOPC   NC315352  10.396   6.171  15.315  0.0469  0.0703 -0.1979
12085DOPC   PO415353  10.761   6.040  15.444  0.1579  0.0244  0.0934
12085DOPC   GL115354  11.043   5.869  15.200 -0.2726  0.1323 -0.1521
12085DOPC   GL215355  11.300   6.047  15.242  0.1112 -0.1210  0.0568
12085DOPC   C1A15356  10.898   5.816  14.755 -0.3806  0.0782  0.0486
12085DOPC   D2A15357  10.615   5.903  14.414 -0.0741 -0.0127 -0.2409
12085DOPC   C3A15358  10.521   5.972  13.972  0.0275 -0.0971  0.0096
12085DOPC   C4A15359  10.406   5.972  13.487  0.2575 -0.1796 -0.3484
12085DOPC   C1B15360  11.371   5.974  14.800 -0.0262  0.3443  0.0676
12085DOPC   D2B15361  11.221   5.808  14.346 -0.1415 -0.0216 -0.0384
12085DOPC   C3B15362  11.011   5.784  13.907 -0.1773  0.0087 -0.4907
12085DOPC   C4B15363  10.717   5.631  13.570  0.3038 -0.1014 -0.2385
12086DOPC   NC315364  17.481   4.839  15.266 -0.0476 -0.0044 -0.0162
12086DOPC   PO415365  17.826   4.660  15.343 -0.0469 -0.0800 -0.2314
12086DOPC   GL115366  18.145   4.646  15.104  0.0318 -0.2367  0.0767
12086DOPC   GL215367  18.081   4.428  14.959  0.3647  0.0995 -0.0596
12086DOPC   C1A15368  18.260   4.941  14.897 -0.1318  0.1358  0.2924
12086DOPC   D2A15369  18.505   5.105  14.481 -0.0656  0.2226 -0.0995
12086DOPC   C3A15370  18.462   5.245  14.074  0.1015  0.0658 -0.1701
12086DOPC   C4A15371  18.340   5.293  13.583  0.0876 -0.2339 -0.0620
12086DOPC   C1B15372  18.188   4.137  14.592 -0.1263 -0.2083 -0.0848
12086DOPC   D2B15373  18.303   3.841  14.185 -0.0791  0.1883  0.1711
12086DOPC   C3B15374  18.423   3.750  13.728 -0.3866 -0.1705  0.0799
12086DOPC   C4B15375  18.465   3.920  13.232 -0.0546 -0.0768  0.0508
12087DOPC   NC315376   3.239   6.949  14.891  0.0530  0.3105 -0.2426
12087DOPC   PO415377   3.396   6.750  14.586 -0.0850 -0.2359  0.1823
12087DOPC   GL115378   3.260   6.794  14.173  0.1548 -0.0077 -0.1525
12087DOPC   GL215379   3.134   6.516  14.184  0.1556  0.0311 -0.0833
12087DOPC   C1A15380   3.137   6.938  13.785 -0.0406 -0.2867 -0.0205
12087DOPC   D2A15381   3.404   7.153  13.466 -0.2720 -0.1442  0.0491
12087DOPC   C3A15382   3.624   6.802  13.245  0.0036  0.0261  0.0378
12087DOPC   C4A15383   3.898   6.588  12.929  0.0838 -0.0054  0.0339
12087DOPC   C1B15384   2.902   6.386  13.796 -0.2764  0.0036 -0.1770
12087DOPC   D2B15385   2.815   6.336  13.369 -0.0667  0.3433 -0.1087
12087DOPC   C3B15386   3.154   5.988  13.229 -0.2121 -0.0682 -0.1113
12087DOPC   C4B15387   3.496   5.698  13.449  0.1635 -0.0071  0.0212
12088DOPC   NC315388   4.063   2.175  10.706 -0.0039 -0.2480 -0.2341
12088DOPC   PO415389   4.305   1.949  10.482 -0.1843  0.0369  0.4382
12088DOPC   GL115390   4.487   1.903  10.853 -0.1163  0.0457 -0.0022
12088DOPC   GL215391   4.694   1.698  10.859  0.4523  0.0538  0.1553
12088DOPC   C1A15392   4.222   1.781  11.216 -0.3500 -0.2702 -0.0441
12088DOPC   D2A15393   3.976   1.971  11.595 -0.0825 -0.2674  0.3630
12088DOPC   C3A15394   3.702   2.126  11.964 -0.2069  0.4195  0.1112
12088DOPC   C4A15395   3.659   2.247  12.414  0.0986 -0.2232 -0.3492
12088DOPC   C1B15396   4.749   1.555  11.244  0.0522  0.0143 -0.0312
12088DOPC   D2B15397   4.897   1.653  11.701 -0.3043  0.0870  0.2673
12088DOPC   C3B15398   5.057   1.615  12.150 -0.1948 -0.0222 -0.0518
12088DOPC   C4B15399   5.094   1.653  12.604 -0.3929  0.1694  0.0062
12089DOPC   NC315400  19.931   6.624  11.163 -0.1141 -0.2145 -0.0087
12089DOPC   PO415401  20.028   6.409  11.472  0.2687  0.3240 -0.0695
12089DOPC   GL115402  20.132   6.478  11.852 -0.4277  0.1030 -0.2773
12089DOPC   GL215403  20.008   6.162  11.849 -0.1874 -0.1536 -0.0417
12089DOPC   C1A15404  20.339   6.735  12.227  0.4079 -0.2119  0.3842
12089DOPC   D2A15405  20.206   6.966  12.662  0.2694  0.0492  0.0318
12089DOPC   C3A15406  19.737   7.071  12.821 -0.1697  0.0675 -0.0519
12089DOPC   C4A15407  19.357   7.379  12.731  0.0874 -0.2848  0.0940
12089DOPC   C1B15408  19.684   6.119  12.133  0.0352  0.0467 -0.1976
12089DOPC   D2B15409  19.413   5.872  12.484 -0.0351 -0.1171  0.0887
12089DOPC   C3B15410  19.580   5.952  12.936  0.0045  0.1248  0.2387
12089DOPC   C4B15411  19.722   6.083  13.327 -0.1105  0.2921 -0.0624
12090DOPC   NC315412  16.219   0.428  11.277 -0.2056  0.0489  0.0343
12090DOPC   PO415413  16.497   0.162  11.379  0.1052  0.1860 -0.2852
12090DOPC   GL115414  16.560   0.174  11.745  0.5330  0.0095  0.1109
12090DOPC   GL215415  16.442  -0.080  11.832  0.4167  0.1559  0.1452
12090DOPC   C1A15416  16.621   0.450  12.020  0.0845 -0.0781 -0.1269
12090DOPC   D2A15417  16.796   0.949  12.001  0.1395 -0.0741 -0.2769
12090DOPC   C3A15418  17.008   1.345  12.086 -0.1058 -0.1160 -0.1547
12090DOPC   C4A15419  17.086   1.759  12.362  0.0158  0.4366  0.0778
12090DOPC   C1B15420  16.165   0.016  12.079 -0.1309  0.1893  0.1432
12090DOPC   D2B15421  16.050  -0.169  12.554 -0.1331  0.2202  0.1706
12090DOPC   C3B15422  16.366   0.007  12.914  0.0415  0.3028  0.1505
12090DOPC   C4B15423  16.717  -0.213  13.194  0.1076  0.0289  0.0720
12091DOPC   NC315424  30.734   7.762  10.621 -0.2185 -0.0334 -0.5612
12091DOPC   PO415425  30.943   8.021  10.848 -0.5239 -0.1411  0.1591
12091DOPC   GL115426  30.730   8.078  11.270  0.1043  0.0037  0.0500
12091DOPC   GL215427  30.921   8.317  11.271  0.0459 -0.0695 -0.1079
12091DOPC   C1A15428  30.828   7.883  11.590  0.0636 -0.0630  0.2885
12091DOPC   D2A15429  30.869   8.037  12.134  0.1273 -0.1954 -0.0539
12091DOPC   C3A15430  30.818   8.283  12.539  0.1503 -0.1473  0.1584
12091DOPC   C4A15431  31.125   8.224  12.945  0.1255 -0.0678 -0.2728
12091DOPC   C1B15432  31.030   8.306  11.714 -0.1239 -0.2924 -0.1792
12091DOPC   D2B15433  31.106   8.503  12.159 -0.0128 -0.1165  0.1751
12091DOPC   C3B15434  31.343   8.313  12.505 -0.1095 -0.2437  0.0154
12091DOPC   C4B15435  31.712   8.125  12.720 -0.1402  0.5617 -0.0746
12092DOPC   NC315436   5.740   4.679  10.931 -0.1462  0.0602 -0.2651
12092DOPC   PO415437   5.366   4.815  10.910 -0.0601 -0.1952  0.0235
12092DOPC   GL115438   5.259   4.568  11.238 -0.3486  0.1023 -0.0036
12092DOPC   GL215439   5.440   4.456  11.368 -0.1566 -0.2372  0.1258
12092DOPC   C1A15440   5.090   4.753  11.603  0.1265  0.1565  0.4294
12092DOPC   D2A15441   4.878   4.766  12.084  0.0109 -0.0415  0.0014
12092DOPC   C3A15442   4.593   4.655  12.533 -0.2125  0.0519  0.1111
12092DOPC   C4A15443   4.452   4.518  13.003 -0.4968 -0.1617 -0.0650
12092DOPC   C1B15444   5.491   4.203  11.689  0.1610 -0.4639  0.0319
12092DOPC   D2B15445   5.631   3.999  12.123  0.0347  0.2021  0.2536
12092DOPC   C3B15446   5.843   3.998  12.546  0.3964 -0.1848 -0.1259
12092DOPC   C4B15447   6.132   3.800  12.936  0.0416  0.0286  0.0283
12093DOPC   NC315448  25.181   3.155  11.508  0.2514 -0.0203  0.0320
12093DOPC   PO415449  25.032   2.908  11.202 -0.0583 -0.0452  0.0297
12093DOPC   GL115450  24.821   2.588  11.532  0.3489 -0.4400  0.0792
12093DOPC   GL215451  24.606   2.703  11.599  0.0820  0.0722 -0.1599
12093DOPC   C1A15452  25.208   2.684  11.736 -0.0598 -0.0498 -0.1085
12093DOPC   D2A15453  25.619   2.847  11.881  0.3148  0.1753 -0.0950
12093DOPC   C3A15454  25.942   3.162  12.083 -0.0867 -0.0091  0.1030
12093DOPC   C4A15455  26.116   3.623  12.209 -0.1101  0.2963  0.2434
12093DOPC   C1B15456  24.737   2.545  11.998  0.2439  0.6959  0.2266
12093DOPC   D2B15457  24.726   2.371  12.456  0.1138  0.0618 -0.0533
12093DOPC   C3B15458  24.667   2.636  12.809  0.0853  0.4321  0.0313
12093DOPC   C4B15459  24.486   2.803  13.209 -0.1607  0.3785 -0.1350
12094DOPC   NC315460   8.268   7.592  10.536  0.0070 -0.1786 -0.0733
12094DOPC   PO415461   8.416   7.924  10.692 -0.0842  0.2153 -0.1283
12094DOPC   GL115462   8.205   8.090  10.954 -0.3266  0.1245  0.1536
12094DOPC   GL215463   7.989   8.152  11.001 -0.0522 -0.2480 -0.2092
12094DOPC   C1A15464   8.508   8.093  11.263  0.1193 -0.1082  0.2758
12094DOPC   D2A15465   8.766   8.314  11.675 -0.2071 -0.1732  0.3142
12094DOPC   C3A15466   8.969   8.387  12.105  0.4801 -0.0920 -0.1864
12094DOPC   C4A15467   8.989   8.187  12.554 -0.2401  0.0140 -0.3330
12094DOPC   C1B15468   8.083   8.340  11.398 -0.0521 -0.2296  0.0514
12094DOPC   D2B15469   8.230   8.579  11.796  0.0278  0.5234 -0.0581
12094DOPC   C3B15470   8.433   8.358  12.152 -0.0979  0.2173  0.2207
12094DOPC   C4B15471   8.565   8.018  12.358 -0.3049  0.2507 -0.2189
12095DOPC   NC315472   7.537   4.510  11.227 -0.2157 -0.2508 -0.0465
12095DOPC   PO415473   7.501   4.900  11.145 -0.1287 -0.0020 -0.1862
12095DOPC   GL115474   7.699   5.061  11.563  0.1202 -0.0945 -0.0122
12095DOPC   GL215475   7.514   4.782  11.657  0.0542 -0.1666  0.0171
12095DOPC   C1A15476   7.974   5.261  11.812  0.2032 -0.0428  0.0989
12095DOPC   D2A15477   8.250   5.455  12.176 -0.0262  0.2435  0.1090
12095DOPC   C3A15478   8.125   5.551  12.591  0.1398  0.1398 -0.0627
12095DOPC   C4A15479   8.018   5.577  13.072 -0.0005 -0.1538 -0.0125
12095DOPC   C1B15480   7.191   4.927  11.977  0.4219 -0.0710 -0.1822
12095DOPC   D2B15481   6.839   5.229  12.109  0.3940 -0.0609  0.3605
12095DOPC   C3B15482   6.716   5.629  12.298  0.0201 -0.2538  0.1157
12095DOPC   C4B15483   6.718   6.098  12.408  0.0455 -0.1827  0.1893
12096DOPC   NC315484  17.778   4.025  11.416 -0.1197 -0.1087 -0.0205
12096DOPC   PO415485  17.801   4.391  11.313  0.0807 -0.3156  0.2169
12096DOPC   GL115486  17.577   4.601  11.643  0.1835  0.0417 -0.3178
12096DOPC   GL215487  17.465   4.322  11.667  0.1187 -0.2321  0.6094
12096DOPC   C1A15488  17.789   4.858  12.012  0.3925  0.1491 -0.2181
12096DOPC   D2A15489  17.935   5.134  12.452  0.2355  0.1508 -0.0519
12096DOPC   C3A15490  18.283   5.172  12.788 -0.1126  0.0399 -0.3342
12096DOPC   C4A15491  18.634   5.154  13.185 -0.2539  0.4066  0.0300
12096DOPC   C1B15492  17.680   4.226  12.094  0.0514 -0.0258 -0.1375
12096DOPC   D2B15493  17.773   4.240  12.584 -0.1317  0.0466 -0.0446
12096DOPC   C3B15494  17.562   4.323  12.970  0.1631 -0.0348  0.0949
12096DOPC   C4B15495  17.619   4.117  13.422  0.0207 -0.2144 -0.1892
12097DOPC   NC315496  21.180   2.981  11.093 -0.0449 -0.0306  0.1126
12097DOPC   PO415497  21.595   2.990  11.114  0.0481  0.2104  0.0668
12097DOPC   GL115498  21.665   2.996  11.480  0.1842 -0.1335 -0.1104
12097DOPC   GL215499  21.385   2.913  11.556  0.3259  0.1641 -0.0168
12097DOPC   C1A15500  21.811   2.816  11.888 -0.0916 -0.1277  0.0734
12097DOPC   D2A15501  22.159   2.673  12.159  0.1051  0.0015  0.1891
12097DOPC   C3A15502  22.151   2.224  11.922 -0.1417  0.1970  0.2775
12097DOPC   C4A15503  22.273   1.946  11.502  0.2925  0.1196  0.2069
12097DOPC   C1B15504  21.288   3.036  11.936  0.4058  0.0425  0.2465
12097DOPC   D2B15505  21.238   3.230  12.438  0.0916 -0.1193 -0.1639
12097DOPC   C3B15506  21.150   3.688  12.532  0.2011 -0.1785 -0.2319
12097DOPC   C4B15507  21.032   4.125  12.621 -0.1810 -0.0249 -0.2721
12098DOPC   NC315508   6.427   7.064  11.275 -0.0229  0.1451  0.0472
12098DOPC   PO415509   6.421   6.878  10.892  0.2507 -0.3309 -0.0561
12098DOPC   GL115510   6.836   7.054  10.822  0.0991 -0.0022 -0.1235
12098DOPC   GL215511   6.764   7.208  11.048  0.3448  0.3819  0.5333
12098DOPC   C1A15512   7.115   6.886  11.092  0.0995 -0.2592  0.0360
12098DOPC   D2A15513   7.285   6.656  11.537  0.3481 -0.1153 -0.0073
12098DOPC   C3A15514   6.859   6.504  11.767  0.0142  0.1303 -0.0230
12098DOPC   C4A15515   6.503   6.323  12.042 -0.0563 -0.0879  0.0849
12098DOPC   C1B15516   6.878   7.047  11.477  0.2258 -0.1998  0.0892
12098DOPC   D2B15517   6.992   6.893  11.945 -0.0055 -0.2179 -0.4875
12098DOPC   C3B15518   6.670   6.835  12.270 -0.1024  0.1339  0.0061
12098DOPC   C4B15519   6.511   6.706  12.753  0.1957 -0.0570  0.1310
12099DOPC   NC315520   3.050   1.396   9.958 -0.0982 -0.0721 -0.2229
12099DOPC   PO415521   3.139   1.761   9.988 -0.0837  0.0918  0.1696
12099DOPC   GL115522   2.898   1.908  10.332  0.3377 -0.3194  0.0273
12099DOPC   GL215523   2.879   1.684  10.460 -0.3214 -0.5033 -0.0565
12099DOPC   C1A15524   2.871   2.176  10.710  0.3689  0.3269 -0.0663
12099DOPC   D2A15525   2.798   2.419  11.079 -0.1895  0.3102 -0.0153
12099DOPC   C3A15526   2.949   2.588  11.500 -0.0377 -0.0195 -0.0082
12099DOPC   C4A15527   3.026   2.996  11.746  0.1502 -0.2793 -0.0450
12099DOPC   C1B15528   2.756   1.674  10.894 -0.0475 -0.1868  0.2368
12099DOPC   D2B15529   2.650   1.810  11.335  0.0132  0.1135  0.2090
12099DOPC   C3B15530   2.275   1.754  11.618 -0.1369  0.1125 -0.1905
12099DOPC   C4B15531   2.063   1.607  12.055 -0.2237  0.3218 -0.1676
12100DOPC   NC315532  12.858   5.264  11.310  0.3619 -0.3118  0.1774
12100DOPC   PO415533  12.427   5.236  11.306 -0.1783  0.1127  0.2078
12100DOPC   GL115534  12.324   5.389  11.697  0.2302  0.0994 -0.2924
12100DOPC   GL215535  12.572   5.422  11.747  0.0195  0.0334  0.2143
12100DOPC   C1A15536  12.039   5.646  12.068  0.0086 -0.4653 -0.4976
12100DOPC   D2A15537  11.758   5.697  12.496 -0.3075 -0.0048 -0.1195
12100DOPC   C3A15538  11.507   5.518  12.795  0.1938 -0.4573 -0.1275
12100DOPC   C4A15539  11.259   5.464  13.215 -0.0260 -0.1665 -0.3280
12100DOPC   C1B15540  12.556   5.596  12.084  0.1721 -0.1187 -0.0076
12100DOPC   D2B15541  12.259   5.718  12.507  0.1947 -0.1245 -0.3219
12100DOPC   C3B15542  12.043   5.465  12.850  0.1697  0.1350  0.1324
12100DOPC   C4B15543  12.142   5.026  13.100 -0.3373  0.2666 -0.0119
12101DOPC   NC315544  22.863   5.731  11.324 -0.0214 -0.0617  0.0527
12101DOPC   PO415545  23.256   5.620  11.359 -0.2717 -0.0880 -0.0824
12101DOPC   GL115546  23.365   5.397  11.744 -0.1953 -0.1360 -0.1206
12101DOPC   GL215547  23.622   5.425  11.782 -0.1591 -0.3400  0.1725
12101DOPC   C1A15548  23.212   5.476  12.079  0.4043 -0.0796  0.2558
12101DOPC   D2A15549  22.970   5.315  12.456  0.2303 -0.4773 -0.0194
12101DOPC   C3A15550  22.858   5.386  12.931 -0.0352  0.0304  0.2272
12101DOPC   C4A15551  22.645   5.576  13.342 -0.2919 -0.1725 -0.3782
12101DOPC   C1B15552  23.816   5.476  12.133 -0.0731  0.0211  0.1653
12101DOPC   D2B15553  23.758   5.851  12.487  0.0437  0.2217  0.1874
12101DOPC   C3B15554  23.374   5.740  12.699 -0.0567  0.0714  0.1561
12101DOPC   C4B15555  23.290   5.241  12.906  0.0036  0.2502 -0.0717
12102DOPC   NC315556   8.271   5.972  10.862 -0.2140  0.0647  0.1204
12102DOPC   PO415557   8.383   6.169  11.204 -0.1187 -0.1331  0.1656
12102DOPC   GL115558   8.352   6.227  11.631 -0.0641  0.1540 -0.3944
12102DOPC   GL215559   8.395   6.553  11.686 -0.0041 -0.2714 -0.1181
12102DOPC   C1A15560   8.029   5.888  11.718 -0.0904  0.1132 -0.0773
12102DOPC   D2A15561   7.618   5.934  12.036 -0.1146  0.1196 -0.1731
12102DOPC   C3A15562   7.583   5.805  12.500 -0.0069 -0.0309 -0.0309
12102DOPC   C4A15563   7.593   5.829  12.932 -0.1102 -0.2483  0.0588
12102DOPC   C1B15564   8.077   6.745  11.918  0.0856  0.0036 -0.4510
12102DOPC   D2B15565   7.942   6.959  12.407 -0.0632  0.1965  0.1342
12102DOPC   C3B15566   7.623   7.326  12.487  0.1630  0.3289 -0.1850
12102DOPC   C4B15567   7.414   7.549  12.924 -0.3080  0.1518 -0.0416
12103DOPC   NC315568   0.937   5.577  10.352 -0.0119 -0.0917  0.0136
12103DOPC   PO415569   1.135   5.937  10.430  0.1416  0.3620 -0.2173
12103DOPC   GL115570   0.891   5.955  10.778 -0.1064  0.3237 -0.1403
12103DOPC   GL215571   1.163   5.997  10.937 -0.1421  0.4064 -0.0212
12103DOPC   C1A15572   0.485   6.116  11.005 -0.1898 -0.0889  0.2235
12103DOPC   D2A15573   0.152   6.444  11.221  0.0684  0.2037  0.1009
12103DOPC   C3A15574   0.526   6.424  11.469  0.1362 -0.0462 -0.1560
12103DOPC   C4A15575   0.691   6.862  11.750 -0.3639  0.1643 -0.0075
12103DOPC   C1B15576   1.113   5.990  11.408  0.2733  0.2904  0.0174
12103DOPC   D2B15577   1.041   5.891  11.885 -0.1298  0.0827 -0.2400
12103DOPC   C3B15578   1.022   5.667  12.283 -0.0524  0.1000  0.0210
12103DOPC   C4B15579   0.945   5.418  12.649  0.1033  0.0544  0.2052
12104DOPC   NC315580  31.093   2.991  10.566 -0.0549 -0.0057 -0.0131
12104DOPC   PO415581  31.440   3.168  10.490  0.0005 -0.0964 -0.1279
12104DOPC   GL115582  31.651   3.210  10.766 -0.1342  0.3088 -0.3025
12104DOPC   GL215583  31.484   2.977  10.944 -0.1196  0.1334  0.3657
12104DOPC   C1A15584  31.876   3.396  11.097 -0.1581 -0.0095  0.2392
12104DOPC   D2A15585  32.231   3.738  11.366 -0.4357  0.0658 -0.1011
12104DOPC   C3A15586  32.546   3.774  11.769 -0.0763  0.0399  0.1362
12104DOPC   C4A15587  32.824   3.875  12.216  0.2450 -0.1668 -0.1262
12104DOPC   C1B15588  31.198   2.918  11.210 -0.0944  0.1438 -0.0148
12104DOPC   D2B15589  31.281   3.159  11.692  0.1086 -0.0903  0.2283
12104DOPC   C3B15590  31.088   3.282  12.116  0.1460  0.2550 -0.1543
12104DOPC   C4B15591  31.161   3.489  12.575  0.1677 -0.0886 -0.2808
12105DOPC   NC315592  27.209   1.212  10.313  0.2915 -0.0704  0.1248
12105DOPC   PO415593  27.148   0.884  10.549  0.0620  0.2713 -0.2461
12105DOPC   GL115594  27.101   0.764  11.017  0.1496 -0.1053  0.0365
12105DOPC   GL215595  27.316   0.973  11.058 -0.0712  0.0447 -0.3607
12105DOPC   C1A15596  26.871   0.917  11.335  0.0949  0.0643 -0.3251
12105DOPC   D2A15597  26.776   0.850  11.813 -0.3170 -0.0937 -0.2265
12105DOPC   C3A15598  26.703   0.498  12.123 -0.0321 -0.1108 -0.0979
12105DOPC   C4A15599  26.433   0.234  12.462 -0.0799  0.2711  0.4236
12105DOPC   C1B15600  27.543   1.121  11.449 -0.2243 -0.2259 -0.1232
12105DOPC   D2B15601  27.654   1.193  11.929  0.0270  0.0821 -0.0603
12105DOPC   C3B15602  27.638   1.185  12.417  0.1146 -0.2231  0.1092
12105DOPC   C4B15603  27.578   1.253  12.897  0.2904  0.0107 -0.0465
12106DOPC   NC315604  25.170   2.408  11.239 -0.1154 -0.1730 -0.4045
12106DOPC   PO415605  25.036   2.046  11.373 -0.1306  0.2949  0.0601
12106DOPC   GL115606  25.236   1.841  11.726 -0.0156  0.0089 -0.0555
12106DOPC   GL215607  25.180   2.213  11.817  0.1385  0.0277  0.1590
12106DOPC   C1A15608  25.248   1.587  12.122  0.0581 -0.1540 -0.0335
12106DOPC   D2A15609  25.150   1.374  12.559 -0.0684  0.1492 -0.0411
12106DOPC   C3A15610  24.943   1.077  12.253  0.1452 -0.2948  0.2196
12106DOPC   C4A15611  24.560   0.949  12.012 -0.1779 -0.0237  0.1822
12106DOPC   C1B15612  25.188   2.419  12.180  0.4623  0.0472 -0.1729
12106DOPC   D2B15613  25.164   2.617  12.661  0.1662 -0.0520 -0.0250
12106DOPC   C3B15614  25.386   2.580  13.048 -0.2671 -0.0227  0.3004
12106DOPC   C4B15615  25.759   2.433  13.327 -0.0359 -0.1889 -0.1349
12107DOPC   NC315616  26.907   0.266  11.147  0.2052 -0.2474  0.1260
12107DOPC   PO415617  27.190   0.178  10.907 -0.3401  0.2609 -0.1133
12107DOPC   GL115618  27.403   0.345  11.194 -0.0481 -0.0896 -0.2443
12107DOPC   GL215619  27.713   0.336  11.092  0.0457 -0.2176 -0.0396
12107DOPC   C1A15620  27.229   0.604  11.497  0.1446 -0.1484  0.2842
12107DOPC   D2A15621  27.326   0.788  11.934  0.1161  0.2026  0.0749
12107DOPC   C3A15622  27.228   0.656  12.357  0.4101  0.0356 -0.0514
12107DOPC   C4A15623  27.373   0.817  12.830  0.0398  0.3792  0.1245
12107DOPC   C1B15624  27.752   0.568  11.448  0.0234 -0.0563  0.0637
12107DOPC   D2B15625  27.964   0.840  11.780 -0.0043 -0.2011  0.0363
12107DOPC   C3B15626  27.712   0.771  12.159 -0.3195 -0.0336 -0.0152
12107DOPC   C4B15627  27.759   0.591  12.560  0.0592  0.1336 -0.0885
12108DOPC   NC315628  28.296   1.078  10.407  0.0009  0.0902 -0.0181
12108DOPC   PO415629  28.234   1.379  10.654  0.3498  0.1709  0.1048
12108DOPC   GL115630  28.280   1.513  11.046 -0.2859 -0.0773  0.0940
12108DOPC   GL215631  28.593   1.440  11.083  0.0688  0.2724  0.2295
12108DOPC   C1A15632  28.265   1.792  11.417  0.3416  0.3505 -0.1622
12108DOPC   D2A15633  28.402   2.141  11.703  0.0209  0.0098  0.0105
12108DOPC   C3A15634  28.402   2.457  12.029  0.3160  0.1441 -0.0699
12108DOPC   C4A15635  28.501   2.717  12.459 -0.0890 -0.0448  0.0204
12108DOPC   C1B15636  28.789   1.595  11.488 -0.0866  0.2240  0.1791
12108DOPC   D2B15637  29.045   1.741  11.954  0.0753  0.0466 -0.1376
12108DOPC   C3B15638  29.301   1.705  12.339  0.3528 -0.0074 -0.1716
12108DOPC   C4B15639  29.474   1.617  12.773  0.3131 -0.1079  0.2537
12109DOPC   NC315640  13.800   2.887  11.133 -0.0330  0.0362 -0.0924
12109DOPC   PO415641  13.793   2.634  11.454  0.0706 -0.0108  0.0240
12109DOPC   GL115642  14.127   2.722  11.759  0.0544 -0.0159 -0.1427
12109DOPC   GL215643  14.167   2.984  11.630 -0.1806 -0.1780  0.0865
12109DOPC   C1A15644  14.438   2.458  11.988  0.0520  0.0808 -0.0060
12109DOPC   D2A15645  14.546   2.262  12.415  0.0324 -0.2483  0.1034
12109DOPC   C3A15646  14.099   2.021  12.575  0.1902 -0.0520  0.0799
12109DOPC   C4A15647  13.638   1.855  12.757  0.0108  0.0738 -0.3673
12109DOPC   C1B15648  14.105   3.113  12.013 -0.1805 -0.0164  0.1764
12109DOPC   D2B15649  14.355   3.249  12.450 -0.0220 -0.2086  0.2278
12109DOPC   C3B15650  14.328   3.625  12.775 -0.0608 -0.1843 -0.2164
12109DOPC   C4B15651  13.991   3.868  13.122  0.0295 -0.2374  0.0803
12110DOPC   NC315652  15.503   6.073  10.940  0.2418 -0.2907  0.2367
12110DOPC   PO415653  15.508   6.124  11.332  0.0503  0.1573 -0.3768
12110DOPC   GL115654  15.193   6.006  11.675 -0.4568 -0.1934  0.1834
12110DOPC   GL215655  15.457   6.221  11.767  0.3614  0.2910  0.5321
12110DOPC   C1A15656  15.252   5.696  11.985  0.0541 -0.1021  0.2045
12110DOPC   D2A15657  15.454   5.663  12.438 -0.0844  0.0607  0.1538
12110DOPC   C3A15658  15.687   5.493  12.837  0.0727 -0.1411 -0.0288
12110DOPC   C4A15659  15.956   5.206  13.129 -0.2538  0.1378  0.0011
12110DOPC   C1B15660  15.496   6.286  12.198  0.0051  0.0541 -0.2047
12110DOPC   D2B15661  15.426   6.286  12.738  0.0780  0.5161 -0.0906
12110DOPC   C3B15662  15.004   6.514  12.714  0.1790 -0.0277  0.0128
12110DOPC   C4B15663  14.687   6.613  13.119  0.1092  0.1015 -0.0918
12111DOPC   NC315664  10.431   4.487  10.932 -0.2493  0.1598 -0.3038
12111DOPC   PO415665  10.728   4.754  11.010  0.2393 -0.0425 -0.0841
12111DOPC   GL115666  10.743   4.982  11.385 -0.1237  0.0766  0.1430
12111DOPC   GL215667  10.412   4.944  11.375  0.2237  0.2266 -0.3254
12111DOPC   C1A15668  10.651   4.890  11.779 -0.2299 -0.1285  0.2425
12111DOPC   D2A15669  10.282   5.006  12.108 -0.1334  0.1838 -0.1112
12111DOPC   C3A15670  10.173   5.013  12.507  0.0197 -0.0194  0.0719
12111DOPC   C4A15671  10.011   5.000  12.965 -0.2185  0.2432 -0.0729
12111DOPC   C1B15672  10.222   5.214  11.672 -0.1354  0.2293 -0.0490
12111DOPC   D2B15673  10.088   5.470  12.060 -0.2068  0.0810 -0.1650
12111DOPC   C3B15674   9.933   5.496  12.505 -0.1175 -0.0474  0.0219
12111DOPC   C4B15675   9.742   5.478  12.971  0.1760  0.0624 -0.3937
12112DOPC   NC315676  15.683   4.329  10.799 -0.1476  0.1417 -0.1543
12112DOPC   PO415677  15.425   4.605  10.982 -0.0055 -0.0429  0.1117
12112DOPC   GL115678  15.459   4.575  11.396 -0.0009 -0.0213 -0.0018
12112DOPC   GL215679  15.370   4.314  11.367 -0.1726 -0.2305 -0.1396
12112DOPC   C1A15680  15.471   4.592  11.851 -0.0188 -0.0344  0.1137
12112DOPC   D2A15681  15.625   4.641  12.303 -0.1403  0.1946 -0.1723
12112DOPC   C3A15682  16.031   4.547  12.496 -0.0199 -0.0690  0.1857
12112DOPC   C4A15683  16.470   4.343  12.599 -0.0476  0.0802  0.2112
12112DOPC   C1B15684  15.491   4.045  11.705 -0.2199 -0.2830 -0.0037
12112DOPC   D2B15685  15.832   3.766  11.988 -0.4637  0.1212 -0.0612
12112DOPC   C3B15686  15.900   3.609  12.397  0.2243 -0.0390  0.0270
12112DOPC   C4B15687  16.042   3.433  12.736 -0.0377 -0.1007 -0.0418
12113DOPC   NC315688  16.598   2.559  11.013 -0.2576 -0.2373 -0.0472
12113DOPC   PO415689  16.744   2.885  11.177  0.0984  0.1827  0.1105
12113DOPC   GL115690  16.762   2.823  11.599  0.5877  0.5560  0.1485
12113DOPC   GL215691  16.509   2.620  11.549  0.1377  0.1692  0.0042
12113DOPC   C1A15692  17.018   2.752  11.955 -0.0278  0.0657  0.4367
12113DOPC   D2A15693  17.271   2.662  12.365  0.1438 -0.0473  0.0685
12113DOPC   C3A15694  17.053   2.466  12.741 -0.0222 -0.1448 -0.0601
12113DOPC   C4A15695  17.008   1.991  12.773 -0.2514  0.1207  0.0509
12113DOPC   C1B15696  16.632   2.416  11.927 -0.0296  0.3380 -0.3752
12113DOPC   D2B15697  16.674   2.609  12.360  0.0320 -0.0046 -0.0219
12113DOPC   C3B15698  16.421   2.753  12.661  0.4139  0.2721  0.2245
12113DOPC   C4B15699  16.296   2.972  13.080 -0.0903 -0.2352  0.0140
12114DOPC   NC315700  23.142   6.468  11.013 -0.0546 -0.1054  0.1430
12114DOPC   PO415701  23.447   6.484  11.238 -0.2546 -0.4442 -0.0784
12114DOPC   GL115702  23.339   6.467  11.666  0.0769  0.2416  0.2404
12114DOPC   GL215703  23.568   6.345  11.679 -0.0396  0.1596  0.2229
12114DOPC   C1A15704  23.153   6.222  12.052 -0.2515  0.0163  0.0980
12114DOPC   D2A15705  23.028   5.933  12.453  0.2110 -0.1361  0.1013
12114DOPC   C3A15706  22.821   6.279  12.781 -0.2324 -0.0578  0.0176
12114DOPC   C4A15707  22.473   6.646  12.829  0.2435  0.0566  0.1209
12114DOPC   C1B15708  23.867   6.523  11.984  0.2978 -0.0611  0.1000
12114DOPC   D2B15709  24.131   6.716  12.339 -0.1112 -0.0513  0.0181
12114DOPC   C3B15710  23.941   6.963  12.699 -0.2366  0.2408  0.2377
12114DOPC   C4B15711  23.946   7.390  12.927 -0.0685 -0.1296  0.0589
12115DOPC   NC315712  16.786   5.386  11.600 -0.0485  0.2902  0.2631
12115DOPC   PO415713  16.844   5.010  11.593 -0.0805  0.2850 -0.0803
12115DOPC   GL115714  16.844   4.758  11.948  0.2261 -0.1657 -0.2177
12115DOPC   GL215715  16.538   4.665  11.840 -0.2829  0.0153 -0.0206
12115DOPC   C1A15716  16.822   4.623  12.376  0.1719 -0.2226 -0.0330
12115DOPC   D2A15717  17.156   4.646  12.762  0.1261 -0.0148 -0.3378
12115DOPC   C3A15718  17.173   4.445  13.174  0.3041  0.0093 -0.1576
12115DOPC   C4A15719  17.146   4.390  13.654  0.0456 -0.5877  0.0200
12115DOPC   C1B15720  16.377   4.394  12.109  0.2624 -0.0337 -0.1110
12115DOPC   D2B15721  16.223   3.976  12.309  0.0714 -0.1095  0.0074
12115DOPC   C3B15722  16.236   3.865  12.723 -0.0494  0.0910 -0.0285
12115DOPC   C4B15723  16.082   3.770  13.210  0.0580 -0.0898  0.2690
12116DOPC   NC315724  20.812   5.422  11.856 -0.1146 -0.0762  0.3528
12116DOPC   PO415725  21.115   5.553  11.671 -0.1237 -0.1443  0.2835
12116DOPC   GL115726  21.122   5.942  11.919 -0.1278 -0.3056 -0.3009
12116DOPC   GL215727  21.382   5.905  11.969 -0.0667  0.0231 -0.0538
12116DOPC   C1A15728  20.941   6.065  12.300 -0.0450  0.0117 -0.0366
12116DOPC   D2A15729  20.486   6.009  12.564 -0.0852 -0.1957  0.4328
12116DOPC   C3A15730  20.595   5.694  12.891 -0.0943 -0.1053  0.0077
12116DOPC   C4A15731  20.416   5.262  13.016 -0.0123 -0.0902  0.1458
12116DOPC   C1B15732  21.474   5.837  12.434 -0.1828  0.3121  0.0168
12116DOPC   D2B15733  21.484   5.666  12.930  0.1127 -0.0695  0.0950
12116DOPC   C3B15734  21.123   5.445  13.128 -0.4162 -0.0642  0.1601
12116DOPC   C4B15735  20.984   5.162  13.585  0.1726  0.1518  0.1373
12117DOPC   NC315736   2.392   7.816  10.572 -0.0922 -0.0703 -0.1849
12117DOPC   PO415737   2.526   8.203  10.467  0.1000 -0.3041 -0.1795
12117DOPC   GL115738   2.763   8.375  10.810  0.0033 -0.1546 -0.2955
12117DOPC   GL215739   2.783   8.672  10.768  0.3748  0.1778 -0.0545
12117DOPC   C1A15740   2.542   8.265  11.166  0.2262  0.0906 -0.0092
12117DOPC   D2A15741   2.346   8.060  11.594 -0.2675  0.1190  0.1770
12117DOPC   C3A15742   2.327   8.247  11.976  0.1961  0.3619 -0.1228
12117DOPC   C4A15743   2.586   8.520  12.347  0.0749 -0.0158  0.1043
12117DOPC   C1B15744   2.920   9.087  10.965  0.1161 -0.0412  0.1455
12117DOPC   D2B15745   3.004   9.306  11.459 -0.0917  0.2545 -0.0728
12117DOPC   C3B15746   2.866   9.632  11.793  0.3328 -0.2448 -0.1582
12117DOPC   C4B15747   2.743   9.937  12.127 -0.0703 -0.2532 -0.2372
12118DOPC   NC315748  18.048   4.545  11.699 -0.1443 -0.4561  0.2198
12118DOPC   PO415749  18.291   4.193  11.592  0.0104  0.1854  0.0600
12118DOPC   GL115750  18.501   4.246  11.919  0.0978  0.1666 -0.1613
12118DOPC   GL215751  18.191   4.261  12.027 -0.2252 -0.0751  0.4487
12118DOPC   C1A15752  18.753   4.367  12.256 -0.1216 -0.0083 -0.2226
12118DOPC   D2A15753  19.079   4.527  12.612 -0.1098  0.0119 -0.2844
12118DOPC   C3A15754  19.232   4.812  12.951 -0.1057  0.0805  0.1117
12118DOPC   C4A15755  19.451   4.806  13.348  0.0520 -0.0708 -0.0501
12118DOPC   C1B15756  18.294   4.328  12.464  0.0753  0.2198 -0.0149
12118DOPC   D2B15757  18.284   4.273  12.942  0.0424 -0.1699 -0.2912
12118DOPC   C3B15758  17.998   4.429  13.225  0.1369  0.1398 -0.2554
12118DOPC   C4B15759  17.901   4.550  13.638 -0.3922 -0.3795 -0.2597
12119DOPC   NC315760  23.634   5.989  11.325 -0.1200 -0.1249  0.0866
12119DOPC   PO415761  23.773   5.652  11.432  0.3916 -0.1704 -0.1561
12119DOPC   GL115762  24.106   5.661  11.585  0.0033 -0.0353  0.0424
12119DOPC   GL215763  24.046   5.359  11.584 -0.5130 -0.1420 -0.3086
12119DOPC   C1A15764  24.018   5.933  11.990  0.2786 -0.0376  0.3473
12119DOPC   D2A15765  24.136   6.206  12.379 -0.1355  0.0625  0.0557
12119DOPC   C3A15766  23.832   6.382  12.684 -0.1939 -0.1594 -0.0497
12119DOPC   C4A15767  23.678   6.599  13.067 -0.1754  0.0443 -0.0530
12119DOPC   C1B15768  24.138   5.150  11.984  0.0965 -0.3258  0.0163
12119DOPC   D2B15769  24.098   5.113  12.460  0.1781 -0.0427  0.2792
12119DOPC   C3B15770  23.792   5.384  12.745  0.1335  0.1369  0.2758
12119DOPC   C4B15771  23.547   5.581  13.148 -0.1940  0.1992 -0.0211
12120DOPC   NC315772  22.991   6.627  11.417 -0.1697 -0.1031 -0.1873
12120DOPC   PO415773  23.132   6.934  11.225 -0.0892  0.3580 -0.1700
12120DOPC   GL115774  23.294   6.939  11.649 -0.3011  0.2587 -0.2127
12120DOPC   GL215775  23.068   7.185  11.648  0.3804 -0.0888  0.1676
12120DOPC   C1A15776  23.368   6.697  12.023  0.1033 -0.0219 -0.0315
12120DOPC   D2A15777  23.584   6.288  12.246  0.2962 -0.4585 -0.2149
12120DOPC   C3A15778  23.324   6.253  12.734  0.0819 -0.0740  0.2202
12120DOPC   C4A15779  23.226   6.422  13.149  0.0982  0.2596  0.0049
12120DOPC   C1B15780  22.931   6.949  11.961  0.3871  0.0170  0.2285
12120DOPC   D2B15781  22.680   6.964  12.366  0.1227  0.2819  0.0375
12120DOPC   C3B15782  22.544   7.191  12.701 -0.0581 -0.4093 -0.1228
12120DOPC   C4B15783  22.426   7.582  12.956  0.0971  0.2498  0.0210
12121DOPC   NC315784  14.962   4.686  11.274 -0.1544 -0.2963  0.0214
12121DOPC   PO415785  14.563   4.718  11.163  0.1509 -0.1488  0.0416
12121DOPC   GL115786  14.325   4.667  11.530  0.1706  0.1620  0.0694
12121DOPC   GL215787  14.585   4.539  11.593  0.2704  0.0733 -0.1121
12121DOPC   C1A15788  14.116   4.509  11.904 -0.1466 -0.1664 -0.0245
12121DOPC   D2A15789  13.978   4.383  12.319 -0.1270 -0.2457 -0.1553
12121DOPC   C3A15790  13.751   4.655  12.654 -0.1189  0.0210 -0.3277
12121DOPC   C4A15791  13.728   5.121  12.802 -0.1732  0.0790 -0.0815
12121DOPC   C1B15792  14.904   4.742  11.940 -0.0699  0.2220  0.1138
12121DOPC   D2B15793  14.834   4.989  12.382 -0.0633  0.0026 -0.0090
12121DOPC   C3B15794  14.734   5.149  12.810 -0.2427 -0.2801  0.2565
12121DOPC   C4B15795  14.624   5.083  13.268  0.5685  0.2319 -0.0101
12122DOPC   NC315796  11.983   2.800  10.933  0.0018 -0.3805 -0.0147
12122DOPC   PO415797  11.776   2.567  11.110  0.0856  0.0348  0.2881
12122DOPC   GL115798  11.818   2.268  11.438 -0.0873  0.2327 -0.2099
12122DOPC   GL215799  12.055   2.226  11.350  0.2206 -0.1150 -0.0341
12122DOPC   C1A15800  11.737   2.210  11.887  0.0245 -0.0473  0.3364
12122DOPC   D2A15801  11.750   2.279  12.423 -0.1882  0.0891  0.2302
12122DOPC   C3A15802  11.762   1.963  12.776 -0.1010 -0.0500  0.0371
12122DOPC   C4A15803  11.501   1.734  13.095 -0.0846  0.0353  0.1279
12122DOPC   C1B15804  12.212   2.182  11.777  0.0461  0.3814 -0.2014
12122DOPC   D2B15805  12.196   2.114  12.313 -0.1528  0.2595  0.0274
12122DOPC   C3B15806  12.170   2.205  12.744 -0.0173  0.2622 -0.0797
12122DOPC   C4B15807  12.297   2.212  13.238 -0.0984 -0.1685  0.1344
12123DOPC   NC315808   4.543   0.442  10.812 -0.3707 -0.2612 -0.1311
12123DOPC   PO415809   4.512   0.807  10.713  0.0362 -0.3242  0.3039
12123DOPC   GL115810   4.272   1.071  10.956 -0.3834  0.2388  0.1133
12123DOPC   GL215811   4.241   0.849  11.214 -0.1885 -0.0192  0.4383
12123DOPC   C1A15812   4.293   1.318  11.330 -0.1727  0.0622 -0.0447
12123DOPC   D2A15813   4.301   1.609  11.677  0.1383  0.1346  0.1396
12123DOPC   C3A15814   4.109   1.849  12.070 -0.2597  0.0228  0.0120
12123DOPC   C4A15815   4.167   2.078  12.480  0.1649 -0.1915 -0.1345
12123DOPC   C1B15816   4.233   0.819  11.632  0.1263 -0.1437 -0.0325
12123DOPC   D2B15817   4.210   0.741  12.144 -0.2519  0.0483  0.0200
12123DOPC   C3B15818   4.359   1.039  12.472 -0.0864  0.1481  0.1231
12123DOPC   C4B15819   4.656   1.377  12.686  0.0343  0.1792  0.1380
12124DOPC   NC315820   2.940   5.180  10.434 -0.0076  0.3473 -0.0030
12124DOPC   PO415821   2.564   5.246  10.552 -0.0129  0.1107 -0.3969
12124DOPC   GL115822   2.288   4.988  10.708 -0.0410  0.2298  0.0916
12124DOPC   GL215823   2.191   5.104  10.901 -0.3816  0.0423 -0.2084
12124DOPC   C1A15824   2.364   4.588  10.921  0.3091 -0.2059  0.1245
12124DOPC   D2A15825   2.225   4.390  11.389  0.4947 -0.2477 -0.2559
12124DOPC   C3A15826   2.215   4.130  11.799 -0.1790 -0.1497  0.0583
12124DOPC   C4A15827   1.979   3.859  12.128  0.0304  0.1330 -0.0241
12124DOPC   C1B15828   2.197   4.941  11.354 -0.1872 -0.1318  0.0955
12124DOPC   D2B15829   2.120   4.822  11.824 -0.1489  0.0471  0.0201
12124DOPC   C3B15830   2.405   4.569  11.934  0.3074 -0.0553 -0.1611
12124DOPC   C4B15831   2.487   4.204  12.207  0.0088 -0.0280 -0.4147
12125DOPC   NC315832  30.017   2.079  10.919 -0.2809 -0.1590 -0.0314
12125DOPC   PO415833  29.636   1.922  10.874  0.4377 -0.1824 -0.3218
12125DOPC   GL115834  29.473   1.844  11.129 -0.0470  0.1717  0.2027
12125DOPC   GL215835  29.258   1.653  11.147  0.4239 -0.0127 -0.0408
12125DOPC   C1A15836  29.552   1.881  11.593  0.0651 -0.0067 -0.0993
12125DOPC   D2A15837  29.560   2.114  12.076  0.0507  0.2113  0.0892
12125DOPC   C3A15838  29.319   2.200  12.436  0.1371  0.0663 -0.1203
12125DOPC   C4A15839  29.051   2.001  12.786 -0.0656  0.1170  0.0083
12125DOPC   C1B15840  29.291   1.414  11.577  0.2128  0.2132  0.3350
12125DOPC   D2B15841  29.562   1.229  11.959  0.1304  0.0762  0.1755
12125DOPC   C3B15842  29.642   0.927  12.188 -0.2214  0.0866 -0.3146
12125DOPC   C4B15843  29.680   0.642  12.594 -0.0209  0.0877  0.0523
12126DOPC   NC315844  30.532   0.414  10.887  0.2264 -0.0225 -0.0658
12126DOPC   PO415845  30.360   0.058  11.016 -0.1079 -0.1624 -0.2605
12126DOPC   GL115846  30.393  -0.148  11.280  0.4658 -0.0157  0.1676
12126DOPC   GL215847  30.551  -0.423  11.336 -0.1634  0.2333  0.1065
12126DOPC   C1A15848  30.198  -0.250  11.595 -0.0485  0.0480  0.1454
12126DOPC   D2A15849  30.137  -0.471  12.014 -0.0515 -0.0408  0.0192
12126DOPC   C3A15850  29.963  -0.840  12.200 -0.1775  0.1146  0.0509
12126DOPC   C4A15851  29.948  -1.306  12.421 -0.0618  0.0045  0.3571
12126DOPC   C1B15852  30.580  -0.536  11.751  0.0420  0.2626 -0.1443
12126DOPC   D2B15853  30.735  -0.339  12.166  0.2192 -0.1010  0.1583
12126DOPC   C3B15854  31.034  -0.546  12.451  0.0286  0.2222 -0.1349
12126DOPC   C4B15855  31.399  -0.630  12.768 -0.0318 -0.1619 -0.1652
12127DOPC   NC315856  21.871   1.954  10.090  0.0750 -0.0327 -0.1097
12127DOPC   PO415857  21.994   1.928  10.494 -0.1557  0.1378  0.4179
12127DOPC   GL115858  22.096   2.175  10.856  0.1607 -0.5968  0.2577
12127DOPC   GL215859  21.917   1.954  10.936 -0.1966  0.2272  0.3216
12127DOPC   C1A15860  22.203   2.425  11.181 -0.2001 -0.1141  0.1489
12127DOPC   D2A15861  22.243   2.744  11.567  0.0841 -0.0713  0.1248
12127DOPC   C3A15862  22.227   3.107  11.941  0.0544 -0.0775  0.2940
12127DOPC   C4A15863  21.991   3.478  12.176 -0.1449 -0.0887 -0.1975
12127DOPC   C1B15864  21.812   2.134  11.295 -0.1129 -0.1619 -0.4168
12127DOPC   D2B15865  21.720   2.372  11.693 -0.0410  0.2215 -0.1252
12127DOPC   C3B15866  21.716   2.385  12.164  0.1214  0.2679  0.1079
12127DOPC   C4B15867  21.939   2.177  12.570 -0.2792 -0.2875 -0.3545
12128DOPC   NC315868  13.476   7.220  11.078  0.0197 -0.1088  0.1729
12128DOPC   PO415869  13.265   6.947  11.259 -0.1310 -0.0657  0.0361
12128DOPC   GL115870  13.241   6.817  11.598  0.2665 -0.0379  0.1912
12128DOPC   GL215871  13.229   7.149  11.717  0.1079  0.0880  0.0742
12128DOPC   C1A15872  13.527   6.863  11.969  0.0955  0.2305 -0.3117
12128DOPC   D2A15873  13.634   7.067  12.375  0.0067  0.1633 -0.1202
12128DOPC   C3A15874  13.915   6.818  12.735 -0.0271 -0.1858  0.0258
12128DOPC   C4A15875  14.180   6.465  13.001  0.0357 -0.0587 -0.0612
12128DOPC   C1B15876  13.234   7.199  12.170 -0.3698 -0.3198 -0.0635
12128DOPC   D2B15877  13.341   7.450  12.578  0.0427  0.0500  0.1412
12128DOPC   C3B15878  13.439   7.810  12.873  0.1410  0.3664 -0.0149
12128DOPC   C4B15879  13.793   7.990  13.199  0.0041 -0.1921 -0.2150
12129DOPC   NC315880  12.511   2.208  11.331  0.0219  0.1203  0.1613
12129DOPC   PO415881  12.426   2.567  11.190 -0.1906  0.2054  0.2447
12129DOPC   GL115882  12.231   2.847  11.472 -0.2585 -0.0418 -0.2386
12129DOPC   GL215883  12.037   2.616  11.528 -0.0993 -0.0952  0.0048
12129DOPC   C1A15884  12.353   2.979  11.853 -0.1891  0.2694  0.0730
12129DOPC   D2A15885  12.498   2.983  12.316 -0.1015  0.0908  0.0973
12129DOPC   C3A15886  12.370   3.017  12.771 -0.1638  0.0029  0.0230
12129DOPC   C4A15887  12.144   2.880  13.233  0.2202 -0.2256 -0.0600
12129DOPC   C1B15888  11.887   2.740  11.942 -0.0561 -0.2940 -0.2958
12129DOPC   D2B15889  11.558   3.072  12.202  0.0740 -0.0814  0.2506
12129DOPC   C3B15890  11.308   3.229  12.536  0.1339 -0.1319  0.1471
12129DOPC   C4B15891  11.392   3.300  12.993 -0.1434  0.0652 -0.0471
12130DOPC   NC315892  11.556   2.987  11.557 -0.0816 -0.1510 -0.0503
12130DOPC   PO415893  11.856   3.097  11.386  0.2185 -0.1432  0.1209
12130DOPC   GL115894  12.097   3.265  11.643 -0.1296  0.2249 -0.1356
12130DOPC   GL215895  12.130   3.521  11.544  0.1049 -0.2558 -0.1226
12130DOPC   C1A15896  12.019   3.172  12.162 -0.2076  0.2004 -0.2557
12130DOPC   D2A15897  11.797   3.237  12.636 -0.4065  0.4113  0.2794
12130DOPC   C3A15898  12.021   3.362  13.064 -0.0056  0.0898 -0.3062
12130DOPC   C4A15899  12.270   3.352  13.489  0.1196 -0.1513 -0.4603
12130DOPC   C1B15900  12.091   3.743  11.916  0.1963 -0.1134  0.1301
12130DOPC   D2B15901  12.361   3.911  12.356  0.0802  0.0966 -0.1860
12130DOPC   C3B15902  12.221   4.305  12.560  0.2812  0.0295 -0.2594
12130DOPC   C4B15903  12.411   4.698  12.790 -0.1915 -0.0525 -0.0897
12131DOPC   NC315904  19.452   2.738  11.078  0.0468 -0.0563  0.1516
12131DOPC   PO415905  19.150   2.660  11.327  0.1095  0.1145  0.2461
12131DOPC   GL115906  19.207   2.679  11.713 -0.2441 -0.0306  0.5321
12131DOPC   GL215907  19.277   2.422  11.774 -0.1036 -0.1190  0.1298
12131DOPC   C1A15908  19.168   2.921  12.062  0.1148 -0.0045  0.0120
12131DOPC   D2A15909  19.133   3.252  12.397 -0.1336 -0.0874 -0.2472
12131DOPC   C3A15910  19.524   3.259  12.664 -0.1840  0.0352 -0.2506
12131DOPC   C4A15911  19.653   3.113  13.132  0.1681  0.1787  0.2559
12131DOPC   C1B15912  19.156   2.424  12.175  0.0885  0.0058  0.1952
12131DOPC   D2B15913  19.025   2.209  12.596  0.1517 -0.0403 -0.3958
12131DOPC   C3B15914  18.761   1.907  12.838 -0.1685  0.0212  0.2121
12131DOPC   C4B15915  18.605   1.570  13.147  0.3144 -0.1829  0.1374
12132DOPC   NC315916  27.872   4.883  10.637 -0.1851 -0.0957  0.3425
12132DOPC   PO415917  28.185   4.648  10.724  0.0437  0.0766  0.0830
12132DOPC   GL115918  28.327   4.516  11.117 -0.0070 -0.1355  0.0345
12132DOPC   GL215919  28.592   4.642  11.092  0.3402  0.0025 -0.1395
12132DOPC   C1A15920  28.176   4.250  11.466  0.0097 -0.0363  0.3105
12132DOPC   D2A15921  28.175   3.835  11.748  0.1556 -0.0942  0.0495
12132DOPC   C3A15922  28.421   3.753  12.129 -0.0360  0.0520  0.2522
12132DOPC   C4A15923  28.619   3.594  12.584  0.1104  0.1304  0.1981
12132DOPC   C1B15924  28.753   4.470  11.478  0.0621 -0.2513  0.1003
12132DOPC   D2B15925  28.490   4.226  11.872 -0.1548 -0.1736 -0.0760
12132DOPC   C3B15926  28.790   4.576  12.128  0.0664 -0.1887 -0.4790
12132DOPC   C4B15927  29.246   4.773  12.172 -0.1015 -0.0316  0.1808
12133DOPC   NC315928   7.442   7.116  10.640  0.0546  0.2155 -0.6064
12133DOPC   PO415929   7.802   7.294  10.593  0.3602 -0.0520 -0.0373
12133DOPC   GL115930   7.887   7.462  10.976 -0.5096 -0.1297 -0.3090
12133DOPC   GL215931   7.853   7.738  10.979 -0.2079 -0.1270  0.1862
12133DOPC   C1A15932   7.862   7.346  11.448 -0.2370 -0.3210  0.1103
12133DOPC   D2A15933   7.745   7.208  11.911 -0.0319 -0.0077 -0.0687
12133DOPC   C3A15934   7.523   6.808  12.044 -0.0917 -0.0469  0.0577
12133DOPC   C4A15935   7.220   6.475  12.147 -0.1810  0.1648  0.0237
12133DOPC   C1B15936   7.982   7.860  11.386 -0.1139 -0.3398  0.3241
12133DOPC   D2B15937   8.288   8.016  11.767 -0.2351  0.0242 -0.2638
12133DOPC   C3B15938   8.075   7.947  12.174 -0.0730  0.0006 -0.2050
12133DOPC   C4B15939   8.175   7.918  12.697 -0.0815 -0.0364 -0.1955
12134DOPC   NC315940  15.750   6.452  11.586  0.1807 -0.2437  0.4395
12134DOPC   PO415941  16.148   6.527  11.501 -0.0640 -0.0712 -0.1183
12134DOPC   GL115942  16.249   6.460  11.910  0.3385  0.3802 -0.1021
12134DOPC   GL215943  15.941   6.373  12.026  0.0161  0.1517 -0.0041
12134DOPC   C1A15944  16.599   6.343  12.110  0.0668 -0.0873 -0.1040
12134DOPC   D2A15945  16.785   6.009  12.465  0.1089 -0.1444 -0.1197
12134DOPC   C3A15946  16.762   5.594  12.716  0.1679  0.1411 -0.0502
12134DOPC   C4A15947  17.150   5.350  12.772  0.0842 -0.0268  0.4603
12134DOPC   C1B15948  15.892   6.147  12.422  0.3351  0.2406  0.0917
12134DOPC   D2B15949  15.788   6.030  12.896  0.3305 -0.2885 -0.1499
12134DOPC   C3B15950  15.478   6.228  13.217 -0.0780 -0.0383  0.2837
12134DOPC   C4B15951  15.181   6.571  13.378 -0.5737  0.0908  0.0863
12135DOPC   NC315952  30.078   2.189  10.292  0.0933  0.0141  0.0345
12135DOPC   PO415953  30.394   2.131  10.565 -0.1805  0.2422  0.1741
12135DOPC   GL115954  30.456   1.991  11.018  0.0748  0.0022 -0.0051
12135DOPC   GL215955  30.425   2.312  11.054 -0.1110 -0.2843  0.0531
12135DOPC   C1A15956  30.609   1.790  11.393  0.0467 -0.0046 -0.0752
12135DOPC   D2A15957  30.938   1.423  11.695  0.1383  0.0169  0.1761
12135DOPC   C3A15958  31.230   1.345  12.046  0.0955 -0.0512  0.0588
12135DOPC   C4A15959  31.269   1.196  12.503 -0.0755 -0.1241  0.0507
12135DOPC   C1B15960  30.770   2.629  11.126  0.0574 -0.0996  0.2538
12135DOPC   D2B15961  30.845   3.128  10.974 -0.0062 -0.1282 -0.0329
12135DOPC   C3B15962  30.630   3.318  11.329 -0.2180 -0.0959 -0.0094
12135DOPC   C4B15963  30.201   3.489  11.624  0.2967 -0.1051 -0.2093
12136DOPC   NC315964  16.948   4.504  11.594 -0.0392 -0.1092 -0.0354
12136DOPC   PO415965  16.748   4.305  11.324 -0.2373 -0.1843  0.3166
12136DOPC   GL115966  16.623   4.003  11.612  0.2441  0.0318 -0.5627
12136DOPC   GL215967  16.717   4.207  11.839 -0.1218  0.3365  0.3851
12136DOPC   C1A15968  16.261   3.684  11.782 -0.1802  0.1723  0.0334
12136DOPC   D2A15969  16.016   3.256  11.866 -0.0630 -0.2051  0.2210
12136DOPC   C3A15970  15.727   3.162  12.238 -0.3729  0.1975  0.0527
12136DOPC   C4A15971  15.458   2.791  12.467 -0.1512  0.0036 -0.0648
12136DOPC   C1B15972  16.691   4.018  12.314 -0.0495 -0.2399  0.0242
12136DOPC   D2B15973  16.703   3.925  12.784  0.1958  0.0384  0.1974
12136DOPC   C3B15974  16.677   3.775  13.215 -0.0173 -0.1184 -0.0191
12136DOPC   C4B15975  16.726   3.648  13.702  0.2018 -0.0389 -0.0443
12137DOPC   NC315976   8.861   3.856  10.914 -0.1965  0.0954 -0.1613
12137DOPC   PO415977   8.476   3.984  11.100 -0.0602 -0.0186 -0.0261
12137DOPC   GL115978   8.415   4.222  11.422  0.1510 -0.0206 -0.4137
12137DOPC   GL215979   8.389   3.971  11.607  0.3800  0.0693  0.0702
12137DOPC   C1A15980   8.476   4.521  11.788 -0.2895  0.0008 -0.1383
12137DOPC   D2A15981   8.190   4.586  12.272 -0.2104 -0.4398  0.6546
12137DOPC   C3A15982   7.963   4.276  12.541 -0.2755 -0.0882  0.0104
12137DOPC   C4A15983   7.732   3.985  12.794 -0.0263 -0.3507  0.2257
12137DOPC   C1B15984   8.118   4.192  11.849  0.3500  0.1982 -0.0227
12137DOPC   D2B15985   7.686   4.045  12.151  0.0396  0.0995  0.1892
12137DOPC   C3B15986   7.612   3.576  12.139 -0.2317 -0.1868  0.0463
12137DOPC   C4B15987   7.420   3.163  12.288 -0.0990  0.2274 -0.1037
12138DOPC   NC315988   0.314   5.654   9.887  0.0227 -0.0120  0.2960
12138DOPC   PO415989   0.340   5.546  10.268  0.1818 -0.1063 -0.0709
12138DOPC   GL115990   0.376   5.437  10.664  0.0744  0.0339 -0.0508
12138DOPC   GL215991   0.586   5.601  10.676  0.2215 -0.2171 -0.1464
12138DOPC   C1A15992   0.262   5.359  11.113  0.1857  0.2000 -0.0545
12138DOPC   D2A15993  -0.247   5.272  11.271 -0.0300 -0.0231  0.1567
12138DOPC   C3A15994  -0.464   5.118  11.656 -0.1127  0.0094  0.1559
12138DOPC   C4A15995  -0.728   5.053  12.051 -0.1802 -0.1161  0.1205
12138DOPC   C1B15996   0.712   5.641  11.111 -0.0453 -0.1790  0.0250
12138DOPC   D2B15997   0.786   5.529  11.579 -0.1812 -0.0604 -0.0334
12138DOPC   C3B15998   0.562   5.946  11.576 -0.0434  0.0332  0.0455
12138DOPC   C4B15999   0.137   6.209  11.702  0.3385  0.1078 -0.0573
12139DOPC   NC316000  29.487   1.475  10.687  0.1342 -0.0080 -0.0516
12139DOPC   PO416001  29.777   1.163  10.717  0.1535  0.1132  0.0153
12139DOPC   GL116002  29.866   1.267  11.138  0.2500 -0.0646  0.2189
12139DOPC   GL216003  29.725   1.515  11.128  0.0654 -0.1212 -0.0601
12139DOPC   C1A16004  29.613   1.006  11.416 -0.1724  0.0994 -0.0426
12139DOPC   D2A16005  29.408   0.794  11.800 -0.2178  0.0540 -0.0916
12139DOPC   C3A16006  29.609   0.465  12.087  0.0549 -0.0576  0.0859
12139DOPC   C4A16007  30.050   0.428  12.211  0.2711  0.1471 -0.2110
12139DOPC   C1B16008  30.072   1.786  11.337 -0.0616  0.0531 -0.2724
12139DOPC   D2B16009  30.236   1.924  11.824 -0.2068 -0.0506  0.0077
12139DOPC   C3B16010  30.308   1.794  12.283 -0.3853 -0.0656  0.0478
12139DOPC   C4B16011  30.478   1.680  12.709 -0.1248  0.1884  0.1065
12140DOPC   NC316012  27.565   0.688  10.820  0.0902  0.1515  0.1532
12140DOPC   PO416013  27.951   0.830  10.727  0.0529  0.1560 -0.4735
12140DOPC   GL116014  27.984   1.128  10.991  0.2631  0.0724  0.1149
12140DOPC   GL216015  27.847   1.330  10.886  0.2165 -0.0317  0.2189
12140DOPC   C1A16016  28.021   1.194  11.384  0.1272  0.1521  0.0419
12140DOPC   D2A16017  28.326   1.208  11.734  0.1743 -0.2021  0.0550
12140DOPC   C3A16018  28.498   1.580  11.943  0.0706 -0.2604 -0.2653
12140DOPC   C4A16019  28.687   2.005  12.189  0.0301 -0.1716  0.0784
12140DOPC   C1B16020  27.779   1.588  11.245  0.0134  0.0036 -0.0328
12140DOPC   D2B16021  27.935   1.604  11.741  0.2580  0.0667 -0.1359
12140DOPC   C3B16022  28.064   1.370  12.117  0.0972 -0.0435 -0.0140
12140DOPC   C4B16023  28.346   1.595  12.508  0.0598  0.3225  0.2870
12141DOPC   NC316024   4.715   1.231  10.825 -0.0810  0.2590  0.0886
12141DOPC   PO416025   4.993   0.964  10.709  0.0232 -0.1136 -0.4659
12141DOPC   GL116026   4.890   0.790  11.022 -0.3400  0.1592 -0.0667
12141DOPC   GL216027   4.962   0.498  11.086 -0.3676 -0.0073  0.0831
12141DOPC   C1A16028   4.716   1.001  11.389 -0.1131 -0.0524  0.1841
12141DOPC   D2A16029   4.573   1.183  11.833 -0.2826  0.2354 -0.3293
12141DOPC   C3A16030   4.382   1.447  12.187  0.1088 -0.0820  0.0813
12141DOPC   C4A16031   4.175   1.618  12.615 -0.0573 -0.2476 -0.0482
12141DOPC   C1B16032   4.622   0.428  11.317 -0.2291  0.1185 -0.1385
12141DOPC   D2B16033   4.426   0.366  11.849 -0.0779  0.1124 -0.3024
12141DOPC   C3B16034   4.499   0.329  12.289  0.1819  0.0727 -0.3977
12141DOPC   C4B16035   4.845   0.334  12.647 -0.1509  0.1191  0.0494
12142DOPC   NC316036   1.924   6.869  10.348 -0.1030  0.0763  0.0195
12142DOPC   PO416037   1.909   7.152  10.604 -0.2375 -0.1325  0.3820
12142DOPC   GL116038   2.133   7.156  10.906  0.0415  0.0414 -0.0862
12142DOPC   GL216039   1.961   7.151  11.128  0.2792 -0.1937  0.2396
12142DOPC   C1A16040   2.494   7.231  11.105 -0.1249  0.2499  0.0879
12142DOPC   D2A16041   2.922   7.321  11.336  0.0111  0.3165  0.2625
12142DOPC   C3A16042   2.696   7.521  11.745  0.0623  0.2003  0.2488
12142DOPC   C4A16043   2.579   7.780  12.093 -0.1669 -0.3089  0.1132
12142DOPC   C1B16044   2.219   7.129  11.537 -0.0963 -0.3129  0.0459
12142DOPC   D2B16045   2.307   7.150  11.981 -0.1786  0.0435 -0.4315
12142DOPC   C3B16046   2.707   7.282  12.185 -0.2368 -0.1436  0.1695
12142DOPC   C4B16047   3.151   7.427  12.140 -0.1639 -0.0600  0.1819
12143DOPC   NC316048   2.111   4.230  10.245 -0.0778 -0.1674  0.1947
12143DOPC   PO416049   2.211   3.852  10.392  0.0096 -0.1336 -0.1734
12143DOPC   GL116050   2.294   3.873  10.821 -0.1292 -0.0479 -0.1853
12143DOPC   GL216051   2.541   3.690  10.755  0.1438  0.0911  0.0350
12143DOPC   C1A16052   2.040   3.887  11.164  0.1279  0.3930  0.3719
12143DOPC   D2A16053   2.046   3.704  11.591  0.3316 -0.0716  0.1301
12143DOPC   C3A16054   2.092   3.358  11.894 -0.1098 -0.0626 -0.2311
12143DOPC   C4A16055   2.481   3.070  12.063 -0.0946  0.0652 -0.0494
12143DOPC   C1B16056   2.729   3.615  11.102 -0.0497  0.0124  0.1102
12143DOPC   D2B16057   3.002   3.517  11.481 -0.4042  0.0676 -0.1017
12143DOPC   C3B16058   3.036   3.477  11.972 -0.0942 -0.0824  0.1929
12143DOPC   C4B16059   3.130   3.488  12.414 -0.2596 -0.0370  0.1493
12144DOPC   NC316060  29.465   4.045  10.601  0.1228  0.1290 -0.0526
12144DOPC   PO416061  29.734   3.808  10.449 -0.1242  0.1040  0.1689
12144DOPC   GL116062  29.830   3.718  10.848  0.3769  0.3109 -0.0925
12144DOPC   GL216063  29.487   3.677  10.957 -0.1972 -0.2934  0.2368
12144DOPC   C1A16064  29.854   3.496  11.165  0.1941 -0.0253  0.2196
12144DOPC   D2A16065  29.969   3.077  11.420  0.0534 -0.1038  0.0683
12144DOPC   C3A16066  30.306   2.980  11.796 -0.0265  0.2161 -0.0074
12144DOPC   C4A16067  30.588   2.984  12.236 -0.2318  0.1404 -0.2046
12144DOPC   C1B16068  29.525   3.791  11.377  0.0313  0.3640 -0.0934
12144DOPC   D2B16069  29.283   3.705  11.785  0.0125  0.0088 -0.0867
12144DOPC   C3B16070  29.300   3.694  12.225  0.2796 -0.2671  0.1819
12144DOPC   C4B16071  29.166   3.717  12.685 -0.2017 -0.0271 -0.1774
12145DOPC   NC316072  22.318   3.836  10.902  0.4570  0.0665 -0.3432
12145DOPC   PO416073  22.117   4.174  10.944 -0.0255  0.1970 -0.3328
12145DOPC   GL116074  22.132   4.233  11.296  0.2263  0.0807  0.3886
12145DOPC   GL216075  21.909   4.156  11.451 -0.0567 -0.5512  0.2196
12145DOPC   C1A16076  22.125   4.544  11.656  0.2933  0.1687 -0.2075
12145DOPC   D2A16077  22.102   4.773  12.020  0.0978  0.0972 -0.0215
12145DOPC   C3A16078  22.115   4.443  12.367 -0.0191 -0.0486 -0.0849
12145DOPC   C4A16079  21.960   4.072  12.628 -0.2121 -0.3111  0.1487
12145DOPC   C1B16080  21.782   3.795  11.620  0.0722  0.2967  0.0441
12145DOPC   D2B16081  21.689   3.301  11.759  0.1493  0.0367 -0.0224
12145DOPC   C3B16082  21.650   3.117  12.220 -0.2493  0.1844  0.1795
12145DOPC   C4B16083  21.587   3.052  12.683 -0.1427 -0.0554  0.0668
12146DOPC   NC316084  23.826   7.641  11.111  0.1943 -0.1743 -0.1724
12146DOPC   PO416085  24.217   7.644  11.188  0.0107  0.2148  0.0932
12146DOPC   GL116086  24.448   7.681  11.564 -0.2181 -0.0788 -0.0461
12146DOPC   GL216087  24.610   7.506  11.437  0.1031 -0.3031  0.1491
12146DOPC   C1A16088  24.284   7.591  11.986  0.0292 -0.0485  0.1952
12146DOPC   D2A16089  23.882   7.461  12.242 -0.1215 -0.4985 -0.2078
12146DOPC   C3A16090  23.491   7.650  12.224 -0.2854 -0.1141  0.0501
12146DOPC   C4A16091  23.075   7.927  12.279  0.0191 -0.0254  0.2290
12146DOPC   C1B16092  24.483   7.229  11.747 -0.2336 -0.0420 -0.1797
12146DOPC   D2B16093  24.312   7.164  12.188  0.2432 -0.1121  0.1439
12146DOPC   C3B16094  24.272   7.531  12.508  0.3291 -0.0099  0.0333
12146DOPC   C4B16095  24.185   7.965  12.788  0.0715 -0.1759  0.3169
12147DOPC   NC316096  18.972   3.104  11.533  0.1080  0.3237 -0.2924
12147DOPC   PO416097  19.313   3.272  11.481 -0.0347  0.1456 -0.1976
12147DOPC   GL116098  19.529   3.273  11.723 -0.2866  0.1373  0.1724
12147DOPC   GL216099  19.834   3.226  11.647 -0.2032 -0.1836 -0.0247
12147DOPC   C1A16100  19.563   3.226  12.154  0.0554  0.1542  0.0207
12147DOPC   D2A16101  19.873   2.937  12.420  0.1336 -0.0787  0.0104
12147DOPC   C3A16102  20.052   3.163  12.811  0.1800 -0.1441 -0.0363
12147DOPC   C4A16103  20.118   3.203  13.334  0.2578  0.0017 -0.1721
12147DOPC   C1B16104  19.969   3.003  11.899 -0.1395  0.0009  0.0602
12147DOPC   D2B16105  20.348   2.849  12.220 -0.0469 -0.0943  0.1346
12147DOPC   C3B16106  20.474   2.849  12.650 -0.0850  0.1157 -0.1312
12147DOPC   C4B16107  20.583   2.966  13.129  0.2274 -0.1111 -0.3889
12148DOPC   NC316108   1.031   3.152   9.865  0.1054 -0.0549 -0.0774
12148DOPC   PO416109   0.828   3.361  10.173 -0.2773  0.0292  0.0906
12148DOPC   GL116110   0.916   3.361  10.623 -0.0750  0.2119  0.3303
12148DOPC   GL216111   0.951   3.689  10.630 -0.0417  0.3436  0.0061
12148DOPC   C1A16112   0.898   3.182  11.070  0.2315 -0.1218 -0.3449
12148DOPC   D2A16113   0.751   2.943  11.535  0.2873 -0.0093  0.1105
12148DOPC   C3A16114   0.659   2.858  12.002 -0.0930  0.0980 -0.0551
12148DOPC   C4A16115   0.666   2.730  12.485  0.2080 -0.0227 -0.3152
12148DOPC   C1B16116   1.105   3.612  11.034 -0.3893 -0.3622  0.1516
12148DOPC   D2B16117   1.439   3.623  11.454  0.0833  0.0250 -0.0048
12148DOPC   C3B16118   1.630   3.669  11.852 -0.2130 -0.0928  0.3178
12148DOPC   C4B16119   1.509   3.315  12.201  0.0617  0.2910  0.1015
12149DOPC   NC316120  24.478   6.190  11.414  0.0081 -0.0661 -0.0363
12149DOPC   PO416121  24.715   6.047  11.130 -0.0395 -0.0680 -0.0335
12149DOPC   GL116122  24.801   5.911  11.523 -0.5061  0.2642 -0.0449
12149DOPC   GL216123  24.952   6.157  11.535 -0.0049 -0.0817  0.0489
12149DOPC   C1A16124  25.052   5.613  11.706 -0.2144 -0.0977 -0.1169
12149DOPC   D2A16125  25.100   5.246  12.044 -0.1754 -0.4396 -0.1526
12149DOPC   C3A16126  24.702   5.113  12.264 -0.1300 -0.2063 -0.1308
12149DOPC   C4A16127  24.442   4.764  12.361  0.1113 -0.1692 -0.0437
12149DOPC   C1B16128  25.113   6.106  11.933 -0.1576  0.3592 -0.1432
12149DOPC   D2B16129  25.317   6.093  12.375  0.2039 -0.3112 -0.2758
12149DOPC   C3B16130  25.410   5.835  12.799  0.2321 -0.0083 -0.0474
12149DOPC   C4B16131  25.464   5.598  13.269  0.1754 -0.2882 -0.1121
12150DOPC   NC316132  15.965   5.491  11.507  0.0606  0.0551  0.2268
12150DOPC   PO416133  16.347   5.566  11.407  0.1169 -0.3810  0.0416
12150DOPC   GL116134  16.540   5.687  11.822 -0.0888  0.2006  0.2260
12150DOPC   GL216135  16.344   5.815  11.800  0.4982 -0.0031  0.4962
12150DOPC   C1A16136  16.879   5.878  11.983  0.1659 -0.3277 -0.0212
12150DOPC   D2A16137  17.148   6.249  12.260  0.1272  0.2017 -0.0738
12150DOPC   C3A16138  17.214   6.343  12.702 -0.0602 -0.0255  0.0383
12150DOPC   C4A16139  17.650   6.228  12.975  0.1886 -0.2137  0.2218
12150DOPC   C1B16140  16.324   5.980  12.226 -0.3233 -0.2129 -0.3744
12150DOPC   D2B16141  16.370   6.016  12.745 -0.0919 -0.0012  0.4128
12150DOPC   C3B16142  16.747   6.001  13.022  0.1115 -0.0370  0.3668
12150DOPC   C4B16143  17.075   6.015  13.444  0.0170 -0.0330 -0.0555
12151DOPC   NC316144   1.417   4.833  10.509  0.0628  0.1338 -0.2902
12151DOPC   PO416145   1.772   5.025  10.346  0.0928  0.1075  0.2251
12151DOPC   GL116146   1.868   4.847  10.654  0.0699  0.0931  0.0504
12151DOPC   GL216147   2.090   4.570  10.582  0.1505  0.3527 -0.1771
12151DOPC   C1A16148   1.758   4.868  11.065 -0.1061 -0.2825  0.0276
12151DOPC   D2A16149   1.592   4.721  11.511  0.5203  0.1083 -0.0966
12151DOPC   C3A16150   1.536   4.871  12.005 -0.2820  0.0228 -0.1952
12151DOPC   C4A16151   1.297   4.988  12.404  0.1823  0.2532  0.0707
12151DOPC   C1B16152   1.851   4.379  10.955 -0.3503  0.1450  0.0301
12151DOPC   D2B16153   1.696   4.136  11.333  0.0071  0.0056 -0.1429
12151DOPC   C3B16154   1.717   4.177  11.801 -0.0809 -0.2103 -0.4299
12151DOPC   C4B16155   1.935   4.364  12.152  0.1276 -0.0659  0.0883
12152DOPC   NC316156  24.189   0.053  10.748  0.1199 -0.1430  0.1971
12152DOPC   PO416157  24.165   0.371  11.019 -0.0125  0.0117 -0.1090
12152DOPC   GL116158  24.010   0.256  11.363 -0.3055 -0.1625 -0.2032
12152DOPC   GL216159  24.139   0.125  11.490 -0.0656  0.5048 -0.0072
12152DOPC   C1A16160  23.899   0.464  11.740  0.0355  0.3198 -0.0940
12152DOPC   D2A16161  24.010   0.648  12.163  0.0880  0.0869 -0.0526
12152DOPC   C3A16162  24.094   0.557  12.623  0.0546 -0.0568  0.1651
12152DOPC   C4A16163  24.060   0.511  13.122  0.0138  0.1005 -0.3429
12152DOPC   C1B16164  24.318   0.191  11.802  0.1142  0.3675 -0.0963
12152DOPC   D2B16165  24.413   0.369  12.284 -0.0797  0.1082 -0.1583
12152DOPC   C3B16166  24.572   0.772  12.444 -0.1454  0.0836  0.4563
12152DOPC   C4B16167  24.611   1.196  12.588  0.0830 -0.1439  0.2307
12153DOPC   NC316168  21.181   4.646  11.506  0.0638  0.0214  0.0512
12153DOPC   PO416169  21.452   4.373  11.406  0.2743 -0.1412  0.0883
12153DOPC   GL116170  21.524   4.115  11.767  0.0586 -0.1978 -0.0360
12153DOPC   GL216171  21.326   4.219  11.916  0.1005 -0.1638 -0.1288
12153DOPC   C1A16172  21.879   4.043  12.074 -0.0341 -0.0581  0.2958
12153DOPC   D2A16173  22.250   3.875  12.306 -0.0568 -0.1754  0.2402
12153DOPC   C3A16174  22.347   3.662  12.695  0.1704  0.2131  0.0193
12153DOPC   C4A16175  22.347   3.973  13.118  0.0488 -0.1689  0.1065
12153DOPC   C1B16176  20.925   4.053  12.106  0.0875 -0.1168  0.3377
12153DOPC   D2B16177  20.525   4.211  12.350 -0.1921 -0.1535  0.0611
12153DOPC   C3B16178  20.613   4.235  12.843  0.3269 -0.0954  0.0354
12153DOPC   C4B16179  20.713   4.375  13.318 -0.0292  0.4303  0.2434
12154DOPC   NC316180  10.321   7.054  11.050 -0.1291 -0.0553  0.0111
12154DOPC   PO416181   9.946   7.140  11.154  0.2012 -0.0720 -0.2000
12154DOPC   GL116182   9.809   7.364  11.544 -0.1431 -0.2548 -0.3647
12154DOPC   GL216183  10.113   7.243  11.605  0.0614  0.0082 -0.1071
12154DOPC   C1A16184   9.630   7.463  11.896  0.1119 -0.1613 -0.0233
12154DOPC   D2A16185   9.694   7.556  12.387  0.1362 -0.1275 -0.0669
12154DOPC   C3A16186   9.361   7.473  12.665  0.5149 -0.1069  0.1350
12154DOPC   C4A16187   8.995   7.439  12.966 -0.0324 -0.1278 -0.1711
12154DOPC   C1B16188  10.259   7.307  12.031  0.2058  0.0382 -0.1471
12154DOPC   D2B16189  10.131   7.394  12.500 -0.2574 -0.1571 -0.3128
12154DOPC   C3B16190  10.007   7.629  12.828 -0.2581 -0.1098 -0.2305
12154DOPC   C4B16191  10.219   7.595  13.301 -0.3466  0.0226 -0.0583
12155DOPC   NC316192  16.993   7.237  11.163 -0.2027  0.5047 -0.1457
12155DOPC   PO416193  16.908   7.126  11.498  0.0705 -0.0247  0.1485
12155DOPC   GL116194  17.057   7.219  11.904  0.1387 -0.2339  0.7594
12155DOPC   GL216195  17.269   7.035  11.818 -0.2746 -0.1154 -0.0093
12155DOPC   C1A16196  16.980   7.419  12.310 -0.1229  0.1262  0.1610
12155DOPC   D2A16197  17.097   7.607  12.834 -0.0821 -0.0866  0.5199
12155DOPC   C3A16198  16.667   7.615  12.628  0.3901 -0.3232 -0.1750
12155DOPC   C4A16199  16.513   8.033  12.415  0.4293  0.0219 -0.0839
12155DOPC   C1B16200  17.565   7.073  12.179  0.0658  0.4462 -0.2506
12155DOPC   D2B16201  17.847   6.983  12.617  0.0948 -0.1161  0.0888
12155DOPC   C3B16202  17.599   6.703  12.865 -0.2790  0.1089  0.2484
12155DOPC   C4B16203  17.486   6.836  13.318  0.0696  0.2342 -0.1618
12156DOPC   NC316204  17.503   3.341  11.017 -0.2427  0.1033 -0.1105
12156DOPC   PO416205  17.472   3.081  11.326  0.1154  0.0079 -0.0277
12156DOPC   GL116206  17.672   3.089  11.743 -0.0248  0.1185 -0.0591
12156DOPC   GL216207  17.372   3.071  11.783  0.2754  0.1472 -0.0478
12156DOPC   C1A16208  17.745   2.811  12.071  0.3441 -0.0729  0.2021
12156DOPC   D2A16209  17.835   2.427  12.439  0.4603 -0.1833 -0.0821
12156DOPC   C3A16210  17.568   2.347  12.900  0.2955  0.1507 -0.3186
12156DOPC   C4A16211  17.567   2.522  13.353  0.3712  0.1491 -0.0322
12156DOPC   C1B16212  17.273   3.152  12.246 -0.1553  0.1581 -0.4542
12156DOPC   D2B16213  17.354   3.107  12.771  0.3392 -0.0275 -0.0821
12156DOPC   C3B16214  17.725   2.883  12.930  0.1897  0.0274  0.1558
12156DOPC   C4B16215  18.106   2.562  13.051  0.0027 -0.0853  0.0460
12157DOPC   NC316216  31.008   0.925  10.437 -0.0480 -0.1598  0.2484
12157DOPC   PO416217  30.835   1.260  10.459 -0.0713 -0.0469  0.2771
12157DOPC   GL116218  30.679   1.278  10.837 -0.4244  0.1045 -0.0170
12157DOPC   GL216219  30.905   1.090  10.865  0.1953  0.1331 -0.0243
12157DOPC   C1A16220  30.928   1.496  11.160 -0.1809 -0.1542 -0.0674
12157DOPC   D2A16221  31.254   1.711  11.443  0.0382  0.1175 -0.0069
12157DOPC   C3A16222  31.217   1.801  11.940  0.0389 -0.4290 -0.2214
12157DOPC   C4A16223  31.407   1.635  12.405 -0.0431 -0.1508 -0.3209
12157DOPC   C1B16224  30.955   0.950  11.317  0.1617  0.0221  0.1197
12157DOPC   D2B16225  31.071   0.978  11.770 -0.1400  0.0156  0.1958
12157DOPC   C3B16226  30.833   1.066  12.137  0.3162 -0.2444  0.1735
12157DOPC   C4B16227  30.877   0.967  12.632 -0.1899 -0.0902  0.0841
12158DOPC   NC316228   0.927   0.739  10.603 -0.2524  0.2439  0.2843
12158DOPC   PO416229   0.691   0.435  10.584 -0.1371  0.0152 -0.2419
12158DOPC   GL116230   0.830   0.343  10.933  0.1326 -0.0819 -0.0721
12158DOPC   GL216231   0.780   0.649  11.084 -0.3486  0.5007 -0.0931
12158DOPC   C1A16232   1.119   0.033  11.100 -0.1273 -0.3454  0.2541
12158DOPC   D2A16233   1.260  -0.331  11.282 -0.0727  0.0470  0.3426
12158DOPC   C3A16234   1.408  -0.311  11.712 -0.1982  0.1471  0.1304
12158DOPC   C4A16235   1.518  -0.048  12.137 -0.0231  0.0666 -0.2029
12158DOPC   C1B16236   0.902   0.406  11.402 -0.2994  0.3155 -0.2107
12158DOPC   D2B16237   1.040   0.061  11.703 -0.0497 -0.2119  0.1841
12158DOPC   C3B16238   0.783  -0.333  11.520  0.1546 -0.1344 -0.0746
12158DOPC   C4B16239   0.419  -0.538  11.303  0.1219  0.0732  0.0002
12159DOPC   NC316240   0.404   3.048  10.075 -0.0471  0.1424  0.1737
12159DOPC   PO416241   0.726   2.825  10.102  0.0179  0.0051 -0.1116
12159DOPC   GL116242   0.822   2.941  10.591 -0.0251  0.0299  0.1834
12159DOPC   GL216243   0.495   2.931  10.523  0.2351  0.3520 -0.3849
12159DOPC   C1A16244   0.996   2.676  10.953  0.1176  0.2239 -0.0448
12159DOPC   D2A16245   1.298   2.303  11.105  0.1741 -0.0280  0.0073
12159DOPC   C3A16246   1.191   2.151  11.530  0.0461  0.1884  0.0315
12159DOPC   C4A16247   1.255   2.111  11.958  0.0916  0.2950 -0.1564
12159DOPC   C1B16248   0.468   2.869  10.964  0.0109  0.0395 -0.1205
12159DOPC   D2B16249   0.256   2.974  11.383 -0.1415 -0.2830  0.1379
12159DOPC   C3B16250   0.439   3.330  11.623 -0.2450 -0.1221  0.2571
12159DOPC   C4B16251   0.581   3.762  11.830 -0.0126 -0.1339  0.2755
12160DOPC   NC316252  30.573   7.018  10.167 -0.1944  0.0867  0.0992
12160DOPC   PO416253  30.512   6.653  10.274 -0.0613 -0.1663 -0.4327
12160DOPC   GL116254  30.462   6.829  10.711  0.0701  0.3098  0.1681
12160DOPC   GL216255  30.258   7.003  10.583  0.0851  0.0934  0.2897
12160DOPC   C1A16256  30.403   6.968  11.152 -0.2258  0.0511  0.1263
12160DOPC   D2A16257  30.232   6.936  11.584  0.0347 -0.0026 -0.2669
12160DOPC   C3A16258  30.391   6.944  12.006 -0.0706 -0.2143 -0.1472
12160DOPC   C4A16259  30.580   7.181  12.479  0.1556  0.0663  0.2790
12160DOPC   C1B16260  29.977   7.031  10.878  0.0456  0.0240 -0.1844
12160DOPC   D2B16261  29.820   6.784  11.342  0.2668 -0.1960  0.1339
12160DOPC   C3B16262  29.456   6.886  11.627  0.2179  0.2197  0.1272
12160DOPC   C4B16263  29.127   7.111  11.908  0.1282  0.0411  0.1191
12161DOPC   NC316264  13.801   5.039  11.188 -0.3215  0.2308 -0.0982
12161DOPC   PO416265  13.467   5.181  11.261 -0.1408  0.1625  0.1084
12161DOPC   GL116266  13.293   5.380  11.530 -0.0396  0.5059  0.2027
12161DOPC   GL216267  13.043   5.171  11.668 -0.0029 -0.1254  0.1029
12161DOPC   C1A16268  13.445   5.640  11.831 -0.1158 -0.3633  0.0228
12161DOPC   D2A16269  13.627   5.810  12.241 -0.0766  0.1600 -0.4329
12161DOPC   C3A16270  13.818   5.731  12.732  0.3533  0.1740 -0.0723
12161DOPC   C4A16271  13.817   5.578  13.162 -0.1840  0.1361  0.2144
12161DOPC   C1B16272  12.873   5.192  12.032 -0.0737  0.2231 -0.0272
12161DOPC   D2B16273  12.718   5.147  12.517  0.4153 -0.0967  0.3236
12161DOPC   C3B16274  12.680   5.096  13.002  0.1421 -0.1846  0.0176
12161DOPC   C4B16275  12.655   4.742  13.394  0.0560  0.2518  0.0695
12162DOPC   NC316276   0.377   7.242  10.019  0.0365 -0.5330  0.4088
12162DOPC   PO416277   0.680   7.469  10.158  0.0379 -0.4244  0.3545
12162DOPC   GL116278   0.678   7.388  10.567  0.0619  0.0511  0.2408
12162DOPC   GL216279   0.497   7.101  10.504 -0.0124  0.0293 -0.1823
12162DOPC   C1A16280   0.705   7.551  10.972 -0.0814  0.0560 -0.0223
12162DOPC   D2A16281   0.467   7.841  11.278  0.1745 -0.0239  0.0317
12162DOPC   C3A16282   0.547   7.960  11.760  0.1807  0.1325  0.1266
12162DOPC   C4A16283   0.476   7.911  12.193 -0.0243  0.1280 -0.0068
12162DOPC   C1B16284   0.217   6.991  10.857 -0.0124  0.2321  0.0950
12162DOPC   D2B16285   0.088   6.903  11.367  0.0679 -0.0501 -0.0864
12162DOPC   C3B16286   0.160   7.079  11.767 -0.0287  0.3584 -0.3001
12162DOPC   C4B16287   0.095   7.331  12.220 -0.1082  0.0454  0.0983
12163DOPC   NC316288   8.310   6.627  10.746 -0.0758 -0.1618  0.0362
12163DOPC   PO416289   7.984   6.409  10.852 -0.0682 -0.2274  0.2719
12163DOPC   GL116290   7.778   6.523  11.218 -0.6425 -0.0388 -0.2408
12163DOPC   GL216291   7.954   6.283  11.333  0.1640 -0.1317  0.1159
12163DOPC   C1A16292   7.745   6.851  11.485  0.0950 -0.0527  0.1194
12163DOPC   D2A16293   7.356   7.169  11.636  0.0074  0.0320 -0.1125
12163DOPC   C3A16294   7.290   7.274  12.110  0.2554 -0.0551  0.3580
12163DOPC   C4A16295   7.004   7.259  12.513  0.0854  0.0582 -0.0061
12163DOPC   C1B16296   7.803   6.346  11.761 -0.1270  0.0549  0.0374
12163DOPC   D2B16297   7.766   6.352  12.272  0.2056 -0.2534 -0.2982
12163DOPC   C3B16298   8.105   6.538  12.478 -0.0955 -0.1507 -0.4407
12163DOPC   C4B16299   8.519   6.773  12.599  0.0832  0.0921 -0.0961
12164DOPC   NC316300  14.767   5.822  11.652 -0.0590 -0.1598 -0.0099
12164DOPC   PO416301  14.567   5.583  11.451 -0.2152  0.3465  0.0834
12164DOPC   GL116302  14.195   5.695  11.524  0.0382  0.1694 -0.3678
12164DOPC   GL216303  14.347   5.651  11.856 -0.0136  0.1197 -0.0073
12164DOPC   C1A16304  13.785   6.083  11.596 -0.0225  0.1959  0.2626
12164DOPC   D2A16305  13.482   6.236  11.991 -0.0415 -0.4232 -0.2192
12164DOPC   C3A16306  13.168   6.476  12.196 -0.1719  0.1272  0.1819
12164DOPC   C4A16307  13.017   6.813  12.451  0.0693 -0.4266  0.1426
12164DOPC   C1B16308  14.495   6.032  12.038  0.1682  0.0702  0.2847
12164DOPC   D2B16309  14.485   6.129  12.540 -0.0700  0.2879 -0.1256
12164DOPC   C3B16310  14.365   5.967  12.939  0.3187 -0.0147  0.1629
12164DOPC   C4B16311  14.283   5.690  13.293  0.3066 -0.0379  0.1443
12165DOPC   NC316312  29.831   0.026  10.854 -0.0048 -0.2139 -0.0144
12165DOPC   PO416313  29.938   0.368  10.745  0.2904 -0.0386  0.1419
12165DOPC   GL116314  30.093   0.589  11.103  0.1468 -0.0553 -0.0356
12165DOPC   GL216315  30.136   0.371  11.240 -0.3367 -0.0634  0.4575
12165DOPC   C1A16316  30.098   0.903  11.352  0.2160 -0.0369  0.1093
12165DOPC   D2A16317  29.973   1.350  11.604  0.0811 -0.0665 -0.0007
12165DOPC   C3A16318  29.916   1.556  12.027  0.0713  0.0425  0.3388
12165DOPC   C4A16319  29.913   1.380  12.530  0.0062 -0.2333  0.2737
12165DOPC   C1B16320  30.365   0.265  11.648  0.0797 -0.2960  0.0299
12165DOPC   D2B16321  30.364   0.014  12.115 -0.1423  0.0378  0.1466
12165DOPC   C3B16322  30.168  -0.298  12.496 -0.2352 -0.3052  0.1173
12165DOPC   C4B16323  29.715  -0.415  12.654  0.1145  0.0922 -0.2172
12166DOPC   NC316324  24.567   0.810  11.170  0.0886 -0.2174  0.0005
12166DOPC   PO416325  24.924   0.669  11.274  0.0477  0.1467  0.2013
12166DOPC   GL116326  24.886   0.437  11.631 -0.0863  0.3139  0.2381
12166DOPC   GL216327  24.574   0.370  11.497  0.4582 -0.0308 -0.0336
12166DOPC   C1A16328  24.802   0.300  12.031 -0.1797 -0.0717 -0.0673
12166DOPC   D2A16329  24.683  -0.047  12.320  0.0934  0.0471 -0.1468
12166DOPC   C3A16330  24.663  -0.133  12.744  0.0948 -0.1456  0.3510
12166DOPC   C4A16331  24.379  -0.276  13.164 -0.0736  0.0912  0.0595
12166DOPC   C1B16332  24.318   0.671  11.598  0.1998 -0.1478  0.2033
12166DOPC   D2B16333  24.099   1.052  11.897 -0.1290 -0.0310 -0.2402
12166DOPC   C3B16334  24.223   1.179  12.296  0.0946 -0.0262 -0.0710
12166DOPC   C4B16335  24.175   1.020  12.741 -0.0783 -0.2112  0.2135
12167DOPC   NC316336  19.346   1.199  11.248  0.1207 -0.1059  0.1462
12167DOPC   PO416337  19.334   0.874  11.491  0.1353 -0.0496  0.2109
12167DOPC   GL116338  19.498   0.806  11.816  0.1548 -0.2377  0.2699
12167DOPC   GL216339  19.235   0.587  11.867  0.3145 -0.1766 -0.0298
12167DOPC   C1A16340  19.738   0.997  12.098 -0.0252 -0.0408 -0.2170
12167DOPC   D2A16341  19.838   1.219  12.563 -0.1487  0.1722  0.4141
12167DOPC   C3A16342  19.496   1.261  12.880  0.0506 -0.0609  0.0715
12167DOPC   C4A16343  19.107   1.287  13.149 -0.2128  0.0958  0.1892
12167DOPC   C1B16344  19.025   0.703  12.255  0.0398 -0.2390  0.0734
12167DOPC   D2B16345  18.563   0.848  12.407  0.0394  0.1487  0.0481
12167DOPC   C3B16346  18.325   0.669  12.796 -0.0275  0.1603  0.2306
12167DOPC   C4B16347  18.575   0.296  12.987 -0.0955  0.1585  0.1474
12168DOPC   NC316348   3.786   3.942  10.569 -0.1762 -0.1209 -0.0955
12168DOPC   PO416349   3.788   3.551  10.674 -0.0721  0.0467 -0.1416
12168DOPC   GL116350   3.977   3.446  11.066  0.0697  0.1901  0.1524
12168DOPC   GL216351   3.787   3.585  11.267 -0.2136  0.3762 -0.0105
12168DOPC   C1A16352   4.357   3.352  11.314  0.0933 -0.0766 -0.2264
12168DOPC   D2A16353   4.374   3.495  11.788 -0.1054  0.0243 -0.0833
12168DOPC   C3A16354   4.137   3.495  12.229 -0.2275 -0.1085 -0.0480
12168DOPC   C4A16355   3.968   3.665  12.654 -0.0269 -0.0559 -0.0077
12168DOPC   C1B16356   3.532   3.360  11.606  0.1875  0.1930  0.2259
12168DOPC   D2B16357   3.491   3.236  12.074  0.4199  0.2866  0.2052
12168DOPC   C3B16358   3.564   3.192  12.553 -0.0501  0.1513  0.0468
12168DOPC   C4B16359   3.823   3.305  12.949  0.1487  0.2111 -0.0274
12169DOPC   NC316360  13.801   4.579  10.638  0.0060  0.3485 -0.0272
12169DOPC   PO416361  13.566   4.528  10.948  0.1767  0.1836 -0.2541
12169DOPC   GL116362  13.650   4.661  11.328  0.0956 -0.0879 -0.2498
12169DOPC   GL216363  13.740   4.383  11.425  0.1123  0.0792  0.2437
12169DOPC   C1A16364  13.758   4.791  11.725 -0.2460  0.1674 -0.5630
12169DOPC   D2A16365  13.866   4.899  12.218  0.1727  0.0787  0.3093
12169DOPC   C3A16366  14.121   5.177  12.484  0.1434  0.1501  0.0471
12169DOPC   C4A16367  14.260   5.407  12.851 -0.0819  0.1849  0.1907
12169DOPC   C1B16368  13.632   4.356  11.842 -0.1354  0.1165  0.2757
12169DOPC   D2B16369  13.500   4.286  12.340 -0.1084 -0.1545 -0.1722
12169DOPC   C3B16370  13.274   4.469  12.650 -0.3654 -0.2025 -0.2876
12169DOPC   C4B16371  12.864   4.637  12.899 -0.0824 -0.0931 -0.1236
12170DOPC   NC316372   1.600   7.857  10.123 -0.1022  0.0538 -0.0227
12170DOPC   PO416373   1.579   8.232  10.264  0.1832 -0.0849 -0.0004
12170DOPC   GL116374   1.586   8.337  10.697  0.2927  0.1675  0.1908
12170DOPC   GL216375   1.487   8.592  10.702  0.1890 -0.0633  0.3984
12170DOPC   C1A16376   1.783   8.445  11.051 -0.1431 -0.0198  0.0167
12170DOPC   D2A16377   2.011   8.453  11.466  0.0497  0.1315 -0.0218
12170DOPC   C3A16378   1.732   8.522  11.859 -0.1811  0.0930 -0.0766
12170DOPC   C4A16379   1.618   8.516  12.349 -0.0216 -0.0359 -0.2063
12170DOPC   C1B16380   1.467   8.826  11.079 -0.0896  0.0860 -0.2011
12170DOPC   D2B16381   1.522   8.939  11.561 -0.1398  0.0305  0.0092
12170DOPC   C3B16382   1.354   8.782  11.991  0.0164 -0.0784  0.2397
12170DOPC   C4B16383   1.081   8.520  12.377 -0.0867 -0.1396  0.0377
12171DOPC   NC316384  17.276   0.301  11.035 -0.0851  0.1253 -0.0878
12171DOPC   PO416385  17.465   0.289  11.358  0.4220 -0.0206  0.2683
12171DOPC   GL116386  17.418   0.210  11.719 -0.2011  0.1072  0.0819
12171DOPC   GL216387  17.219  -0.075  11.678  0.2771 -0.2201  0.0270
12171DOPC   C1A16388  17.149   0.487  11.982 -0.0235 -0.2930 -0.1917
12171DOPC   D2A16389  16.919   0.682  12.399  0.3313  0.1331 -0.2447
12171DOPC   C3A16390  16.798   0.496  12.807 -0.1296  0.0952  0.0341
12171DOPC   C4A16391  16.920   0.236  13.180  0.0398  0.2511 -0.1613
12171DOPC   C1B16392  17.335  -0.260  11.986 -0.1775  0.0835 -0.1032
12171DOPC   D2B16393  17.542  -0.387  12.478 -0.2025  0.1944 -0.2762
12171DOPC   C3B16394  17.329  -0.756  12.656  0.2092  0.2677 -0.2447
12171DOPC   C4B16395  17.076  -1.039  13.014 -0.0218  0.0947 -0.0584
12172DOPC   NC316396  12.455   0.951  11.296  0.0032  0.0416 -0.0127
12172DOPC   PO416397  12.105   1.020  11.331  0.1434 -0.0774 -0.0433
12172DOPC   GL116398  12.026   1.084  11.706  0.1978 -0.0333 -0.0307
12172DOPC   GL216399  11.856   1.293  11.653  0.4012 -0.0273 -0.3572
12172DOPC   C1A16400  12.413   1.020  11.943  0.0699 -0.1716 -0.4402
12172DOPC   D2A16401  12.713   0.872  12.326  0.0158  0.0463  0.2155
12172DOPC   C3A16402  12.706   0.939  12.736 -0.2229 -0.2128  0.0008
12172DOPC   C4A16403  12.618   0.870  13.225 -0.1453 -0.1182  0.0386
12172DOPC   C1B16404  11.958   1.270  12.128 -0.1962  0.0097 -0.2233
12172DOPC   D2B16405  12.315   1.165  12.512 -0.3896 -0.1418 -0.0933
12172DOPC   C3B16406  12.407   1.280  12.936 -0.1179  0.1577  0.3993
12172DOPC   C4B16407  12.759   1.436  13.267  0.3215  0.1398 -0.0136
12173DOPC   NC316408  23.233   2.163  10.730  0.0710 -0.2956 -0.1826
12173DOPC   PO416409  23.387   1.824  10.837 -0.2561  0.2554 -0.1250
12173DOPC   GL116410  23.409   1.589  11.205  0.0373 -0.0146 -0.2575
12173DOPC   GL216411  23.679   1.643  11.312 -0.3491 -0.0407 -0.3308
12173DOPC   C1A16412  23.226   1.417  11.653 -0.0668 -0.2911 -0.2485
12173DOPC   D2A16413  23.008   1.482  12.126  0.0685 -0.3751 -0.1882
12173DOPC   C3A16414  23.233   1.503  12.565  0.0768  0.0568  0.1225
12173DOPC   C4A16415  23.508   1.446  13.027  0.2132 -0.0968 -0.0533
12173DOPC   C1B16416  23.735   1.396  11.595 -0.3008 -0.1900 -0.0647
12173DOPC   D2B16417  23.675   1.406  12.127 -0.0834 -0.1019  0.0017
12173DOPC   C3B16418  23.664   1.072  12.450  0.1022  0.1345 -0.0704
12173DOPC   C4B16419  23.745   0.880  12.896 -0.0687 -0.1445  0.1048
12174DOPC   NC316420  29.565   5.122  10.197 -0.1155 -0.1486  0.3570
12174DOPC   PO416421  29.769   4.860  10.422 -0.2088  0.1974 -0.2473
12174DOPC   GL116422  29.858   4.627  10.786  0.1481 -0.0222 -0.1257
12174DOPC   GL216423  29.609   4.488  10.712  0.2401 -0.0340 -0.0717
12174DOPC   C1A16424  29.978   4.653  11.215  0.0491  0.3009 -0.2322
12174DOPC   D2A16425  29.995   4.647  11.706 -0.0365 -0.1896 -0.1347
12174DOPC   C3A16426  29.849   4.921  12.075 -0.0754 -0.0042  0.1424
12174DOPC   C4A16427  29.814   5.049  12.492 -0.3469 -0.1157  0.1103
12174DOPC   C1B16428  29.385   4.298  11.021  0.1366 -0.2132 -0.2010
12174DOPC   D2B16429  29.222   4.208  11.442  0.2114  0.0302 -0.0339
12174DOPC   C3B16430  29.013   4.243  11.864 -0.2694 -0.1427  0.0853
12174DOPC   C4B16431  28.931   3.979  12.356 -0.0238  0.0774  0.1067
12175DOPC   NC316432   5.239   0.217  10.780 -0.0769  0.0855 -0.1396
12175DOPC   PO416433   4.866   0.075  10.729 -0.1560 -0.0197  0.0544
12175DOPC   GL116434   4.865   0.014  11.160 -0.1782 -0.0580 -0.0334
12175DOPC   GL216435   4.559   0.044  11.090 -0.3669 -0.0308 -0.0985
12175DOPC   C1A16436   4.897   0.129  11.569 -0.0015 -0.2155  0.0332
12175DOPC   D2A16437   4.962   0.332  12.013  0.0215  0.1503 -0.2230
12175DOPC   C3A16438   4.840   0.692  12.206 -0.1172  0.1492  0.0021
12175DOPC   C4A16439   4.721   0.819  12.727  0.0813  0.1035 -0.0871
12175DOPC   C1B16440   4.339   0.050  11.434  0.1580 -0.0236  0.1440
12175DOPC   D2B16441   4.106  -0.039  11.856  0.3113  0.0609  0.0276
12175DOPC   C3B16442   3.964   0.241  12.250 -0.0442 -0.0518 -0.3467
12175DOPC   C4B16443   3.728   0.343  12.700  0.3954  0.2968 -0.0667
12176DOPC   NC316444   8.662   2.850  11.031 -0.0263 -0.0858  0.0324
12176DOPC   PO416445   9.013   2.976  10.895 -0.0456 -0.0651 -0.0595
12176DOPC   GL116446   9.177   3.198  11.136  0.1083 -0.0033 -0.2838
12176DOPC   GL216447   9.199   3.029  11.335 -0.0964 -0.0092 -0.2205
12176DOPC   C1A16448   9.155   3.633  11.300  0.2828 -0.1335 -0.0696
12176DOPC   D2A16449   9.307   3.995  11.567  0.3324  0.1340 -0.0347
12176DOPC   C3A16450   9.427   4.015  12.015  0.0440  0.2245 -0.0901
12176DOPC   C4A16451   9.363   3.692  12.383 -0.5298  0.1018  0.1238
12176DOPC   C1B16452   9.045   3.063  11.751 -0.0167 -0.2480  0.2949
12176DOPC   D2B16453   9.023   3.240  12.224  0.0466  0.1800 -0.0142
12176DOPC   C3B16454   9.128   2.981  12.534 -0.1562  0.1461 -0.0417
12176DOPC   C4B16455   9.436   2.642  12.690 -0.2651  0.2409 -0.0679
12177DOPC   NC316456   8.685   6.681  11.155  0.0237 -0.1668  0.1956
12177DOPC   PO416457   8.627   6.952  10.894  0.0208 -0.1152  0.0624
12177DOPC   GL116458   8.597   7.141  11.271  0.2931  0.1675 -0.2206
12177DOPC   GL216459   8.346   7.051  11.316 -0.2128  0.0379 -0.1372
12177DOPC   C1A16460   8.756   7.259  11.714 -0.0630  0.0448  0.2172
12177DOPC   D2A16461   8.913   7.039  12.136 -0.1597  0.0090 -0.1065
12177DOPC   C3A16462   8.976   7.001  12.606 -0.4120 -0.0266 -0.2306
12177DOPC   C4A16463   9.156   6.723  12.982 -0.2056  0.1107  0.1217
12177DOPC   C1B16464   8.255   7.177  11.696 -0.1973  0.1539  0.3075
12177DOPC   D2B16465   8.406   7.153  12.154 -0.0314  0.0159 -0.0471
12177DOPC   C3B16466   8.627   7.549  12.178  0.1386 -0.3771 -0.0397
12177DOPC   C4B16467   8.899   7.933  11.999  0.0681  0.2446 -0.2086
12178DOPC   NC316468  10.950   6.248  11.072  0.0175 -0.1708  0.2237
12178DOPC   PO416469  11.323   6.167  11.207 -0.0833  0.2897 -0.1264
12178DOPC   GL116470  11.430   6.297  11.554 -0.0539  0.1044  0.0569
12178DOPC   GL216471  11.340   5.983  11.600 -0.3232 -0.2024 -0.0747
12178DOPC   C1A16472  11.440   6.428  11.972  0.0198 -0.0691  0.0057
12178DOPC   D2A16473  11.796   6.737  12.156  0.3190  0.1428  0.0264
12178DOPC   C3A16474  12.019   6.816  12.563  0.0831  0.1880  0.1182
12178DOPC   C4A16475  12.133   6.585  12.942  0.1442  0.0180 -0.2398
12178DOPC   C1B16476  11.093   5.675  11.828 -0.2217 -0.0947 -0.0170
12178DOPC   D2B16477  10.715   5.353  12.010 -0.2280  0.3035 -0.1348
12178DOPC   C3B16478  10.428   5.462  12.361 -0.1627  0.1766  0.0086
12178DOPC   C4B16479  10.351   5.468  12.823 -0.2432 -0.0651 -0.0440
12179DOPC   NC316480   0.548   1.584  10.450  0.1577 -0.1045 -0.1676
12179DOPC   PO416481   0.784   1.275  10.575 -0.0361  0.2057  0.2756
12179DOPC   GL116482   0.709   1.175  10.996 -0.1875 -0.1336 -0.0670
12179DOPC   GL216483   0.965   1.009  10.957  0.2353  0.0093  0.2146
12179DOPC   C1A16484   0.413   0.971  11.255  0.3108  0.0749 -0.0987
12179DOPC   D2A16485   0.516   1.191  11.681  0.2104 -0.2179  0.1239
12179DOPC   C3A16486   0.687   1.446  12.026 -0.1694 -0.2252  0.2249
12179DOPC   C4A16487   0.854   1.765  12.281  0.2573 -0.0838 -0.1850
12179DOPC   C1B16488   0.968   0.973  11.373 -0.0165  0.2849  0.0280
12179DOPC   D2B16489   1.035   1.190  11.820 -0.0084 -0.0673 -0.2287
12179DOPC   C3B16490   1.122   1.319  12.346  0.4241  0.2010  0.2061
12179DOPC   C4B16491   1.383   1.132  12.731  0.1632  0.0688  0.3390
12180DOPC   NC316492   8.788   1.461  10.351 -0.1424  0.1311 -0.2596
12180DOPC   PO416493   9.028   1.479  10.688 -0.1850  0.1182  0.1184
12180DOPC   GL116494   9.084   1.426  11.087 -0.0974  0.0074  0.0636
12180DOPC   GL216495   8.942   1.600  11.205 -0.0246  0.0923 -0.0723
12180DOPC   C1A16496   9.147   1.078  11.382  0.0385 -0.4060 -0.1429
12180DOPC   D2A16497   9.210   0.698  11.662 -0.1249  0.2766  0.2719
12180DOPC   C3A16498   9.414   0.887  12.002  0.2145 -0.1767 -0.0828
12180DOPC   C4A16499   9.296   1.127  12.430 -0.0657 -0.0692 -0.1569
12180DOPC   C1B16500   8.765   1.507  11.608  0.2501  0.0257  0.1369
12180DOPC   D2B16501   8.367   1.387  11.913 -0.1803  0.2869 -0.1010
12180DOPC   C3B16502   8.213   1.563  12.280 -0.2896 -0.0907 -0.1060
12180DOPC   C4B16503   8.321   1.815  12.742  0.1419  0.2136 -0.2112
12181DOPC   NC316504  14.258   6.135  11.591  0.0153 -0.1014  0.3232
12181DOPC   PO416505  14.525   6.098  11.281  0.1769 -0.1150  0.1964
12181DOPC   GL116506  14.774   6.300  11.609  0.1827  0.1620 -0.1876
12181DOPC   GL216507  14.616   6.558  11.646  0.0543 -0.1758  0.1014
12181DOPC   C1A16508  14.984   6.195  12.009  0.1282  0.0735 -0.0200
12181DOPC   D2A16509  15.020   5.923  12.420 -0.1317  0.0973  0.1612
12181DOPC   C3A16510  14.720   5.671  12.690 -0.2610 -0.0343  0.0712
12181DOPC   C4A16511  14.783   5.624  13.200  0.2467 -0.1262 -0.1807
12181DOPC   C1B16512  14.377   6.514  12.064  0.1443  0.0362  0.0298
12181DOPC   D2B16513  14.400   6.614  12.519  0.1061 -0.0130  0.1369
12181DOPC   C3B16514  14.381   6.973  12.898 -0.1177  0.0773  0.0764
12181DOPC   C4B16515  14.485   7.104  13.351 -0.0494  0.1497 -0.2749
12182DOPC   NC316516  21.926   1.450  10.829  0.0081  0.1752  0.1621
12182DOPC   PO416517  22.229   1.181  10.975 -0.1010  0.1000 -0.0903
12182DOPC   GL116518  22.349   1.214  11.338  0.3541 -0.3983 -0.0294
12182DOPC   GL216519  22.452   1.470  11.385 -0.3122  0.3123  0.1866
12182DOPC   C1A16520  22.311   0.942  11.753 -0.1405 -0.0408 -0.3070
12182DOPC   D2A16521  22.144   0.849  12.246  0.0106  0.1283  0.0880
12182DOPC   C3A16522  21.922   0.600  12.543 -0.1188 -0.0543 -0.1372
12182DOPC   C4A16523  21.861   0.455  12.993  0.0145  0.1032 -0.1680
12182DOPC   C1B16524  22.303   1.485  11.791  0.0366 -0.2767  0.0691
12182DOPC   D2B16525  22.489   1.339  12.228  0.0072  0.3388 -0.3641
12182DOPC   C3B16526  22.718   1.533  12.572  0.1133  0.0998 -0.0843
12182DOPC   C4B16527  22.966   1.532  13.026 -0.0482 -0.1921 -0.1642
12183DOPC   NC316528   8.573   0.966  10.468 -0.1814  0.1932 -0.0770
12183DOPC   PO416529   8.241   1.024  10.703 -0.0959 -0.1680  0.3319
12183DOPC   GL116530   8.240   1.081  11.076 -0.0042  0.0650 -0.1496
12183DOPC   GL216531   8.227   0.872  11.188 -0.1820 -0.0723  0.0783
12183DOPC   C1A16532   8.310   1.416  11.328  0.2589  0.1308  0.0930
12183DOPC   D2A16533   8.359   1.872  11.454 -0.3267  0.3176 -0.2297
12183DOPC   C3A16534   8.532   1.893  11.834 -0.0401 -0.1378 -0.0153
12183DOPC   C4A16535   8.749   2.004  12.228 -0.1635  0.0319  0.0017
12183DOPC   C1B16536   8.535   0.926  11.444 -0.1530 -0.2932 -0.5037
12183DOPC   D2B16537   8.723   0.885  11.906  0.1292  0.0098 -0.0050
12183DOPC   C3B16538   8.768   1.273  12.245 -0.0260 -0.1221 -0.2127
12183DOPC   C4B16539   8.804   1.584  12.624  0.1080  0.2852  0.0221
12184DOPC   NC316540   6.845   1.793  10.640 -0.0026  0.0156  0.1302
12184DOPC   PO416541   6.584   1.894  10.928 -0.1386  0.1777 -0.2780
12184DOPC   GL116542   6.715   1.831  11.331 -0.0043 -0.1280  0.0475
12184DOPC   GL216543   6.614   1.606  11.274 -0.1665 -0.2029  0.0679
12184DOPC   C1A16544   6.687   1.885  11.777  0.2499 -0.2216 -0.0976
12184DOPC   D2A16545   6.813   2.030  12.249 -0.2085 -0.0638  0.1589
12184DOPC   C3A16546   7.058   1.726  12.511  0.2112  0.1274  0.0355
12184DOPC   C4A16547   7.302   1.302  12.658 -0.0557  0.0191  0.1213
12184DOPC   C1B16548   6.389   1.520  11.627 -0.1062 -0.1362  0.1565
12184DOPC   D2B16549   5.977   1.543  11.933 -0.1731  0.0729  0.0320
12184DOPC   C3B16550   5.863   1.625  12.381  0.1569 -0.2426 -0.0941
12184DOPC   C4B16551   6.008   1.776  12.821 -0.0315 -0.1161 -0.1114
12185DOPC   NC316552  17.401   4.678  11.209 -0.3476  0.1805  0.1774
12185DOPC   PO416553  17.297   4.285  11.244 -0.0350  0.2059  0.0019
12185DOPC   GL116554  17.086   4.032  11.614 -0.1446 -0.3392 -0.1421
12185DOPC   GL216555  17.351   3.908  11.629 -0.2888  0.3909  0.1443
12185DOPC   C1A16556  17.085   4.149  12.028 -0.0927  0.0919 -0.0996
12185DOPC   D2A16557  17.141   4.179  12.535  0.1095  0.2872  0.1501
12185DOPC   C3A16558  17.190   3.854  12.905 -0.1744 -0.1135  0.1138
12185DOPC   C4A16559  17.277   3.434  13.179  0.0255  0.2712  0.0337
12185DOPC   C1B16560  17.344   3.675  12.049 -0.0791 -0.1927  0.1633
12185DOPC   D2B16561  17.024   3.598  12.356  0.0797 -0.2037 -0.0032
12185DOPC   C3B16562  16.975   3.432  12.755 -0.0916  0.2644  0.2133
12185DOPC   C4B16563  16.813   3.213  13.248  0.2931  0.1324  0.2281
12186DOPC   NC316564   7.905   5.310  11.213 -0.1117  0.0757  0.0337
12186DOPC   PO416565   7.856   5.536  10.893 -0.1285 -0.0858  0.1859
12186DOPC   GL116566   7.827   5.871  11.197 -0.0281 -0.0866 -0.3479
12186DOPC   GL216567   8.002   5.730  11.307  0.2249  0.3219 -0.1255
12186DOPC   C1A16568   7.523   6.023  11.436 -0.0236  0.0961  0.1742
12186DOPC   D2A16569   7.142   6.109  11.745  0.0442  0.0360  0.0128
12186DOPC   C3A16570   7.128   5.968  12.234 -0.1075 -0.0556  0.1292
12186DOPC   C4A16571   7.180   6.067  12.733 -0.1255 -0.0032  0.1412
12186DOPC   C1B16572   7.634   5.554  11.593 -0.0447  0.0853 -0.1521
12186DOPC   D2B16573   7.578   5.446  12.061 -0.2327  0.1469 -0.1291
12186DOPC   C3B16574   7.690   5.300  12.514  0.0136 -0.0812 -0.0965
12186DOPC   C4B16575   7.760   5.165  13.000  0.2621 -0.0050 -0.0595
12187DOPC   NC316576  15.019   7.319  11.532 -0.1278 -0.1990  0.1590
12187DOPC   PO416577  15.108   7.679  11.390 -0.3068 -0.0342 -0.0896
12187DOPC   GL116578  14.831   7.826  11.570 -0.3727 -0.2678 -0.3875
12187DOPC   GL216579  14.938   8.080  11.723  0.0995  0.0312  0.2487
12187DOPC   C1A16580  14.547   7.859  11.868 -0.1282 -0.1548  0.0941
12187DOPC   D2A16581  14.455   7.724  12.323 -0.0821 -0.2128  0.0444
12187DOPC   C3A16582  14.669   7.508  12.624  0.1410  0.2853 -0.1080
12187DOPC   C4A16583  14.683   7.460  13.078  0.1197 -0.3770 -0.3815
12187DOPC   C1B16584  14.851   8.182  12.160  0.0489 -0.1221  0.1459
12187DOPC   D2B16585  14.709   8.037  12.579 -0.1464 -0.0361  0.1224
12187DOPC   C3B16586  14.597   8.104  13.052  0.1463 -0.2000  0.0486
12187DOPC   C4B16587  14.561   7.818  13.459  0.0803 -0.1003 -0.1342
12188W        W16588  19.202   0.659   1.288  0.0595 -0.2925  0.2754
12189W        W16589  23.680   3.649  18.509 -0.0743  0.0655  0.2638
12190W        W16590  20.854   4.190   8.642  0.0138 -0.0863  0.0387
12191W        W16591  15.986   6.821  23.284  0.2024  0.0919  0.1118
12192W        W16592  11.369   0.517   8.871  0.2608 -0.0436 -0.1567
12193W        W16593  14.131   5.771  17.768 -0.0436  0.3588 -0.1892
12194W        W16594  13.522   6.592  17.184  0.0801  0.1774 -0.2367
12195W        W16595  24.317   6.435  18.645 -0.2568 -0.3666  0.1894
12196W        W16596   6.320   4.794  15.755 -0.0042  0.0123  0.0622
12197W        W16597   0.491   7.461  15.060  0.3632 -0.0638 -0.0862
12198W        W16598  21.206   2.329  18.309  0.2065  0.0450 -0.1464
12199W        W16599  17.243   5.245   9.907  0.1441 -0.0456 -0.0685
12200W        W16600  10.704   7.149   9.576  0.0673 -0.1707 -0.0617
12201W        W16601  22.000   0.033   9.554  0.0497  0.0824  0.0196
12202W        W16602  10.806   2.666  15.997  0.0071 -0.1353 -0.2934
12203W        W16603  22.309   3.044  18.735  0.2690 -0.0020  0.0109
12204W        W16604  19.748   0.077   2.912  0.0274  0.1848  0.2560
12205W        W16605  29.943   5.736   7.741  0.1803 -0.1069  0.0556
12206W        W16606  27.482   1.391   8.507 -0.1042 -0.1059  0.1453
12207W        W16607  10.167   4.794  22.475 -0.3275 -0.1059 -0.0643
12208W        W16608   1.528   6.065   4.968  0.0664  0.1883 -0.0226
12209W        W16609  26.938   7.211   9.060  0.4552  0.1806 -0.1450
12210W        W16610   2.547   4.680   3.091  0.0907 -0.3124 -0.0723
12211W        W16611   2.429   5.638   7.509  0.0915 -0.1363 -0.1259
12212W        W16612  13.655   7.700   5.051 -0.0230 -0.1138  0.1066
12213W        W16613  17.127   2.272   6.879  0.3585  0.0964  0.3190
12214W        W16614   2.166   7.223   2.683 -0.0287 -0.1001  0.1408
12215W        W16615  20.543   4.498  25.626  0.2141  0.1112 -0.0313
12216W        W16616   3.366   3.031  21.525  0.2079  0.3220 -0.3713
12217W        W16617   3.272   7.231   0.354 -0.0294 -0.1598  0.0197
12218W        W16618  26.098   4.902   6.668 -0.1206  0.3348 -0.0033
12219W        W16619  19.795   3.409   7.388  0.0151  0.1231  0.1189
12220W        W16620   7.440   6.810  20.017 -0.2872 -0.2640 -0.1267
12221W        W16621  24.552   0.240   5.721 -0.1421  0.0870  0.0789
12222W        W16622   6.531   5.959   8.931  0.4665  0.0105 -0.0847
12223W        W16623  19.779   5.356  11.411 -0.0249 -0.1906  0.0239
12224W        W16624   3.997   3.782   0.672 -0.0841  0.1535 -0.0939
12225W        W16625  19.956   6.459  17.548 -0.0651  0.2687  0.1836
12226W        W16626  24.028   4.296  17.229 -0.0400 -0.0266 -0.1931
12227W        W16627  28.599   7.449   0.410  0.3115  0.1965  0.1498
12228W        W16628   2.600   2.650  24.580 -0.1021 -0.3513  0.0564
12229W        W16629  31.125   0.855   5.726 -0.1283  0.2818  0.2052
12230W        W16630  12.217   3.395   0.081 -0.2827 -0.0142 -0.0779
12231W        W16631   3.757   5.607   6.839  0.0985 -0.2291 -0.1952
12232W        W16632  10.862   6.587   5.812 -0.0812  0.2683  0.1751
12233W        W16633  26.892   0.886   8.904  0.1878 -0.0832 -0.0273
12234W        W16634  21.597   0.214   8.192 -0.1318 -0.3127 -0.0227
12235W        W16635  13.734   2.670  18.497  0.0977 -0.0725  0.0036
12236W        W16636  18.334   5.911   3.620 -0.0623  0.1668 -0.0329
12237W        W16637   4.831   4.611   8.587  0.4166 -0.1782  0.1648
12238W        W16638  28.425   7.115   2.291  0.0176 -0.2813 -0.1506
12239W        W16639   4.855   2.864   9.383  0.1185  0.1532 -0.0318
12240W        W16640  15.357   1.247   1.952  0.0382  0.3433  0.3655
12241W        W16641   5.462   5.363   5.781 -0.1706 -0.2227  0.2131
12242W        W16642  13.627   0.563   3.987  0.0667  0.1595  0.0569
12243W        W16643   1.543   3.148  19.531  0.0432  0.2240  0.1009
12244W        W16644  25.985   2.308   4.691 -0.1223  0.1912 -0.4227
12245W        W16645  11.994   3.910  24.415 -0.0272 -0.3455  0.2543
12246W        W16646  23.750   0.672   0.093  0.2935  0.1552 -0.1792
12247W        W16647  12.746   5.817   8.615  0.0091  0.0363  0.0349
12248W        W16648  14.643   1.231  22.444 -0.2016  0.0583  0.3513
12249W        W16649  19.008   5.691   8.929  0.0812  0.1080  0.4266
12250W        W16650  21.726   4.198   7.151 -0.0371 -0.0598 -0.2091
12251W        W16651  13.361   4.159  10.104 -0.0260 -0.1475 -0.3781
12252W        W16652  16.599   7.057   9.332 -0.1630 -0.1644 -0.0969
12253W        W16653   8.736   4.744  19.619 -0.0450 -0.2469 -0.2911
12254W        W16654  16.940   6.257  16.988  0.1219 -0.2078 -0.0113
12255W        W16655  21.867   4.875  21.048  0.1005 -0.0414 -0.1585
12256W        W16656  13.766   0.856  22.739  0.2093 -0.1070 -0.0892
12257W        W16657  27.252   5.328   4.879 -0.3480  0.0645  0.1385
12258W        W16658  30.659   2.270  24.624 -0.2377  0.0964 -0.0678
12259W        W16659  13.119   2.193  18.568  0.1513  0.0543  0.0080
12260W        W16660  25.456   7.091   6.015 -0.1758  0.0145  0.0084
12261W        W16661  27.009   4.048   5.592  0.4310  0.0679 -0.1371
12262W        W16662  29.303   0.997   9.221 -0.0070  0.3063 -0.0073
12263W        W16663  29.368   6.733   1.404  0.2717 -0.0230 -0.0824
12264W        W16664  22.030   1.647   6.162 -0.1966 -0.0082  0.0721
12265W        W16665   3.635   1.765   1.802  0.0893 -0.2715 -0.1638
12266W        W16666  16.346   0.745   6.986 -0.0987  0.1266  0.1397
12267W        W16667   3.324   5.310  24.376  0.2874  0.0010 -0.0467
12268W        W16668   7.970   7.354   7.039  0.3668 -0.1211  0.0252
12269W        W16669  28.969   7.618  19.628  0.0836  0.0592 -0.1508
12270W        W16670  26.741   5.115   5.440 -0.1375  0.2905 -0.1869
12271W        W16671  16.832   0.646   5.581 -0.0979 -0.0137 -0.0788
12272W        W16672  15.534   7.438   7.959  0.0304  0.1882 -0.1412
12273W        W16673   1.042   2.337  25.790 -0.2333 -0.0333  0.1460
12274W        W16674  27.214   1.663  23.667 -0.2649  0.0122  0.0599
12275W        W16675   9.039   6.103   7.931 -0.2666 -0.0962  0.3997
12276W        W16676  24.599   7.603   3.320  0.0310 -0.0590 -0.0011
12277W        W16677   7.552   0.574   6.197  0.4246  0.1863  0.0154
12278W        W16678  16.030   4.766  18.327  0.0932  0.3326 -0.0510
12279W        W16679   6.329   7.184  22.494  0.1723 -0.1278 -0.1812
12280W        W16680  28.915   3.645   1.528 -0.0665  0.3276  0.2586
12281W        W16681  26.424   1.071  21.936  0.0639 -0.3049 -0.0550
12282W        W16682   0.235   5.498   0.904  0.1876 -0.0025 -0.2985
12283W        W16683   5.331   4.420   2.929  0.1312 -0.1169 -0.0893
12284W        W16684   3.413   5.652   0.426 -0.1502 -0.2418  0.1161
12285W        W16685  31.148   1.399  21.321 -0.1061  0.2898 -0.2211
12286W        W16686  11.865   7.752   8.187  0.2057  0.0655  0.1088
12287W        W16687  22.850   5.160   1.555  0.2513  0.0181  0.1646
12288W        W16688   8.885   6.037   8.389 -0.1007  0.1403  0.0091
12289W        W16689  10.259   5.536  19.465  0.1012  0.0325 -0.1727
12290W        W16690  21.070   7.358  17.955 -0.0221  0.3459 -0.2230
12291W        W16691  17.541   7.201  22.988 -0.0366  0.3340  0.2887
12292W        W16692  28.195   2.432   5.183 -0.2197  0.1237 -0.0089
12293W        W16693  22.077   4.581   7.009  0.1829 -0.2754  0.0914
12294W        W16694  29.984   3.884   4.298  0.1630 -0.1656 -0.2171
12295W        W16695   7.510   4.561  22.752  0.2621  0.6063 -0.3063
12296W        W16696  22.246   6.943  23.516 -0.3952  0.2570 -0.3796
12297W        W16697  11.546   6.329  23.819  0.0930  0.2449  0.1056
12298W        W16698   2.082   6.720  20.384 -0.1021  0.1559  0.0909
12299W        W16699  20.317   1.890   5.791  0.0726  0.1383  0.0669
12300W        W16700  24.244   3.861  16.441  0.1424  0.2112 -0.1338
12301W        W16701  13.830   3.149  22.833  0.2719 -0.4212 -0.2288
12302W        W16702   1.444   7.293   9.614 -0.3410 -0.0555 -0.0675
12303W        W16703  29.006   4.661   8.567  0.1541 -0.1931 -0.1082
12304W        W16704  11.779   5.073  25.130 -0.1822 -0.2050  0.2434
12305W        W16705  29.040   1.624  16.821 -0.1328 -0.2022  0.1622
12306W        W16706  27.707   3.083  16.460 -0.0280  0.3974 -0.0819
12307W        W16707  28.339   0.871   9.006 -0.2112  0.4091 -0.0021
12308W        W16708  24.065   5.189   9.707 -0.1296  0.2845 -0.0900
12309W        W16709  10.191   5.022   4.267  0.0366 -0.4341  0.1769
12310W        W16710  19.731   4.623  22.517  0.0526  0.0560 -0.1430
12311W        W16711   7.257   0.826  16.936  0.1868  0.2853  0.0708
12312W        W16712  14.662   0.440  10.303 -0.1090 -0.2413  0.0523
12313W        W16713  21.838   4.523  22.980  0.1362 -0.1234  0.0253
12314W        W16714   6.891   0.836  21.210 -0.2148  0.1911  0.2065
12315W        W16715  15.370   6.358  17.112 -0.1340 -0.1656 -0.1120
12316W        W16716  30.113   3.998  20.318 -0.1470 -0.1079 -0.3466
12317W        W16717  12.599   1.681  17.183  0.0527 -0.3041 -0.1163
12318W        W16718  20.198   1.715   0.129 -0.0408 -0.0099 -0.2969
12319W        W16719  13.054   0.760  17.562  0.0974  0.0538 -0.2638
12320W        W16720  14.052   6.678  21.335  0.1768 -0.0673  0.0518
12321W        W16721  18.911   3.131  24.219 -0.0401  0.0015  0.2850
12322W        W16722   8.250   1.607   8.947  0.0104  0.1652  0.1754
12323W        W16723   8.838   2.828   3.592  0.0628 -0.0644  0.0910
12324W        W16724  13.685   3.945  22.327  0.1501  0.0122 -0.0599
12325W        W16725   6.135   4.314   2.303 -0.0902  0.1300  0.3127
12326W        W16726   2.081   2.862   5.414 -0.1305  0.0040  0.0440
12327W        W16727  13.444   4.905   7.776 -0.1342  0.1465 -0.4454
12328W        W16728  16.214   5.139   5.031  0.3302  0.4389 -0.0383
12329W        W16729  14.269   1.028  16.371 -0.2348 -0.1184 -0.1980
12330W        W16730  22.995   2.590  24.549 -0.1688 -0.2693  0.2270
12331W        W16731  10.980   1.252  10.021  0.0134  0.0927  0.0419
12332W        W16732  12.888   7.217  21.826  0.1029  0.0135 -0.1391
12333W        W16733   7.773   1.137   0.686 -0.2297  0.1284 -0.2278
12334W        W16734  19.772   5.442  10.386  0.1878  0.1186 -0.3906
12335W        W16735  18.024   4.620   9.612  0.1250  0.0831 -0.0960
12336W        W16736  30.381   4.998  19.655 -0.1058  0.0788  0.0931
12337W        W16737  25.518   5.797  22.150 -0.1064  0.2798 -0.0210
12338W        W16738  12.054   5.825  10.204 -0.0587 -0.0024  0.0658
12339W        W16739   0.573   0.061  10.128 -0.2759  0.0525 -0.0533
12340W        W16740   2.953   1.984  25.040 -0.1828 -0.2770 -0.1310
12341W        W16741  21.163   4.278   2.961  0.0803 -0.2383 -0.0683
12342W        W16742  15.711   0.051   9.663 -0.1682  0.2289 -0.1624
12343W        W16743  30.633   5.244  19.221 -0.3216  0.2162  0.2892
12344W        W16744  30.893   3.041  24.138 -0.2850  0.0892 -0.2574
12345W        W16745  10.003   2.952  19.561  0.1341 -0.0791  0.0788
12346W        W16746  27.561   5.373  20.067 -0.1955 -0.3473  0.1643
12347W        W16747   8.697   4.318   9.300 -0.0397  0.1719  0.1324
12348W        W16748  28.447   3.543   1.711 -0.1108 -0.2671 -0.0332
12349W        W16749  23.665   0.236  18.050 -0.0530 -0.0509 -0.0091
12350W        W16750  10.579   4.415  16.820  0.1725  0.2574 -0.0786
12351W        W16751  25.901   3.182  24.793 -0.0080 -0.0747 -0.0255
12352W        W16752  22.497   3.961   1.320 -0.1653  0.1877 -0.0455
12353W        W16753   6.153   1.259   8.299  0.2196 -0.1902  0.1774
12354W        W16754  27.140   4.568  10.128 -0.0618  0.3403 -0.1656
12355W        W16755  14.020   7.136   0.123 -0.3538 -0.0323 -0.1994
12356W        W16756  15.129   3.290  22.082  0.1477 -0.0309 -0.3066
12357W        W16757  17.445   0.668   7.895 -0.2132  0.1827 -0.0491
12358W        W16758  22.243   0.430   7.635  0.0609  0.2601  0.3208
12359W        W16759  19.102   3.050   7.224  0.0847  0.1633 -0.2073
12360W        W16760  18.928   0.413  24.042  0.5537  0.0111 -0.1492
12361W        W16761  30.066   1.801  25.390 -0.4212 -0.1610  0.0153
12362W        W16762  12.126   1.202   6.822 -0.1876 -0.1562 -0.0302
12363W        W16763  23.309   0.801  16.737  0.1560  0.0168  0.1552
12364W        W16764  23.571   0.283   1.199  0.0809 -0.1203 -0.2634
12365W        W16765  17.832   0.394   0.610  0.0206  0.1068 -0.2279
12366W        W16766   8.621   6.657   1.573  0.1379 -0.1355  0.1985
12367W        W16767   0.239   6.874  16.856  0.1405 -0.3167  0.2314
12368W        W16768  16.426   7.627   0.817  0.0154  0.3195 -0.2945
12369W        W16769  15.199   4.007  25.400  0.0869 -0.0642 -0.0045
12370W        W16770  28.693   0.334  24.598 -0.2874  0.0636 -0.1106
12371W        W16771  26.029   1.886  20.591 -0.1417  0.1073  0.0055
12372W        W16772   3.480   1.894  20.053 -0.1067  0.1693 -0.0273
12373W        W16773  23.470   6.459  23.969 -0.0926  0.0704 -0.1314
12374W        W16774  13.841   1.930   5.289  0.3213 -0.3195 -0.2003
12375W        W16775  27.328   4.318  23.202  0.1509 -0.0881  0.0584
12376W        W16776  17.418   2.471   2.314  0.0928  0.2643 -0.0951
12377W        W16777  13.302   0.300   0.231  0.2656 -0.0345 -0.1735
12378W        W16778   1.628   5.775   1.024  0.0861  0.1917  0.2229
12379W        W16779   4.233   2.515   0.085 -0.1931  0.0031 -0.1164
12380W        W16780   0.860   2.504   5.582 -0.3232  0.4414  0.1849
12381W        W16781  28.420   3.305  22.627 -0.3308 -0.0224  0.0440
12382W        W16782  15.094   3.778   0.775  0.0657  0.1324 -0.1380
12383W        W16783   9.006   6.001   1.239 -0.1200  0.1669 -0.1295
12384W        W16784   9.688   1.996  10.548 -0.0348 -0.1277  0.0032
12385W        W16785  26.483   7.521  19.804 -0.3398  0.0033 -0.0154
12386W        W16786   5.959   4.733   8.036  0.1494  0.1219 -0.0547
12387W        W16787  15.059   2.825   8.472  0.2170  0.0526  0.2933
12388W        W16788  11.417   7.741   9.459 -0.0629  0.0420  0.0601
12389W        W16789  31.361   6.739   2.559 -0.1006 -0.2168 -0.0635
12390W        W16790  23.318   1.957   5.753  0.1170 -0.2652 -0.4003
12391W        W16791   8.198   2.081   5.397  0.0631  0.0364 -0.1046
12392W        W16792  25.372   0.279  25.179 -0.0006 -0.2237 -0.0077
12393W        W16793  28.557   2.940  18.285 -0.0457  0.4044  0.1232
12394W        W16794  27.594   4.106   1.653 -0.0347  0.1043  0.0036
12395W        W16795   6.662   4.441   2.068 -0.0761  0.0708  0.1067
12396W        W16796  31.248   7.293  18.211 -0.2403  0.1371 -0.1709
12397W        W16797  21.671   6.701   7.978 -0.1634 -0.0098  0.0377
12398W        W16798  12.584   1.114  25.330 -0.1025 -0.1637  0.1057
12399W        W16799   6.932   3.348   9.689 -0.0077 -0.0444  0.1180
12400W        W16800   1.493   2.040   7.141 -0.2576  0.1150  0.0857
12401W        W16801  18.909   4.632  22.196 -0.2372  0.1072  0.1141
12402W        W16802  22.703   2.112  20.608  0.0879 -0.0566 -0.3032
12403W        W16803  10.152   0.156   9.646  0.1828 -0.0316  0.0640
12404W        W16804  28.119   4.095  10.531 -0.1177  0.0345  0.1244
12405W        W16805   8.952   3.426   8.015  0.1722  0.1203  0.0212
12406W        W16806  21.712   4.451  23.447  0.0007 -0.1745  0.3777
12407W        W16807  27.420   3.677   6.925  0.0849 -0.0397 -0.1278
12408W        W16808  25.404   4.975   4.986  0.0137  0.0284 -0.0727
12409W        W16809  20.359   0.740  23.043  0.0569 -0.1240  0.1186
12410W        W16810   9.847   2.187   9.567  0.0583  0.1811  0.2093
12411W        W16811  24.729   2.830  20.987 -0.0606 -0.1062 -0.1925
12412W        W16812  21.879   6.794   0.467  0.0887  0.3985 -0.1943
12413W        W16813  14.555   4.145  20.076  0.1266  0.3555 -0.1154
12414W        W16814  23.531   3.231   7.475  0.2873 -0.1700  0.1377
12415W        W16815   0.266   5.755  17.597  0.0628 -0.3740  0.1660
12416W        W16816  30.755   0.525   8.974  0.0723  0.0750 -0.0358
12417W        W16817  21.945   6.139  19.577 -0.1294  0.3812 -0.1059
12418W        W16818  26.263   5.233   9.811 -0.0424  0.0417  0.2186
12419W        W16819  26.219   7.826  24.036 -0.0218 -0.0915 -0.2141
12420W        W16820   7.085   3.689  22.737  0.3277  0.3860 -0.1614
12421W        W16821  16.532   1.505  10.012 -0.0714 -0.3259  0.2985
12422W        W16822  13.810   6.397   2.435 -0.0462  0.2341  0.1914
12423W        W16823  25.649   1.690   9.517 -0.0102 -0.1001  0.1163
12424W        W16824  11.116   1.237   5.045 -0.0951 -0.0545 -0.0316
12425W        W16825  19.501   7.583   2.631 -0.0917 -0.0845 -0.1539
12426W        W16826   1.476   7.459   4.964  0.0758 -0.0467  0.1307
12427W        W16827   4.159   1.952   7.204 -0.2394  0.0173 -0.0224
12428W        W16828  11.753   0.501  23.122  0.1775  0.0655  0.0703
12429W        W16829  19.719   4.491   3.305  0.2044 -0.1530  0.0263
12430W        W16830  28.670   2.290  21.956  0.0182  0.0451 -0.2256
12431W        W16831  17.927   7.135   4.883 -0.3281 -0.2256 -0.0649
12432W        W16832   9.648   4.864   2.728  0.1909  0.2365 -0.1166
12433W        W16833   6.566   0.611   0.463  0.2453  0.2241  0.1648
12434W        W16834  31.155   1.378   1.222  0.2701  0.0893 -0.2160
12435W        W16835  23.752   7.080  21.704  0.1946  0.0731  0.0223
12436W        W16836  16.283   7.409  22.268 -0.0342 -0.0634  0.2650
12437W        W16837  14.440   3.817  19.692  0.0798 -0.1404  0.0220
12438W        W16838  31.406   4.312   2.744 -0.3194 -0.1828 -0.0701
12439W        W16839   2.549   1.475  19.056  0.0585  0.1531  0.0072
12440W        W16840  25.492   0.688   8.012 -0.3031  0.3030  0.1974
12441W        W16841  26.162   2.519  19.238  0.1494 -0.0548  0.0684
12442W        W16842   5.900   6.952   0.236  0.1592  0.2248 -0.0081
12443W        W16843  26.864   6.838  25.190  0.1999  0.2292 -0.2268
12444W        W16844   1.460   0.473  25.847 -0.1633  0.0377 -0.1819
12445W        W16845  14.536   0.322  16.087  0.1111  0.2821 -0.1416
12446W        W16846   1.606   1.203   5.303 -0.1992 -0.1364  0.2130
12447W        W16847  27.956   3.027  14.868 -0.1318  0.0037 -0.0816
12448W        W16848   4.729   2.640  17.824  0.2285 -0.3484  0.0455
12449W        W16849  27.997   3.667   6.864 -0.1422  0.2157  0.0279
12450W        W16850  25.727   2.146  19.384  0.1432 -0.2327  0.1890
12451W        W16851  23.633   0.252   4.416  0.2185 -0.2289 -0.3713
12452W        W16852  31.387   1.277  10.268  0.2101 -0.1226 -0.0861
12453W        W16853  29.151   1.433   5.252 -0.0388 -0.2894 -0.0401
12454W        W16854  24.843   4.693  17.738  0.3084 -0.1436  0.1401
12455W        W16855  14.898   5.287   3.842 -0.0806  0.0810 -0.2028
12456W        W16856   8.495   2.380  25.883  0.2874 -0.0252 -0.0204
12457W        W16857   6.643   0.240   5.796 -0.0550 -0.2374  0.0902
12458W        W16858  13.135   6.831  18.451  0.2168  0.1984  0.1864
12459W        W16859  26.761   0.632   5.003  0.1852 -0.0776  0.3165
12460W        W16860   6.673   1.541  17.696  0.0576  0.2944  0.0141
12461W        W16861  20.817   2.830   6.657  0.0426 -0.2917 -0.0025
12462W        W16862  21.733   6.201   5.234 -0.0843  0.2081 -0.0688
12463W        W16863   2.273   4.933   5.194  0.0354  0.1067  0.0035
12464W        W16864   6.525   6.941   2.896 -0.2026  0.2899 -0.1932
12465W        W16865  14.212   3.985   7.467 -0.0085 -0.0798 -0.1699
12466W        W16866  26.116   2.305   1.861  0.0775  0.0958  0.2092
12467W        W16867  20.762   3.994  22.431 -0.0325 -0.0316  0.0223
12468W        W16868  20.106   1.815  25.265  0.1086 -0.0566 -0.2889
12469W        W16869   3.929   0.632   3.798 -0.4895  0.0935  0.1937
12470W        W16870  21.575   1.289   1.795 -0.2710  0.1107 -0.0892
12471W        W16871   3.931   6.294   3.603  0.4354  0.0067 -0.0354
12472W        W16872  24.497   7.119  22.550 -0.2606 -0.0223 -0.0839
12473W        W16873  11.622   3.406  24.748 -0.0138  0.0074 -0.0720
12474W        W16874  20.346   7.062   0.848 -0.2688  0.0389  0.2686
12475W        W16875   8.790   1.335   2.172 -0.5493  0.1834  0.2273
12476W        W16876  19.380   0.842  23.288 -0.0356 -0.3043  0.0640
12477W        W16877  31.245   6.912   7.734 -0.1136 -0.1654  0.1688
12478W        W16878  26.897   5.477  18.112 -0.1529 -0.0292 -0.0270
12479W        W16879  30.716   0.463   6.606 -0.0994 -0.0324 -0.0371
12480W        W16880  22.009   2.232  25.887  0.3058 -0.1471  0.0028
12481W        W16881  20.753   3.265   7.595  0.1019 -0.1623  0.0421
12482W        W16882  21.319   4.564   6.445 -0.0225 -0.1176  0.0717
12483W        W16883  21.440   6.156   8.937 -0.2731  0.0753 -0.0501
12484W        W16884   7.600   1.904   9.251  0.1171  0.2124  0.0538
12485W        W16885   2.841   1.822   7.886  0.2226  0.1448  0.4108
12486W        W16886   0.714   6.748   9.083 -0.0280  0.0405 -0.1702
12487W        W16887   2.966   1.814  16.381  0.0365  0.1492 -0.0527
12488W        W16888  24.468   1.030   2.452 -0.0363 -0.3931 -0.2023
12489W        W16889   5.677   1.615  20.341 -0.1219 -0.0832  0.0531
12490W        W16890  11.392   2.154   2.592 -0.2186 -0.2865 -0.0395
12491W        W16891  23.982   4.699   7.047 -0.0866 -0.1260  0.1866
12492W        W16892   3.635   1.217  14.727  0.0027  0.0544  0.1615
12493W        W16893  11.778   4.020  21.665  0.0040  0.0291  0.1614
12494W        W16894   4.369   7.595  16.464 -0.0390  0.2114  0.1703
12495W        W16895  24.364   2.649  24.718  0.2224  0.0822  0.0491
12496W        W16896  28.228   7.715   2.304 -0.0680  0.5633 -0.0374
12497W        W16897  14.939   5.684   1.289 -0.3599  0.0526 -0.1523
12498W        W16898  23.931   4.107   5.960 -0.2901 -0.0096 -0.0817
12499W        W16899  12.348   4.930   3.821 -0.1093 -0.0339 -0.0879
12500W        W16900  14.937   1.403   1.076 -0.0178  0.2156  0.0376
12501W        W16901  21.531   1.373   4.215 -0.0437 -0.1972 -0.2706
12502W        W16902  27.459   0.776   4.468  0.0701 -0.1887  0.0646
12503W        W16903  10.671   3.479   3.565  0.0431 -0.0881 -0.2575
12504W        W16904  30.874   0.586   7.455 -0.1322  0.1945  0.0888
12505W        W16905  17.931   0.425   6.590 -0.3201  0.0985  0.1636
12506W        W16906   4.209   4.727  15.219  0.1346  0.1034 -0.2545
12507W        W16907   8.025   3.980  21.127  0.3764  0.1565  0.2713
12508W        W16908   2.816   3.664  16.895  0.0491  0.0849 -0.0604
12509W        W16909  16.090   0.982  16.540 -0.2943  0.3558 -0.3413
12510W        W16910   1.067   1.066   7.703  0.0572  0.4148  0.0281
12511W        W16911  20.250   0.215  11.136 -0.0752 -0.0751  0.2594
12512W        W16912   7.097   3.433  16.008  0.1573  0.3169 -0.0798
12513W        W16913  28.796   6.392   5.204 -0.1243  0.1505 -0.0732
12514W        W16914  11.844   2.441  21.783  0.1168 -0.4466 -0.0079
12515W        W16915  16.589   3.938  24.886 -0.0239  0.1234 -0.2093
12516W        W16916  12.411   1.960   6.247  0.1595 -0.2284  0.1019
12517W        W16917  30.829   1.030   8.716  0.2150  0.0894  0.2155
12518W        W16918  19.324   0.276  18.971 -0.2315 -0.1309  0.1257
12519W        W16919  18.759   4.911  25.429 -0.1050 -0.2878 -0.1017
12520W        W16920   3.292   6.078  20.590 -0.0474  0.1550  0.3151
12521W        W16921  27.609   6.343  22.099 -0.1300  0.0789 -0.0985
12522W        W16922  12.336   7.085   5.679  0.3610 -0.3517  0.0499
12523W        W16923   9.010   1.930   5.770  0.3092 -0.1164  0.0168
12524W        W16924  19.626   6.021  18.155 -0.0568  0.0651  0.2233
12525W        W16925  16.973   0.930   0.427 -0.0922 -0.0090  0.0012
12526W        W16926   2.610   3.679   9.257  0.0004 -0.2529  0.2488
12527W        W16927  21.409   5.689  24.036  0.1124 -0.2037 -0.1702
12528W        W16928  12.476   3.721  24.271  0.2432 -0.0682  0.1482
12529W        W16929  26.045   2.104   3.722 -0.3623  0.0462 -0.4209
12530W        W16930   2.971   4.077   1.714 -0.2617 -0.0998  0.1102
12531W        W16931  10.846   7.136   4.849 -0.0508 -0.0603  0.1640
12532W        W16932  12.821   0.164   8.631  0.3220 -0.3973  0.0564
12533W        W16933  16.187   5.185  25.141  0.1041 -0.0890  0.2491
12534W        W16934  14.129   3.314   7.956 -0.1372  0.2177 -0.0638
12535W        W16935   0.228   3.021  21.878 -0.1010  0.1196 -0.0867
12536W        W16936  29.262   1.539   7.532  0.3610  0.0347  0.1755
12537W        W16937  18.953   4.300   7.247  0.1978 -0.0579 -0.3318
12538W        W16938   4.098   6.002   4.724 -0.0094 -0.0373 -0.1509
12539W        W16939   3.511   0.408   3.889  0.1976  0.1384 -0.0986
12540W        W16940   6.112   0.231   5.046 -0.1546 -0.0666 -0.1023
12541W        W16941   6.429   2.450   4.723 -0.2588 -0.0100  0.1124
12542W        W16942  17.250   3.347  21.478  0.2408 -0.1823  0.1332
12543W        W16943   4.421   6.493   5.082  0.0768  0.1314 -0.0617
12544W        W16944  12.011   0.016  25.360  0.3585  0.1242 -0.0656
12545W        W16945  16.503   2.765  19.629  0.1049 -0.4753 -0.0102
12546W        W16946  20.748   6.540  10.334  0.0266 -0.0868 -0.1694
12547W        W16947  15.425   7.456   6.228 -0.0671 -0.0211 -0.2287
12548W        W16948  10.411   4.840  22.005 -0.0267  0.0513 -0.2216
12549W        W16949  28.214   4.648  15.720  0.1484 -0.2238 -0.1724
12550W        W16950  26.065   0.083   8.096  0.0837  0.2149  0.0834
12551W        W16951  18.903   7.728   3.401 -0.1609 -0.4871  0.2697
12552W        W16952  21.911   7.001   8.992 -0.2431  0.0090  0.1845
12553W        W16953  28.294   1.526   5.761  0.1224 -0.3809 -0.2740
12554W        W16954  13.877   4.440   3.559 -0.0104 -0.0375 -0.1326
12555W        W16955  19.302   5.702  18.363  0.1924 -0.4455  0.1488
12556W        W16956   0.465   0.364   4.256 -0.0458 -0.2628 -0.1594
12557W        W16957  25.742   6.976  10.078  0.2341 -0.2440  0.2324
12558W        W16958   9.050   7.156   3.244 -0.0675 -0.0054 -0.0608
12559W        W16959  11.088   2.045  25.354 -0.0360 -0.0313 -0.2905
12560W        W16960  18.719   6.986  22.172  0.2564  0.2912  0.1074
12561W        W16961  10.032   2.770  18.345  0.1094 -0.1288  0.1935
12562W        W16962  29.192   5.262  15.064 -0.1385  0.1399 -0.2805
12563W        W16963   2.843   2.899   7.424  0.1450  0.1315 -0.2139
12564W        W16964  30.382   6.454   9.531 -0.1320  0.3703 -0.1296
12565W        W16965  20.249   6.894  16.108  0.1818  0.2711 -0.0665
12566W        W16966  21.051   2.371   3.439  0.0889 -0.0152  0.1214
12567W        W16967  18.821   7.503  25.467  0.2667 -0.0719 -0.4176
12568W        W16968   4.288   1.080  10.005 -0.1617  0.0674  0.0411
12569W        W16969  24.113   2.836  22.366  0.1739  0.2882  0.1256
12570W        W16970  19.666   2.325   8.986 -0.1565  0.0561  0.0472
12571W        W16971  12.128   6.947  25.774 -0.0760 -0.0377  0.0009
12572W        W16972  19.473   6.817   9.455  0.0345  0.1614 -0.1084
12573W        W16973  31.420   5.621  18.515  0.2422  0.1121 -0.0002
12574W        W16974  27.898   0.666   1.118 -0.3530 -0.2345  0.0197
12575W        W16975  12.257   6.258  20.757  0.3328  0.2785 -0.0201
12576W        W16976  26.040   0.315   6.819  0.1567 -0.1683  0.0763
12577W        W16977   7.274   5.965  22.491 -0.1511  0.3523  0.1792
12578W        W16978   6.034   5.834   5.057  0.1740 -0.0939 -0.0736
12579W        W16979  24.927   1.262  22.330  0.1728 -0.2892 -0.2324
12580W        W16980  14.594   1.934  10.627 -0.1161  0.1137 -0.0480
12581W        W16981  13.023   0.385   1.537  0.1225  0.0141  0.2019
12582W        W16982  14.929   6.450  21.851 -0.0821 -0.1133  0.0911
12583W        W16983  12.732   4.752   6.728 -0.0443 -0.2557 -0.1228
12584W        W16984  23.774   7.853  10.234  0.2796  0.2858 -0.2397
12585W        W16985  16.440   5.819   2.402  0.0503 -0.3443 -0.0370
12586W        W16986  16.847   2.710   3.364  0.0448  0.1941  0.0526
12587W        W16987  15.055   0.324  20.009 -0.0788  0.2231 -0.2284
12588W        W16988  11.557   2.450  23.724  0.2169  0.0962  0.0101
12589W        W16989   6.095   3.843   3.181  0.1117 -0.0369  0.0295
12590W        W16990   2.185   2.551  23.865 -0.0018  0.0416  0.2321
12591W        W16991   5.528   2.415   7.588  0.0492  0.2219  0.1242
12592W        W16992  31.099   4.988  16.123  0.0515  0.1034  0.2245
12593W        W16993  18.013   1.321  16.708 -0.0514 -0.2486 -0.0783
12594W        W16994   0.016   3.651  18.382 -0.4877  0.2013 -0.1428
12595W        W16995  13.674   0.444   4.508 -0.0092  0.3020 -0.0236
12596W        W16996  25.650   2.433  20.688  0.1377  0.0090  0.0933
12597W        W16997  10.532   0.988   3.191  0.0030 -0.2823 -0.1735
12598W        W16998  28.337   1.866  10.459  0.1330  0.1211  0.0300
12599W        W16999  14.266   4.661  18.871 -0.2083  0.0010  0.1528
12600W        W17000   2.546   0.941  25.039  0.0579  0.0640 -0.1366
12601W        W17001  11.561   2.206  17.654  0.1345 -0.1431 -0.0904
12602W        W17002   7.102   6.048  16.427  0.1813  0.0672 -0.2196
12603W        W17003   6.348   4.025   3.884  0.0017 -0.0370 -0.3195
12604W        W17004  19.330   1.699  21.179  0.2311 -0.1479 -0.1466
12605W        W17005  19.834   7.275   9.562  0.0217  0.0049  0.1818
12606W        W17006  28.891   4.097   9.844 -0.0115 -0.1405  0.0008
12607W        W17007   3.709   0.697   4.735  0.2162  0.4265  0.0936
12608W        W17008   3.363   6.731   4.168  0.1146 -0.3725 -0.1164
12609W        W17009  25.314   3.374   9.025 -0.1275  0.1779  0.2007
12610W        W17010  13.600   5.386   0.444  0.2356 -0.1849 -0.1940
12611W        W17011   8.545   3.738   2.954  0.1789 -0.0931  0.1219
12612W        W17012   3.967   6.889   0.896 -0.2979  0.0254  0.1160
12613W        W17013  29.460   2.380  16.541  0.0936  0.1094 -0.0821
12614W        W17014  14.708   6.417   3.434 -0.2209  0.3110  0.1276
12615W        W17015  17.516   4.876  17.711 -0.1812 -0.0868  0.0771
12616W        W17016  21.838   3.412  18.590 -0.0865  0.0225 -0.2438
12617W        W17017  25.152   1.426  18.511  0.2785  0.0405 -0.0651
12618W        W17018   7.847   3.867   7.136  0.0631 -0.2224  0.1148
12619W        W17019  20.910   0.078  10.149  0.2324 -0.3161  0.0073
12620W        W17020   7.009   2.037  24.686  0.0164 -0.0279  0.1058
12621W        W17021  12.641   2.786   0.626  0.1043 -0.0733  0.1472
12622W        W17022   9.915   1.805   1.793  0.0346  0.2104  0.0331
12623W        W17023   7.173   1.446  19.872 -0.3019 -0.4838 -0.1305
12624W        W17024   8.293   4.538   0.005 -0.3084  0.1734 -0.1461
12625W        W17025  18.083   0.056  21.459 -0.2428 -0.1664 -0.2111
12626W        W17026   3.901   0.528   5.215  0.0922 -0.0393  0.0162
12627W        W17027  31.089   4.431  19.356 -0.3275  0.0983 -0.1060
12628W        W17028   9.951   5.908  25.497  0.1124  0.0260  0.2659
12629W        W17029   6.420   2.957  17.307 -0.2728 -0.0303 -0.2022
12630W        W17030  10.187   7.465  24.298  0.1807 -0.4534  0.3059
12631W        W17031  27.753   6.929   5.896  0.0553 -0.0869 -0.0755
12632W        W17032  27.511   1.734  20.183  0.0670 -0.0342 -0.0985
12633W        W17033   8.130   2.333  22.241 -0.2397 -0.1444 -0.1920
12634W        W17034  13.510   3.286   5.416  0.0752  0.0497 -0.2320
12635W        W17035  21.906   6.590  11.211  0.1335  0.0436 -0.0162
12636W        W17036   5.052   5.233  15.215  0.0084  0.1585  0.1679
12637W        W17037   1.161   4.361   8.570  0.2303 -0.0751 -0.0458
12638W        W17038  25.219   6.757  22.041 -0.2698 -0.3265 -0.0841
12639W        W17039   7.656   6.037   7.571 -0.1303  0.3584  0.3461
12640W        W17040  29.190   3.152   6.479  0.0858 -0.1189  0.2795
12641W        W17041   8.947   5.856  17.467  0.0241 -0.0740 -0.0286
12642W        W17042  12.425   3.628   5.685  0.3618 -0.2291  0.0634
12643W        W17043   3.576   1.000   8.301  0.2130 -0.0647  0.1261
12644W        W17044  11.994   5.508   5.547  0.2482 -0.2555 -0.1343
12645W        W17045  22.249   5.782   9.894 -0.1468 -0.2082  0.1465
12646W        W17046   5.619   3.649  25.740 -0.1263  0.0900  0.2338
12647W        W17047  20.482   0.685  21.946 -0.2808 -0.1389 -0.0989
12648W        W17048  21.129   4.017   9.656  0.1913 -0.0093 -0.2608
12649W        W17049   9.944   0.799  21.344  0.0289  0.0712  0.0172
12650W        W17050  29.036   2.428   6.712 -0.1983 -0.1867  0.0423
12651W        W17051  23.350   2.979   7.111  0.0767  0.1262  0.1705
12652W        W17052  26.524   3.881  22.261 -0.1258  0.0994 -0.2252
12653W        W17053   9.410   3.893  20.457 -0.0371 -0.1270  0.0910
12654W        W17054   9.984   6.869  19.664 -0.1527 -0.2722  0.0122
12655W        W17055  27.822   3.926   4.047  0.0661 -0.2053 -0.1155
12656W        W17056  15.537   6.457  20.458 -0.1097 -0.0552  0.1243
12657W        W17057   4.458   0.064   2.434 -0.1700  0.1465  0.1434
12658W        W17058  11.294   5.462   9.424 -0.0125 -0.1252 -0.0897
12659W        W17059  13.994   3.661   3.869 -0.0730 -0.0689 -0.2613
12660W        W17060  24.895   4.541  23.945 -0.0784 -0.3300 -0.3736
12661W        W17061  12.149   7.264  14.939 -0.1066  0.0258 -0.1110
12662W        W17062  20.077   5.840  24.241 -0.1830  0.1381  0.4333
12663W        W17063   5.671   0.018   4.932 -0.2572  0.0485 -0.1944
12664W        W17064  17.349   1.814   6.386 -0.3941 -0.0618 -0.0269
12665W        W17065  22.199   5.736  23.226  0.0674 -0.0999 -0.1464
12666W        W17066  20.791   1.560  21.108 -0.0105  0.1896 -0.0904
12667W        W17067   8.984   6.517  23.782  0.2498 -0.2397  0.3989
12668W        W17068  22.718   4.875  20.295 -0.4248 -0.0126 -0.2334
12669W        W17069   1.046   0.934   4.581  0.1249  0.2325  0.0532
12670W        W17070  28.357   3.981   4.949  0.1429 -0.1530 -0.2328
12671W        W17071   2.994   5.094   4.304  0.0875 -0.2904  0.3229
12672W        W17072   9.782   7.391   0.014  0.0654  0.0482  0.2487
12673W        W17073   2.989   6.264   7.475  0.5121  0.1606  0.1603
12674W        W17074  26.383   3.627  23.808  0.0828  0.0553 -0.0433
12675W        W17075   4.571   2.586  19.024 -0.1262  0.1007  0.2291
12676W        W17076  19.547   6.117  20.865  0.1151  0.1201  0.2579
12677W        W17077  18.914   2.855   1.683  0.1008  0.0269 -0.0023
12678W        W17078  18.735   6.518   1.699 -0.0581 -0.0430 -0.1809
12679W        W17079  11.667   2.139   4.232 -0.1486 -0.1653 -0.0638
12680W        W17080   3.707   6.334   2.674  0.4669 -0.4234 -0.1946
12681W        W17081  17.273   2.666  23.055 -0.0684  0.2535  0.0210
12682W        W17082  23.322   1.863  20.405  0.1212 -0.0555  0.1453
12683W        W17083  13.700   2.789   3.977  0.1088  0.1429 -0.0632
12684W        W17084  23.895   5.635  10.190 -0.1841  0.1834 -0.0248
12685W        W17085  25.975   3.292  21.096 -0.1307  0.0603 -0.2407
12686W        W17086  11.431   3.085  23.728  0.0834 -0.2897  0.0067
12687W        W17087  19.750   4.972  23.849 -0.1442  0.3896  0.2732
12688W        W17088  12.491   4.542   0.262  0.1197 -0.2268 -0.0014
12689W        W17089  13.604   2.622   1.816  0.0086 -0.1212 -0.1385
12690W        W17090   9.919   3.466  10.571  0.1277 -0.3474  0.2341
12691W        W17091  17.431   3.633  19.085  0.1111 -0.1647 -0.0189
12692W        W17092  26.605   1.190   1.743  0.1265 -0.1527  0.1215
12693W        W17093   5.387   0.645  24.454  0.2307  0.2682 -0.2069
12694W        W17094  15.564   1.006   2.921  0.3173 -0.0233 -0.0647
12695W        W17095  12.085   2.040  16.330 -0.0937  0.0267 -0.3482
12696W        W17096   1.967   5.483  15.504  0.0808 -0.1026  0.1407
12697W        W17097   3.433   4.033   6.469 -0.2878  0.2969  0.2259
12698W        W17098  22.606   2.999  23.797 -0.2133  0.0828 -0.1010
12699W        W17099  16.629   2.544   1.857  0.1184  0.1332 -0.3729
12700W        W17100   4.587   1.146  18.049  0.0834 -0.2403 -0.1760
12701W        W17101  10.395   6.061   9.727 -0.2010 -0.0436  0.0740
12702W        W17102  24.053   5.901   4.124  0.0578  0.0858 -0.1595
12703W        W17103  13.879   4.176  18.935 -0.3140  0.2671 -0.0081
12704W        W17104  15.431   6.044   9.778 -0.0700 -0.2637  0.0681
12705W        W17105   0.549   3.339  17.841  0.0564 -0.0367  0.1235
12706W        W17106  30.552   1.544  22.697  0.0741 -0.2153  0.1123
12707W        W17107   5.731   7.452  17.023  0.0462  0.2369 -0.1203
12708W        W17108   3.488   4.047  23.612 -0.0179  0.3069 -0.3406
12709W        W17109  25.907   7.478  24.847 -0.2643 -0.0770 -0.0424
12710W        W17110  13.492   4.124   8.039  0.1089 -0.0674 -0.1308
12711W        W17111  17.528   7.720  23.183  0.0553  0.3140 -0.1020
12712W        W17112   9.449   5.255   3.341  0.0423  0.0452 -0.1242
12713W        W17113  12.935   6.732   7.067  0.3316  0.1661  0.3368
12714W        W17114  15.546   7.509  11.552  0.3202  0.4982 -0.0757
12715W        W17115  16.323   0.030  10.928 -0.0670 -0.3047  0.0255
12716W        W17116   1.581   1.790   3.706  0.0695  0.1948 -0.2457
12717W        W17117   2.788   2.612  21.016  0.0082 -0.0070 -0.1778
12718W        W17118  28.336   6.210  23.155  0.1311 -0.0057 -0.2836
12719W        W17119  30.651   7.016  20.059 -0.0127 -0.0133  0.1514
12720W        W17120  16.584   3.412  23.854 -0.0887  0.6049 -0.0132
12721W        W17121   7.510   5.103  22.153  0.0928 -0.1848  0.2475
12722W        W17122   3.439   2.981  25.936 -0.0539  0.2264 -0.0986
12723W        W17123  12.349   0.587  18.631 -0.0959 -0.3151 -0.2966
12724W        W17124  20.647   4.614   9.275  0.0133  0.0236 -0.3135
12725W        W17125  27.616   1.412  21.317  0.2212  0.0065 -0.1143
12726W        W17126  21.543   6.654   7.406  0.1601 -0.0646  0.3008
12727W        W17127  30.700   4.140   8.984 -0.0618 -0.2116  0.2678
12728W        W17128   9.773   0.448  23.344 -0.1002 -0.1576 -0.2346
12729W        W17129  24.223   4.306  21.959  0.0978 -0.1430 -0.0071
12730W        W17130  30.407   1.432  25.550 -0.0124 -0.4069  0.2289
12731W        W17131  28.988   2.011  18.258 -0.0895  0.2271 -0.2015
12732W        W17132  10.203   7.822  23.939 -0.1204 -0.3697  0.3382
12733W        W17133  19.654   3.897   1.832  0.0075  0.0069 -0.0657
12734W        W17134  16.185   6.569  15.711  0.4166 -0.3177  0.1182
12735W        W17135   5.277   2.486  20.273 -0.2147 -0.0767  0.3367
12736W        W17136   1.340   6.270  20.765 -0.0078  0.2055  0.0395
12737W        W17137   3.307   6.241   8.672  0.0210 -0.0027  0.1110
12738W        W17138  12.762   4.028  18.262  0.0500  0.1022  0.0517
12739W        W17139   6.854   3.089   2.258  0.2135 -0.0733 -0.1036
12740W        W17140  30.326   4.434  17.290  0.0976  0.0791  0.2847
12741W        W17141  19.034   4.435   2.014  0.0827 -0.2200 -0.0131
12742W        W17142   8.428   1.342   0.310 -0.0559 -0.1504  0.1136
12743W        W17143  23.303   0.035   5.198 -0.2859  0.0230  0.0217
12744W        W17144  30.870   2.437   0.189  0.0547 -0.0072  0.0822
12745W        W17145  18.232   2.539   8.700  0.2191 -0.1459 -0.1846
12746W        W17146  19.390   6.211  24.684  0.0556  0.2025  0.2597
12747W        W17147   2.520   0.829   7.271  0.2961 -0.3347 -0.1052
12748W        W17148  20.040   6.657   0.029 -0.1980  0.1984 -0.1679
12749W        W17149  16.121   3.098   2.333 -0.2320  0.0878 -0.1976
12750W        W17150  19.830   4.449  17.806 -0.0379  0.3176  0.1005
12751W        W17151  26.668   0.838  19.218 -0.2222 -0.0712 -0.1140
12752W        W17152  25.540   4.279   0.684  0.1113  0.1870 -0.2782
12753W        W17153  19.669   1.745   5.195 -0.0193  0.2252 -0.3037
12754W        W17154  24.274   6.300  23.433  0.2517 -0.0892 -0.0177
12755W        W17155   9.732   7.324  23.307  0.2087  0.1765  0.0283
12756W        W17156   8.979   7.224   9.003 -0.0735 -0.0002  0.0203
12757W        W17157  20.831   4.033   0.158 -0.1144  0.4228 -0.1230
12758W        W17158  20.384   6.095  11.160 -0.0672 -0.4258 -0.0311
12759W        W17159   9.744   3.820  19.656 -0.0216 -0.2473  0.1462
12760W        W17160  18.127   0.449  15.160 -0.2211 -0.2443 -0.1342
12761W        W17161  10.927   6.380   4.737 -0.1998 -0.1294 -0.0818
12762W        W17162  19.186   5.525   4.825 -0.1133  0.0689  0.2533
12763W        W17163  11.469   1.370  10.228 -0.0115 -0.0837  0.1263
12764W        W17164   1.384   0.836   6.696 -0.1338 -0.0092  0.0491
12765W        W17165  19.547   5.064  21.368 -0.2373  0.1502 -0.1021
12766W        W17166  24.192   6.524  10.484  0.1408 -0.2213  0.0533
12767W        W17167  23.186   2.737  22.516  0.0529 -0.0976  0.3180
12768W        W17168   3.494   1.058   4.456 -0.1170  0.5360  0.0136
12769W        W17169  10.902   5.251  17.012  0.1284  0.0803  0.0947
12770W        W17170  17.885   4.659  18.040 -0.0492 -0.0280 -0.3307
12771W        W17171   4.626   6.877  17.784  0.0072 -0.0693  0.2248
12772W        W17172  21.370   4.419  25.402  0.1944 -0.1973 -0.0494
12773W        W17173  15.754   7.034   3.391 -0.3675 -0.2388  0.2500
12774W        W17174  27.935   5.279   8.727 -0.2487  0.0674 -0.1256
12775W        W17175  16.644   7.443  15.586  0.1630  0.2963 -0.1100
12776W        W17176   8.577   4.940  15.851 -0.2256 -0.1706 -0.1423
12777W        W17177  14.809   4.874  16.730 -0.1881 -0.0371 -0.0403
12778W        W17178  28.603   4.583   3.629 -0.2443  0.0635 -0.0122
12779W        W17179  28.733   5.016   2.177  0.1856  0.1652  0.3025
12780W        W17180  27.166   1.600   9.956  0.1614  0.1524 -0.0109
12781W        W17181  31.376   4.047   1.410  0.0704 -0.0586  0.1178
12782W        W17182  23.675   2.168  20.373 -0.1229 -0.4045  0.1196
12783W        W17183  21.361   5.348  19.358  0.0649 -0.0677 -0.1282
12784W        W17184  14.683   2.414   4.258  0.1215 -0.0354  0.0210
12785W        W17185  19.538   5.667   6.714 -0.1118 -0.1279 -0.2922
12786W        W17186  16.921   6.174  24.993  0.0085  0.0258  0.0107
12787W        W17187  10.691   1.657   3.789  0.0561 -0.0597 -0.1004
12788W        W17188  28.678   0.242  14.592 -0.1768 -0.3895 -0.0406
12789W        W17189  27.265   4.969   1.412  0.1017 -0.2637 -0.0655
12790W        W17190  11.846   4.374  16.996 -0.2211  0.3107  0.3466
12791W        W17191  30.633   2.448   7.545 -0.1065  0.1207 -0.1609
12792W        W17192  25.639   0.108  22.426  0.1307 -0.0480  0.2243
12793W        W17193   6.552   4.446  24.344  0.3921 -0.2263 -0.0346
12794W        W17194  14.546   4.257  16.106 -0.2975  0.1779  0.0743
12795W        W17195   0.717   5.143   8.902  0.2712  0.0721 -0.2396
12796W        W17196   1.640   4.567   6.135 -0.1163  0.2817  0.4125
12797W        W17197  17.067   0.295   0.243 -0.2513 -0.0386  0.0929
12798W        W17198  25.454   1.114  16.202  0.1460  0.1529 -0.2113
12799W        W17199  13.424   5.454  15.267 -0.4555 -0.0383  0.2487
12800W        W17200  16.923   7.300  23.970  0.0340  0.2256 -0.0025
12801W        W17201   0.813   0.453  25.777  0.2374 -0.0981  0.0590
12802W        W17202  30.085   0.321  10.019  0.0461  0.0117 -0.3667
12803W        W17203   1.507   1.567  18.049 -0.1925 -0.0826  0.0993
12804W        W17204   5.245   5.974   9.489 -0.1165  0.0458  0.2977
12805W        W17205  24.889   3.396  20.091 -0.0783  0.1780  0.0129
12806W        W17206  20.206   4.771  23.042 -0.0231  0.0497  0.0087
12807W        W17207  12.878   4.259  17.761  0.1041  0.1129 -0.1474
12808W        W17208   7.735   2.418  24.240  0.0080  0.0671 -0.0414
12809W        W17209  10.122   0.022   8.684  0.1320  0.1845  0.0325
12810W        W17210  22.911   3.750   8.277 -0.0531  0.0080  0.0437
12811W        W17211   3.719   7.617   2.427  0.0303 -0.2110 -0.1137
12812W        W17212  30.677   7.254  10.661 -0.2944  0.1646  0.1580
12813W        W17213  30.546   0.305  23.198 -0.0296 -0.1614  0.0921
12814W        W17214  18.675   6.651  21.659 -0.0539 -0.2759  0.1287
12815W        W17215  10.108   3.005  19.041  0.1526  0.1239  0.2520
12816W        W17216  15.863   4.414  19.525 -0.2381 -0.1648 -0.0897
12817W        W17217  17.366   5.718  16.773  0.0448  0.1816  0.1545
12818W        W17218   4.520   4.630  21.760 -0.2945  0.0111  0.2370
12819W        W17219   6.455   6.348  17.277  0.0036  0.0961 -0.0950
12820W        W17220  10.925   7.637   2.931 -0.1536 -0.0827  0.2293
12821W        W17221  25.180   0.788   9.218 -0.2267 -0.3437 -0.1231
12822W        W17222  25.739   2.044   2.161  0.0306 -0.0753  0.0077
12823W        W17223  11.243   6.346  20.359  0.1775  0.3235 -0.1080
12824W        W17224   0.606   0.817   8.092  0.2140  0.1922  0.0100
12825W        W17225  12.364   1.522  16.199  0.2009  0.0550  0.3370
12826W        W17226   7.546   5.388   3.831 -0.1896 -0.0758  0.3836
12827W        W17227  21.731   2.109   2.207 -0.1332  0.1751  0.0642
12828W        W17228  14.849   2.567  20.514 -0.1978 -0.2440  0.0442
12829W        W17229  22.160   5.836  25.914  0.0910  0.3305 -0.0826
12830W        W17230  27.940   5.774  18.309  0.1012 -0.1540  0.0845
12831W        W17231  22.221   4.768   3.984 -0.3326 -0.0783 -0.1225
12832W        W17232  13.414   3.044  23.319  0.0036  0.0259  0.2750
12833W        W17233   2.342   0.575   4.006  0.1161  0.1221 -0.0925
12834W        W17234  17.581   0.247   4.795 -0.0360  0.0773 -0.1452
12835W        W17235  28.026   1.990   0.896 -0.0607  0.1547  0.0238
12836W        W17236  29.679   3.422   2.030 -0.0125 -0.0280  0.3880
12837W        W17237   4.899   0.988   6.509 -0.1909 -0.1850 -0.1807
12838W        W17238  13.821   0.324   3.293 -0.1671 -0.1237  0.0359
12839W        W17239   3.446   6.475  18.465 -0.0131 -0.0100  0.1484
12840W        W17240  18.194   2.918  23.370  0.0804  0.2285  0.2722
12841W        W17241  25.577   3.262  19.473 -0.0749  0.1995  0.0836
12842W        W17242  19.628   1.287  21.133  0.0658 -0.1692  0.1123
12843W        W17243   1.311   1.865   1.256 -0.2497  0.0806  0.1947
12844W        W17244  25.335   2.861  19.659  0.4165 -0.2310 -0.0262
12845W        W17245  26.424   3.758   6.781 -0.3156 -0.1148  0.0553
12846W        W17246  12.901   5.308   8.051  0.0487  0.0598 -0.0073
12847W        W17247   9.225   4.752   5.528  0.0490  0.1433 -0.1637
12848W        W17248   8.983   1.382   2.664  0.1702  0.2012 -0.1697
12849W        W17249  17.977   7.277  24.068  0.1605  0.1126  0.2098
12850W        W17250  18.092   5.839  20.311  0.0851 -0.2048  0.3056
12851W        W17251  14.181   7.818  20.781 -0.1281  0.3632  0.1945
12852W        W17252  21.220   6.506  11.170  0.0386 -0.1400 -0.1937
12853W        W17253   2.125   0.097  14.467 -0.0800  0.4370 -0.0022
12854W        W17254  14.393   1.492   0.071 -0.0218 -0.2734  0.1593
12855W        W17255  24.518   0.570  25.312 -0.0705 -0.1403  0.2991
12856W        W17256  29.606   4.809  17.965 -0.1498 -0.3009 -0.2278
12857W        W17257   7.730   5.882   4.214 -0.0822 -0.0641 -0.0301
12858W        W17258  26.245   7.355  20.851 -0.1944  0.0329 -0.1693
12859W        W17259  30.728   1.759  18.123 -0.3866 -0.0421 -0.1079
12860W        W17260  29.548   2.277   6.932  0.2341 -0.2583 -0.0593
12861W        W17261  27.689   2.608   0.152 -0.0357  0.0922  0.4310
12862W        W17262  21.035   0.218  20.280  0.1632 -0.1673  0.0101
12863W        W17263  19.190   2.379   6.384 -0.2023  0.0415  0.3540
12864W        W17264  29.506   7.546  25.410  0.1337 -0.3485 -0.0299
12865W        W17265  26.823   0.865   1.125 -0.3771  0.2343 -0.0160
12866W        W17266   8.915   5.283   3.328 -0.0251  0.1477  0.0231
12867W        W17267  11.646   5.231  21.428 -0.0220 -0.0691  0.1441
12868W        W17268  25.026   5.645  20.259 -0.1491  0.0865  0.0348
12869W        W17269   2.842   6.526  19.869 -0.0662 -0.0881 -0.1781
12870W        W17270  18.174   4.104  11.050 -0.1269 -0.2644  0.3432
12871W        W17271  27.231   4.710  14.714  0.0496 -0.1168 -0.3564
12872W        W17272   1.039   7.041   9.301  0.0475  0.2351 -0.0697
12873W        W17273   7.318   2.442  17.443 -0.0019  0.1950 -0.6713
12874W        W17274  17.869   5.931   0.831 -0.0984  0.2832 -0.1450
12875W        W17275  27.901   4.382   0.823 -0.0397  0.0208  0.0329
12876W        W17276  17.795   1.011   7.386  0.0127  0.2172  0.0077
12877W        W17277  15.789   1.296  25.910 -0.2395 -0.1364 -0.0105
12878W        W17278  19.175   4.304  16.773  0.1413  0.1010 -0.1836
12879W        W17279  26.295   4.163  18.326  0.1728 -0.0776 -0.1439
12880W        W17280   3.835   0.725  22.525 -0.0345  0.1335 -0.2779
12881W        W17281  12.067   0.171  15.119  0.2222 -0.2821  0.1925
12882W        W17282   8.899   7.675  24.967 -0.2462 -0.1731 -0.0974
12883W        W17283   0.518   2.317   0.537  0.0435  0.1540 -0.0178
12884W        W17284  22.147   4.224   7.425 -0.1539  0.2568  0.0695
12885W        W17285   8.502   3.151   9.665  0.2036 -0.0178 -0.2312
12886W        W17286   3.092   4.484  21.556 -0.0511 -0.1134 -0.2124
12887W        W17287  28.395   0.927  15.151  0.0982  0.0024 -0.0545
12888W        W17288  18.200   7.832   0.602  0.0213 -0.0136 -0.0199
12889W        W17289  29.812   3.543   1.557  0.0608 -0.0202  0.5841
12890W        W17290  30.010   6.624   4.269  0.1124  0.0955  0.1011
12891W        W17291  11.305   1.615   0.242 -0.2471 -0.1007  0.1593
12892W        W17292  21.386   3.417  25.880 -0.2764 -0.0159 -0.1037
12893W        W17293  13.473   6.217   0.465 -0.4340  0.0732  0.0625
12894W        W17294  12.769   3.882   1.663  0.0593 -0.1059  0.1469
12895W        W17295  30.184   6.245   5.487 -0.2071 -0.1489  0.1881
12896W        W17296   9.830   6.818   7.245 -0.2522 -0.2837 -0.2092
12897W        W17297  12.444   3.952   9.835  0.0924  0.0945 -0.0656
12898W        W17298  18.628   1.750   5.400  0.0932  0.0603 -0.0138
12899W        W17299  18.933   0.213   1.053  0.0939  0.3172 -0.0329
12900W        W17300   2.839   3.701  21.781 -0.3490 -0.1701 -0.2744
12901W        W17301  13.631   0.892  18.828  0.0888 -0.1183  0.2616
12902W        W17302  27.257   3.681   7.992 -0.1491  0.0882 -0.0335
12903W        W17303  28.207   7.629  23.925 -0.1310 -0.1130  0.2070
12904W        W17304  15.662   4.176  22.086  0.0449  0.0754 -0.0948
12905W        W17305   3.789   2.301  24.426  0.0815  0.1670 -0.0983
12906W        W17306   2.793   3.578  21.256 -0.0804  0.1598 -0.0389
12907W        W17307  14.135   7.083   1.990  0.1027  0.0045  0.2008
12908W        W17308  13.977   6.466  24.834 -0.3213  0.0894  0.0485
12909W        W17309   0.799   4.212   5.819  0.0407  0.0012  0.2650
12910W        W17310  17.161   2.304  25.446 -0.0119 -0.0971 -0.3154
12911W        W17311  18.079   1.146   1.167  0.0177  0.0577 -0.0426
12912W        W17312  17.512   7.071  19.075  0.0526  0.1068  0.2506
12913W        W17313  24.049   0.920   0.779  0.0108  0.1424  0.1552
12914W        W17314   9.020   3.727   6.520 -0.0184  0.1500  0.2737
12915W        W17315  27.048   6.858   1.112  0.3933 -0.2537 -0.0529
12916W        W17316  22.543   7.632  18.085  0.0744 -0.1710 -0.2343
12917W        W17317  29.083   4.426  15.559 -0.1119  0.1454  0.0352
12918W        W17318  26.696   7.391  24.385 -0.0757  0.0662 -0.0134
12919W        W17319   1.859   6.786   5.157  0.1471 -0.2691  0.1601
12920W        W17320  15.619   0.830  17.020 -0.0720 -0.1024 -0.0188
12921W        W17321  23.528   4.690  25.480 -0.0970  0.0512  0.1466
12922W        W17322   0.391   7.791   6.577  0.2087  0.2247 -0.2790
12923W        W17323   1.145   0.229  15.410  0.1576  0.0127  0.1549
12924W        W17324  20.241   1.885  25.727 -0.2792 -0.1278 -0.2089
12925W        W17325  20.732   6.134   0.167 -0.3805  0.0972 -0.1679
12926W        W17326  14.000   7.200   5.123 -0.1059 -0.1909 -0.0091
12927W        W17327   3.295   0.452  23.356  0.0956  0.0436  0.0164
12928W        W17328  10.116   2.081   0.526  0.1642  0.2840  0.3219
12929W        W17329  25.517   2.968   5.462 -0.0466 -0.0795 -0.1711
12930W        W17330  19.673   6.436  10.406  0.2170  0.0272  0.2360
12931W        W17331  31.394   5.049  16.536 -0.1853  0.2778  0.0739
12932W        W17332  30.886   5.776  16.992  0.3441 -0.1906  0.0534
12933W        W17333   9.718   3.689   2.219 -0.0519 -0.3088 -0.1092
12934W        W17334   2.200   7.120   9.955  0.2687 -0.2300 -0.0037
12935W        W17335  15.598   4.987   0.379  0.2257  0.4400 -0.3656
12936W        W17336   4.923   7.653   2.468 -0.1120 -0.0857 -0.2277
12937W        W17337  26.421   4.790  14.936 -0.0097  0.2749  0.0858
12938W        W17338  13.766   7.121  10.194  0.1573  0.1950  0.0676
12939W        W17339   0.926   0.886   8.883 -0.2685  0.0156  0.3110
12940W        W17340   4.688   0.629   4.843  0.1787  0.1001  0.1672
12941W        W17341  15.391   2.827  22.254  0.1916  0.2997 -0.0475
12942W        W17342   6.836   2.293   9.539  0.1422 -0.2457  0.2013
12943W        W17343   1.612   1.294   6.624 -0.1753  0.2216 -0.2855
12944W        W17344  10.973   5.454   8.842  0.1775 -0.0175 -0.3288
12945W        W17345   4.476   1.077   4.936  0.0362 -0.0621  0.1547
12946W        W17346  11.892   0.131  17.414 -0.1082 -0.0361 -0.3030
12947W        W17347  12.313   6.546  25.515  0.1282 -0.0546  0.0060
12948W        W17348   3.162   5.774   5.267  0.0355 -0.1818  0.0933
12949W        W17349  17.312   0.595  10.004  0.0923  0.1154 -0.1309
12950W        W17350  19.865   0.905  25.053 -0.0259  0.0597 -0.1079
12951W        W17351   4.922   0.400  24.581 -0.1740 -0.1132 -0.3046
12952W        W17352  20.568   2.617  10.176  0.0048 -0.2011 -0.0699
12953W        W17353  30.541   7.613   1.511 -0.1923  0.1699 -0.0364
12954W        W17354   5.612   1.856  24.093 -0.0470  0.0626 -0.0337
12955W        W17355  18.599   6.875   1.241  0.3447  0.1326 -0.0948
12956W        W17356  13.623   3.897   4.521  0.0394  0.0377  0.3440
12957W        W17357  23.294   4.880   3.547  0.1081  0.1471  0.0439
12958W        W17358  27.024   2.312  16.862  0.0731  0.1241 -0.1941
12959W        W17359  24.254   4.794   5.433 -0.1223  0.2352  0.2116
12960W        W17360  20.991   0.199   1.963 -0.0867 -0.1005  0.0943
12961W        W17361   3.251   2.196   7.875 -0.2114 -0.1409  0.0699
12962W        W17362  26.370   0.968  21.098  0.2660 -0.1920 -0.1557
12963W        W17363   7.504   1.249   5.449 -0.1889  0.0956  0.2008
12964W        W17364   6.981   3.035   5.434 -0.0784  0.1443  0.3399
12965W        W17365  23.483   3.537  10.295  0.0421 -0.0456 -0.1274
12966W        W17366  16.762   1.863   5.646 -0.2887  0.1731  0.2784
12967W        W17367  15.494   3.313  16.498  0.1379  0.0329 -0.0014
12968W        W17368  12.899   3.762  17.811  0.0544 -0.1410 -0.1354
12969W        W17369  16.866   3.856  23.343 -0.2661  0.1831 -0.0436
12970W        W17370  23.863   1.738  18.143  0.2440 -0.1443 -0.2534
12971W        W17371  14.694   5.291   8.637  0.0235  0.2850 -0.0299
12972W        W17372  28.554   1.950  23.166 -0.1068 -0.3140 -0.0588
12973W        W17373  19.930   4.736  17.412  0.0920 -0.0365 -0.0004
12974W        W17374  20.689   1.480  16.057 -0.1096  0.1508  0.1068
12975W        W17375   2.840   6.980  23.808  0.0797 -0.0227  0.0955
12976W        W17376   2.689   4.603  21.937  0.0582  0.2545  0.0418
12977W        W17377  14.696   1.946   5.178  0.1600 -0.2411 -0.5133
12978W        W17378  12.286   6.073  21.297 -0.0917  0.2451 -0.2259
12979W        W17379  10.634   4.109   7.606 -0.0425  0.0173  0.2702
12980W        W17380  13.136   6.139   5.169 -0.2538 -0.1012 -0.1743
12981W        W17381  10.166   4.505  23.428 -0.2847  0.0676 -0.0051
12982W        W17382  11.341   0.499   0.252  0.0576 -0.1303 -0.0515
12983W        W17383  28.001   5.558  19.141  0.0536 -0.0622 -0.1984
12984W        W17384  27.267   7.752  25.376 -0.2004 -0.1008 -0.0638
12985W        W17385   1.206   3.673   4.685  0.1786 -0.0120 -0.0884
12986W        W17386  25.759   2.986  15.924  0.2324  0.2033  0.0917
12987W        W17387  19.268   7.049  23.719 -0.0740 -0.0306 -0.3444
12988W        W17388   1.685   1.301   1.932  0.1016 -0.3214  0.1291
12989W        W17389  25.442   2.377   2.993  0.0367 -0.1176  0.0318
12990W        W17390   2.233   3.755   4.658  0.1685  0.0525 -0.2776
12991W        W17391  12.315   5.601  22.110 -0.0689  0.2427 -0.0369
12992W        W17392   2.296   2.807   1.479 -0.2259 -0.1322 -0.0572
12993W        W17393  10.848   0.171  22.507 -0.0565 -0.3555  0.1552
12994W        W17394   1.491   1.918   5.947  0.1188  0.2415 -0.0556
12995W        W17395   2.602   0.019  17.596 -0.1166  0.0238 -0.1539
12996W        W17396  10.205   5.260  24.531 -0.0535 -0.1264  0.0413
12997W        W17397   5.517   7.840  25.888  0.0834  0.1892  0.2846
12998W        W17398  27.147   2.641  17.174  0.0094 -0.0199 -0.2645
12999W        W17399   5.173   5.267  15.783 -0.1078 -0.0816  0.0553
13000W        W17400   3.525   5.314  25.561  0.0901  0.0090  0.0715
13001W        W17401  17.091   2.538   7.661  0.0591 -0.2426  0.1825
13002W        W17402   0.390   3.576   9.979  0.0632  0.0741 -0.1139
13003W        W17403   4.769   3.018   8.280  0.0666  0.2893 -0.2148
13004W        W17404  18.637   1.694   1.806 -0.2020 -0.1367  0.0296
13005W        W17405   2.479   1.411  22.486 -0.1447 -0.2142  0.0872
13006W        W17406  22.376   3.496  18.495  0.2734  0.4133  0.2497
13007W        W17407  12.256   5.244  25.258  0.1708 -0.0819 -0.2556
13008W        W17408   2.462   5.896  20.146 -0.0297  0.0666  0.1702
13009W        W17409   5.054   3.267   4.718  0.1413 -0.0101  0.0299
13010W        W17410   6.108   4.247   9.910 -0.2797 -0.2836 -0.0164
13011W        W17411  22.210   5.192   0.280 -0.0369  0.0327  0.1694
13012W        W17412  10.479   7.002   2.054 -0.1288  0.0336 -0.0853
13013W        W17413  13.153   7.018  19.406 -0.1782 -0.0342  0.1803
13014W        W17414  18.822   6.275  24.782  0.0262  0.2356 -0.0734
13015W        W17415  17.117   2.719  11.421 -0.0551 -0.0456  0.1214
13016W        W17416  20.795   5.114  25.094  0.3035 -0.0796 -0.4541
13017W        W17417  18.168   5.651   7.138 -0.0925  0.0291 -0.0127
13018W        W17418  19.980   4.566   4.373  0.3554 -0.1263  0.2174
13019W        W17419  15.826   7.224   4.772 -0.5034 -0.2839 -0.0612
13020W        W17420  22.228   3.596  17.150  0.1466  0.0587  0.0604
13021W        W17421  26.537   1.361   0.791  0.1671  0.1607  0.0145
13022W        W17422  26.165   6.558  23.532 -0.0004 -0.0443 -0.2357
13023W        W17423  12.585   4.749  22.402  0.1109  0.3301 -0.1284
13024W        W17424   4.176   4.394   6.234 -0.1839 -0.1224  0.0747
13025W        W17425   2.726   6.603   6.743 -0.2046 -0.1039  0.0263
13026W        W17426   1.681   4.049  24.329 -0.0177 -0.1643 -0.1827
13027W        W17427  10.188   0.379  21.169  0.0884  0.3125  0.1553
13028W        W17428   4.320   0.659  19.322  0.1446  0.0233 -0.1517
13029W        W17429  10.980   7.553  22.250 -0.1823 -0.0050  0.0467
13030W        W17430  21.680   3.364   3.549 -0.0028  0.1031  0.1532
13031W        W17431   3.408   0.130  20.094  0.1457 -0.1449  0.2207
13032W        W17432  10.691   7.641  18.101  0.1353 -0.0699 -0.1595
13033W        W17433  15.813   1.279   3.307  0.0223  0.0381 -0.2808
13034W        W17434  15.965   3.613  19.398 -0.0066  0.1027 -0.1034
13035W        W17435   2.678   1.668   4.592 -0.1951 -0.1860 -0.0033
13036W        W17436   8.591   7.808   6.359  0.0443  0.1318 -0.1081
13037W        W17437  18.919   5.129  17.925 -0.3688  0.2710  0.0930
13038W        W17438   7.727   5.895   5.873 -0.0996 -0.2942  0.2661
13039W        W17439   9.348   3.912  21.167  0.1800 -0.0566 -0.0209
13040W        W17440  21.042   2.349  20.461  0.0802  0.1447 -0.0627
13041W        W17441   1.040   3.938   4.049  0.2260  0.0026  0.2040
13042W        W17442  25.415   4.596  24.057 -0.0976 -0.0742 -0.2531
13043W        W17443  17.566   7.626   6.989 -0.1511  0.1124  0.2621
13044W        W17444  28.612   1.781  16.687  0.2936 -0.4196 -0.5275
13045W        W17445  18.606   5.458  17.596  0.1206 -0.1812  0.1572
13046W        W17446  28.968   2.229   8.101  0.0313  0.0265  0.0915
13047W        W17447  21.080   1.089  23.316  0.3188 -0.0012 -0.3368
13048W        W17448  20.940   2.080   9.296  0.1583 -0.1405  0.3069
13049W        W17449  24.396   3.936   8.361  0.0224  0.0986  0.2402
13050W        W17450   5.778   1.642  18.992  0.2359 -0.1274  0.0289
13051W        W17451   4.387   2.683   9.054 -0.1973 -0.2186 -0.2387
13052W        W17452  11.833   1.677   9.307 -0.2630  0.0312  0.0056
13053W        W17453   4.659   5.683   7.247 -0.0357  0.0682 -0.1857
13054W        W17454  25.384   5.750   7.335 -0.0459  0.0241  0.0886
13055W        W17455  28.859   3.472   6.238 -0.0803  0.1808  0.3212
13056W        W17456   9.697   6.815  24.878  0.1531 -0.0679  0.2047
13057W        W17457  14.622   0.621   4.713 -0.3388 -0.0195  0.1837
13058W        W17458  29.095   2.222   4.918  0.0844 -0.1503 -0.1327
13059W        W17459   8.242   2.637   6.952 -0.0685 -0.2121 -0.0004
13060W        W17460  22.288   4.575   9.964 -0.0538 -0.2088 -0.2796
13061W        W17461   3.989   3.153  10.401  0.0130  0.1113  0.0376
13062W        W17462   4.170   6.366   3.189 -0.0812 -0.3128 -0.0466
13063W        W17463  14.965   6.400   8.979 -0.2557 -0.1435 -0.3531
13064W        W17464   8.788   2.291   0.592  0.0167  0.0952 -0.0946
13065W        W17465  20.918   3.435  22.158  0.1845  0.1687  0.1492
13066W        W17466  12.366   4.298   4.624 -0.2278  0.0251 -0.2829
13067W        W17467   1.386   4.992  18.573 -0.2334  0.3414 -0.3509
13068W        W17468  23.961   7.577  20.952 -0.0146  0.3752  0.1103
13069W        W17469  29.703   0.979  22.871 -0.0904 -0.0141 -0.1608
13070W        W17470  30.360   7.705   2.656  0.3802 -0.0271  0.0241
13071W        W17471  12.517   4.037  24.671  0.1184  0.4529  0.0547
13072W        W17472  26.819   7.628  15.956 -0.0101  0.0718 -0.3332
13073W        W17473   7.548   5.436  21.770 -0.2346 -0.0042  0.0764
13074W        W17474  26.319   6.451   3.004 -0.2694 -0.3040  0.1867
13075W        W17475  25.283   0.449   7.547  0.0581  0.1667 -0.0406
13076W        W17476  25.752   3.637  19.131  0.0374  0.1047  0.0596
13077W        W17477  19.422   3.499   8.218 -0.0881  0.1241 -0.0329
13078W        W17478   5.522   1.545  15.973  0.0716  0.1416 -0.1351
13079W        W17479   8.720   5.445  21.009 -0.0497 -0.0567  0.0562
13080W        W17480  12.206   3.793  21.431 -0.0907 -0.0012  0.2768
13081W        W17481  28.310   1.306  19.711 -0.1982 -0.0643  0.0036
13082W        W17482   0.696   5.168  22.918  0.0510  0.0153 -0.0365
13083W        W17483  28.086   6.383  16.955  0.1170  0.0705 -0.0261
13084W        W17484   6.279   4.910   3.656  0.2157  0.2378  0.1773
13085W        W17485  29.432   6.088   3.622  0.4876  0.1369  0.1314
13086W        W17486  30.575   4.837   4.191 -0.3883  0.0046  0.0746
13087W        W17487  16.627   5.026  23.115  0.0572  0.1733 -0.1304
13088W        W17488   3.476   6.724  21.071  0.0825 -0.1281 -0.0897
13089W        W17489  23.933   4.655   9.912  0.0538  0.1376 -0.3627
13090W        W17490  30.684   0.635   9.498 -0.2522  0.0306 -0.0143
13091W        W17491   1.349   4.806  19.068  0.1447  0.3869 -0.0739
13092W        W17492   6.795   2.870   1.049  0.0617  0.2400 -0.0787
13093W        W17493   4.682   1.837   6.032 -0.1207  0.1394  0.0278
13094W        W17494  28.497   0.464   2.994 -0.1311  0.1022 -0.0543
13095W        W17495   4.160   2.805   8.247 -0.1196  0.0700  0.0529
13096W        W17496   3.177   3.839  25.261  0.1460  0.0576  0.0313
13097W        W17497  21.025   6.803   3.648  0.1381  0.2388  0.2244
13098W        W17498  19.777   0.612  10.571  0.0896 -0.2811  0.3255
13099W        W17499  17.701   4.322   9.918  0.0256 -0.1415  0.4083
13100W        W17500  24.669   1.280  23.237  0.0538 -0.0442 -0.2131
13101W        W17501   7.432   4.227   7.360  0.2878  0.1339 -0.0543
13102W        W17502  25.487   6.643   3.485 -0.2496 -0.0551  0.1477
13103W        W17503  10.103   4.547  25.648 -0.5051 -0.0329 -0.0052
13104W        W17504   0.933   7.017   1.941 -0.1427 -0.0317  0.0689
13105W        W17505  25.728   2.010   6.784  0.1281  0.0197  0.1237
13106W        W17506  11.953   0.772  17.938 -0.0528  0.0090 -0.1047
13107W        W17507   0.904   2.559   0.677 -0.0727  0.0065 -0.0750
13108W        W17508   5.628   3.597   3.588 -0.1167  0.2516 -0.1110
13109W        W17509  11.224   7.336   7.755 -0.0776 -0.0021 -0.3021
13110W        W17510  20.980   2.254   1.233 -0.2363  0.1829 -0.0687
13111W        W17511  17.587   3.571  19.583 -0.1673 -0.1734  0.0351
13112W        W17512  25.349   6.367  16.689  0.2180 -0.0085  0.0995
13113W        W17513  26.383   5.666  18.136 -0.1750  0.2679  0.0853
13114W        W17514  24.206   1.153  11.384 -0.0350 -0.0548 -0.1806
13115W        W17515  31.331   1.908  19.876 -0.0336  0.2632 -0.1795
13116W        W17516  17.465   7.686   4.510  0.2307  0.0802 -0.2233
13117W        W17517  30.819   5.094   9.813  0.1320 -0.0378  0.4036
13118W        W17518   1.266   2.988  13.914  0.3366 -0.2419 -0.2350
13119W        W17519   0.658   3.962  24.939 -0.3025  0.0538 -0.0164
13120W        W17520  19.528   4.285  16.447  0.3763  0.0062  0.0289
13121W        W17521   7.180   6.961   4.430  0.0051  0.0882 -0.2995
13122W        W17522  12.428   4.963   1.085 -0.1559 -0.0484  0.1582
13123W        W17523  30.525   6.200  18.193  0.0175  0.1886 -0.0836
13124W        W17524  15.454   6.994  11.602  0.2332 -0.1767 -0.1431
13125W        W17525   9.117   1.155   6.633  0.0484 -0.0257  0.1464
13126W        W17526   9.681   5.961  20.798 -0.5847  0.1750  0.0453
13127W        W17527  11.122   7.304   4.403  0.1022  0.2571  0.1121
13128W        W17528  29.703   0.867  21.539 -0.2049  0.2405 -0.0328
13129W        W17529  23.867   6.426  16.869  0.3080 -0.0674 -0.0727
13130W        W17530  14.194   2.341   6.833  0.0540 -0.0521  0.2585
13131W        W17531  19.642   1.344  22.577 -0.1606 -0.1437 -0.1482
13132W        W17532  20.513   3.147   4.895 -0.1890  0.1753 -0.1152
13133W        W17533  31.398   2.878  17.180  0.2032 -0.1538  0.2885
13134W        W17534  25.075   5.529   6.226 -0.1257  0.1424 -0.2212
13135W        W17535   6.430   6.533  20.473  0.2293 -0.0088 -0.2489
13136W        W17536  17.904   3.116   5.726  0.2403 -0.1611 -0.0808
13137W        W17537   2.607   7.542  21.366  0.0876  0.0248 -0.1466
13138W        W17538  29.572   7.066  25.645  0.3420 -0.0307  0.0805
13139W        W17539   6.727   3.422   7.328  0.1466 -0.0323  0.2036
13140W        W17540  14.279   2.443   4.701  0.1859  0.0516  0.0123
13141W        W17541  27.340   0.507   8.402  0.3635 -0.1795 -0.1715
13142W        W17542   9.834   7.740   0.370 -0.0017 -0.0832 -0.2225
13143W        W17543   2.377   0.918   0.862 -0.0454  0.0899  0.3907
13144W        W17544  18.319   3.782   4.528 -0.0720 -0.4743 -0.1079
13145W        W17545  15.584   1.576   7.052 -0.0209 -0.2177 -0.0263
13146W        W17546  11.660   0.266   8.535  0.3141 -0.3079 -0.0373
13147W        W17547  14.511   3.326  17.596 -0.1637 -0.0622  0.1986
13148W        W17548   5.272   3.276   8.712  0.2990 -0.1080 -0.1551
13149W        W17549  16.055   4.464  16.907  0.0054 -0.2314  0.0604
13150W        W17550   3.635   4.922  23.481  0.0259 -0.1188 -0.0639
13151W        W17551  30.157   7.272   2.478 -0.2565  0.0904  0.1249
13152W        W17552   8.962   1.814   2.204  0.1647 -0.0113 -0.2078
13153W        W17553  26.279   4.909   3.278 -0.2151  0.0495  0.2850
13154W        W17554  18.060   6.196  23.990  0.0540  0.1966  0.0101
13155W        W17555  27.106   7.019  17.336  0.0659 -0.0784 -0.1602
13156W        W17556  17.068   1.628  21.424  0.1983  0.2079 -0.1725
13157W        W17557  22.686   7.491  21.885  0.2573  0.1205  0.0246
13158W        W17558  17.081   6.146  25.466 -0.2284  0.0280 -0.0510
13159W        W17559  17.433   1.512   5.044 -0.2107  0.0059  0.1463
13160W        W17560  25.296   4.946   6.050  0.0811 -0.3563 -0.1279
13161W        W17561  25.425   4.090  18.790 -0.4019 -0.0601  0.2205
13162W        W17562   3.819   1.264   9.229 -0.2238  0.0891 -0.4617
13163W        W17563  20.000   2.807   8.823 -0.2054 -0.0086  0.1426
13164W        W17564   5.937   7.721  17.387  0.1923 -0.3142 -0.1424
13165W        W17565  13.447   2.831   2.850 -0.2571  0.1047 -0.1087
13166W        W17566  10.462   3.115  22.193  0.1622  0.1055  0.1563
13167W        W17567  27.213   0.103   7.919 -0.1012 -0.0295  0.2926
13168W        W17568   4.774   7.181  25.813 -0.4524 -0.1185 -0.1073
13169W        W17569  26.633   7.230   7.724 -0.1569 -0.0123  0.2314
13170W        W17570   8.784   1.758  23.954 -0.1470 -0.0491  0.1307
13171W        W17571  20.862   6.803   9.810  0.3337  0.2089 -0.0539
13172W        W17572   5.837   1.361  22.279  0.1721  0.1482 -0.0317
13173W        W17573  23.870   1.865   0.959  0.0085  0.1182 -0.1882
13174W        W17574  21.824   4.319  15.629  0.1408 -0.3861  0.2426
13175W        W17575  20.806   0.462   7.011  0.1638  0.1298 -0.1542
13176W        W17576   0.234   5.080  19.900 -0.1005 -0.2805  0.1163
13177W        W17577  20.216   5.130   6.798  0.0656  0.4057  0.0816
13178W        W17578  13.136   3.757  25.418 -0.0073 -0.2557  0.1326
13179W        W17579   4.351   6.654   9.251  0.0390  0.2283  0.4094
13180W        W17580   7.587   4.309  19.327  0.2391 -0.0532 -0.1928
13181W        W17581  20.901   5.447  21.612  0.0831 -0.0653  0.0813
13182W        W17582   0.125   1.122  17.536  0.0877  0.1286 -0.0440
13183W        W17583   5.841   4.064  24.457  0.0696 -0.2798 -0.0052
13184W        W17584  29.476   2.661   4.768  0.3459 -0.1042 -0.1740
13185W        W17585   6.618   7.237   7.533  0.0546 -0.0409 -0.0218
13186W        W17586  28.023   1.841   5.484 -0.2131  0.4561  0.0899
13187W        W17587  12.562   6.252  18.607  0.0655 -0.0398 -0.1408
13188W        W17588  20.256   7.186  20.855 -0.3503 -0.0258  0.0373
13189W        W17589   6.534   0.229  22.093  0.0513  0.1884 -0.1997
13190W        W17590  17.660   6.174  19.688 -0.2813  0.1375 -0.1904
13191W        W17591  10.494   7.771  16.482  0.1451 -0.0684  0.0842
13192W        W17592  14.346   0.286   3.602 -0.4238 -0.1331 -0.0911
13193W        W17593  26.017   3.919  17.191  0.0822 -0.4683 -0.1006
13194W        W17594  14.565   5.598   2.553  0.2133  0.0633  0.0800
13195W        W17595   5.716   6.188   5.138 -0.0094 -0.0222 -0.1432
13196W        W17596  17.562   7.638   5.318 -0.0112  0.2346 -0.0835
13197W        W17597   6.736   6.951  16.180  0.1947 -0.1348 -0.1206
13198W        W17598   5.229   3.897   1.499 -0.0664 -0.1027 -0.0787
13199W        W17599  18.453   5.248  23.090 -0.1496 -0.0344  0.0015
13200W        W17600  17.068   7.690  25.457 -0.1568 -0.2824  0.0436
13201W        W17601  19.627   7.246   5.860 -0.0077  0.0285 -0.1681
13202W        W17602  12.534   5.344  20.536  0.2822 -0.0190 -0.3387
13203W        W17603  16.927   6.515   5.618 -0.1168  0.2382  0.0087
13204W        W17604  11.694   0.806   8.604  0.0315  0.0750 -0.0090
13205W        W17605  18.478   7.264   8.662 -0.0501  0.1783 -0.0321
13206W        W17606   3.452   6.709   8.876  0.2967  0.1249 -0.1241
13207W        W17607  14.110   0.101  16.180  0.1615  0.0877 -0.2805
13208W        W17608  29.385   6.765  20.553  0.2985  0.2125  0.3232
13209W        W17609  15.948   2.284   0.258 -0.0880  0.0259  0.2477
13210W        W17610  30.550   1.227   0.453 -0.0039  0.1615  0.0469
13211W        W17611  14.703   0.537  19.597  0.1981  0.0905  0.1295
13212W        W17612  14.314   6.925  20.578 -0.1037 -0.1967  0.0126
13213W        W17613   2.288   5.561  21.605  0.2395 -0.0034  0.2916
13214W        W17614   0.358   6.959   5.988  0.3722  0.2126  0.2088
13215W        W17615  15.313   2.598  21.561  0.1429 -0.2138 -0.1866
13216W        W17616   3.359   4.067  21.878 -0.2038 -0.0347  0.2620
13217W        W17617  25.283   7.335  22.627 -0.1984  0.3079  0.0969
13218W        W17618   0.613   5.527  23.651  0.0455  0.0112  0.2129
13219W        W17619  27.703   0.388  15.177 -0.1856  0.1639 -0.0531
13220W        W17620   8.115   7.596   3.200  0.0482 -0.0098  0.1196
13221W        W17621   0.677   0.326   8.837  0.3181 -0.2573 -0.3423
13222W        W17622   7.799   2.306   5.712  0.1248  0.3536  0.3081
13223W        W17623  10.781   2.507   8.339 -0.0085  0.0127  0.0564
13224W        W17624   8.268   5.352  18.445  0.0642  0.1689 -0.0049
13225W        W17625  26.133   4.139  11.355  0.1800  0.0097  0.1624
13226W        W17626  15.135   7.117  23.500 -0.0844 -0.2393  0.2240
13227W        W17627   3.803   5.576   4.639  0.0613  0.0362  0.0707
13228W        W17628   0.497   6.062   5.632 -0.1403 -0.0639 -0.3903
13229W        W17629  27.058   0.350   7.085 -0.0768  0.3561  0.0412
13230W        W17630  20.059   3.093   5.638  0.3504 -0.2182 -0.0415
13231W        W17631   6.404   6.105  22.364 -0.1689 -0.0632  0.3322
13232W        W17632   3.868   3.050  21.214  0.0882  0.1561  0.1656
13233W        W17633  24.137   0.357  26.053  0.1907  0.0221  0.1156
13234W        W17634  17.687   7.802  11.060  0.2610  0.1153 -0.2297
13235W        W17635  23.609   6.986   4.948 -0.2459 -0.2753 -0.0623
13236W        W17636  20.397   1.824   2.511 -0.1085  0.0405 -0.0323
13237W        W17637  21.350   1.283  16.869  0.0090  0.1534  0.0370
13238W        W17638  28.739   4.454  23.632  0.0741 -0.0549  0.0465
13239W        W17639  28.124   7.151   4.956  0.2816  0.1519  0.0722
13240W        W17640   0.740   7.495  15.556  0.3060 -0.0782  0.1103
13241W        W17641   6.601   2.877   3.583  0.1228  0.0282  0.1459
13242W        W17642   4.608   3.433  22.757  0.2083 -0.0468 -0.0345
13243W        W17643  20.255   5.613  11.145 -0.1075  0.0886 -0.1476
13244W        W17644  19.958   1.308   6.438  0.1232  0.1787  0.1874
13245W        W17645  28.654   6.654   0.196 -0.1878  0.1003 -0.2810
13246W        W17646  18.902   4.378  20.431  0.0737  0.1468 -0.2869
13247W        W17647  20.425   7.101  18.670  0.2205 -0.2461 -0.0336
13248W        W17648   2.471   5.507   0.242 -0.0856  0.4732 -0.1165
13249W        W17649  13.122   1.177   3.540 -0.1550 -0.0418 -0.3187
13250W        W17650  15.087   4.552   4.000 -0.0468  0.2600 -0.0222
13251W        W17651   5.130   5.692  15.069 -0.0388 -0.3350  0.1808
13252W        W17652  20.145   4.422   8.317 -0.1732 -0.1842  0.1440
13253W        W17653   5.225   1.799   4.398 -0.0617 -0.0723 -0.1847
13254W        W17654   5.742   7.832  10.234 -0.1602  0.0851  0.1000
13255W        W17655   7.732   2.001   4.963 -0.1322 -0.1666  0.3752
13256W        W17656  21.388   2.589  20.188 -0.0661  0.2155  0.1868
13257W        W17657  25.666   0.100   6.234  0.2247 -0.2497 -0.0368
13258W        W17658   0.925   7.840  22.278 -0.2391  0.0548 -0.0483
13259W        W17659  20.760   6.298   0.659  0.1622 -0.0602 -0.2570
13260W        W17660   5.352   0.994  14.723 -0.0870  0.1050  0.2633
13261W        W17661  14.906   4.603  25.341  0.1141 -0.3059  0.4788
13262W        W17662  22.079   6.996   9.893  0.0365 -0.0816  0.1020
13263W        W17663  13.802   0.208  23.377 -0.4345  0.0139 -0.0798
13264W        W17664  26.617   7.846  18.257  0.1927 -0.0400 -0.2950
13265W        W17665  14.218   1.327   4.171  0.0148  0.0364 -0.3073
13266W        W17666  23.406   4.839  22.035  0.0697  0.0938  0.1924
13267W        W17667   5.064   2.960   2.814 -0.1338 -0.2172  0.0358
13268W        W17668   5.688   3.355  19.284  0.1012 -0.0953 -0.0334
13269W        W17669  12.030   0.672  10.486 -0.0706 -0.2454  0.1166
13270W        W17670  11.569   3.108   0.064  0.1679  0.1997  0.1245
13271W        W17671  28.369   4.660   5.792  0.0523  0.2738 -0.1376
13272W        W17672   3.573   4.729  16.930  0.2413  0.0027 -0.4088
13273W        W17673  16.841   7.639   8.251  0.1415 -0.1880  0.0982
13274W        W17674  12.771   4.535   3.156  0.1798  0.3448 -0.0583
13275W        W17675  17.242   5.990   9.363 -0.1072 -0.0733  0.1434
13276W        W17676  23.967   2.241  17.754 -0.0873  0.0068  0.1597
13277W        W17677  31.395   4.358   3.780 -0.0322 -0.1394 -0.0348
13278W        W17678  13.438   2.687  17.949  0.0165  0.2348 -0.0348
13279W        W17679  22.762   5.863   9.202 -0.1590 -0.1002  0.0160
13280W        W17680  27.025   7.252   6.547 -0.0258 -0.1315 -0.3878
13281W        W17681   3.949   4.119   1.170  0.1346 -0.2469 -0.0835
13282W        W17682   2.068   6.043   8.346  0.3951 -0.2011  0.1581
13283W        W17683  23.345   5.236  18.142 -0.4540  0.0166  0.1198
13284W        W17684  16.838   0.039  10.979  0.0082 -0.0444 -0.1391
13285W        W17685  15.253   4.558  15.325 -0.0677 -0.0450  0.2114
13286W        W17686  13.923   2.402  11.044  0.0368 -0.0885  0.1079
13287W        W17687   8.334   6.764   1.030 -0.0433  0.2704 -0.2700
13288W        W17688   5.552   3.999   6.823  0.1967  0.0356  0.2099
13289W        W17689  13.038   2.391   4.554 -0.0212  0.2380 -0.2588
13290W        W17690   5.736   5.981  18.428 -0.0333 -0.1420  0.0746
13291W        W17691   9.868   3.675  17.068 -0.1910 -0.0448  0.0639
13292W        W17692  14.698   0.325  22.497  0.0086 -0.3416 -0.0294
13293W        W17693  20.453   3.102   3.422  0.0012  0.0960 -0.0042
13294W        W17694  20.974   0.110   6.558 -0.0111  0.0409  0.0543
13295W        W17695  16.818   5.006  21.925 -0.1327 -0.2077 -0.1401
13296W        W17696   3.093   0.283  17.541 -0.0510  0.1441  0.0756
13297W        W17697  11.335   0.038  11.060  0.1334  0.2028 -0.1630
13298W        W17698  11.274   2.136  16.878  0.2004  0.0966  0.1854
13299W        W17699  16.043   3.547  22.762  0.1656  0.0811  0.1071
13300W        W17700   9.005   4.628  15.676  0.1876  0.0830 -0.1861
13301W        W17701   9.860   6.679   2.696  0.0416  0.0072 -0.2538
13302W        W17702   5.965   2.195  24.646  0.2858 -0.0659 -0.1314
13303W        W17703  28.882   1.209  18.445 -0.4242 -0.0407  0.3679
13304W        W17704  12.803   0.669   4.240 -0.1532 -0.2513  0.2400
13305W        W17705  18.781   5.345  19.848  0.3810 -0.0536  0.0206
13306W        W17706  12.225   5.865   1.273 -0.1112 -0.1838  0.0219
13307W        W17707  10.262   4.636   5.488  0.3323  0.2837  0.0135
13308W        W17708   6.317   3.061   7.562 -0.0116  0.1378  0.0637
13309W        W17709  13.089   2.783  21.934 -0.1411  0.0524  0.0760
13310W        W17710  24.535   5.420   9.883 -0.2423 -0.0150 -0.1728
13311W        W17711  16.124   3.450   3.645  0.1469 -0.1075 -0.2418
13312W        W17712  14.329   5.318  19.714 -0.3117  0.0823 -0.0143
13313W        W17713  23.759   4.318  19.405  0.1323  0.3671 -0.0230
13314W        W17714  21.359   3.458  22.456  0.0926 -0.0477  0.1539
13315W        W17715  14.547   7.596  18.394  0.0994  0.2036  0.0300
13316W        W17716  21.008   5.076  23.055 -0.0814 -0.0280 -0.1150
13317W        W17717   5.792   2.369  19.588  0.1811 -0.1001 -0.1533
13318W        W17718   6.471   7.024   0.880  0.2515 -0.0978 -0.1357
13319W        W17719  12.439   5.207   8.898 -0.0529 -0.1534  0.2632
13320W        W17720  17.871   6.549  18.392  0.4614  0.0297  0.2734
13321W        W17721   0.088   6.369  19.237 -0.0685  0.0303 -0.1012
13322W        W17722   3.030   3.140  18.137  0.1401  0.0758 -0.0352
13323W        W17723  28.020   4.979  21.006  0.1649  0.1931  0.2379
13324W        W17724  25.123   1.348   8.734  0.0471 -0.0427  0.2561
13325W        W17725  28.096   3.821  21.212  0.0008  0.0596 -0.4651
13326W        W17726  24.353   5.148  16.213 -0.3299  0.0742  0.1749
13327W        W17727   0.562   1.789  23.764 -0.2623  0.0672  0.1552
13328W        W17728  12.727   6.855   7.596 -0.1379  0.3801 -0.0167
13329W        W17729   3.955   1.981   7.717 -0.1308  0.1720  0.1827
13330W        W17730  12.983   1.118  22.468 -0.0115  0.0076  0.1202
13331W        W17731  18.015   0.660   3.286  0.0607 -0.2502 -0.3203
13332W        W17732  17.355   5.300  16.431 -0.1493  0.0509 -0.0002
13333W        W17733  13.569   6.018   1.045  0.0711 -0.1116  0.1208
13334W        W17734   3.878   5.595   1.635 -0.1784  0.1464 -0.1163
13335W        W17735  30.789   4.748   0.146 -0.1709  0.0985  0.0047
13336W        W17736   7.945   0.981  10.294  0.0200 -0.0069 -0.0295
13337W        W17737  11.626   7.397   9.077  0.1009 -0.3109  0.0374
13338W        W17738   9.700   1.337  10.089  0.2183  0.1478 -0.0364
13339W        W17739  12.053   6.802   2.365 -0.2841 -0.0073  0.1475
13340W        W17740  21.131   1.579   1.684  0.1873  0.0016  0.3049
13341W        W17741   4.995   5.034   1.253 -0.0400 -0.0629  0.1199
13342W        W17742  11.656   3.520   8.185 -0.1358  0.2101 -0.3403
13343W        W17743  26.176   6.084   2.583 -0.0643 -0.3180 -0.2720
13344W        W17744  12.939   1.943   4.270 -0.0532 -0.0159 -0.0801
13345W        W17745  29.296   4.800  23.070  0.2680 -0.2288  0.1298
13346W        W17746  23.575   1.565   5.981  0.0188 -0.1563  0.1570
13347W        W17747  26.564   6.309  20.394  0.1162 -0.4379 -0.0956
13348W        W17748   1.101   1.954   5.599 -0.1003 -0.2170 -0.0064
13349W        W17749  30.107   1.275   6.976 -0.1495 -0.0956 -0.1494
13350W        W17750  23.266   7.023  17.864 -0.2345 -0.0840  0.1498
13351W        W17751  13.410   0.117  19.116 -0.0602  0.0415  0.1521
13352W        W17752  20.696   7.760  20.623 -0.0888 -0.0111  0.2552
13353W        W17753   2.811   1.565  16.850  0.1005 -0.1836  0.2314
13354W        W17754  12.541   3.190  21.263 -0.1187 -0.3259 -0.2601
13355W        W17755  16.192   3.036   7.501 -0.2043  0.2860  0.1248
13356W        W17756  22.908   7.193   4.184 -0.0412 -0.0505 -0.0931
13357W        W17757  10.948   4.372  23.663  0.0696 -0.0486  0.3073
13358W        W17758  29.854   2.719   0.774  0.0288  0.2889  0.0056
13359W        W17759   8.824   4.584  16.747 -0.0500  0.1681  0.0397
13360W        W17760  29.918   2.250  18.193 -0.0653  0.1934 -0.3523
13361W        W17761  19.524   7.630  24.213  0.0700 -0.0104 -0.1130
13362W        W17762   7.046   1.540   3.635 -0.0430 -0.1005 -0.2523
13363W        W17763  30.163   4.943   4.508 -0.1758  0.1326 -0.3561
13364W        W17764   6.971   3.729   1.141  0.4019  0.1551  0.1076
13365W        W17765  15.241   1.226   7.227  0.1095 -0.1598 -0.2027
13366W        W17766  18.433   5.056  15.329 -0.1604 -0.4264  0.3624
13367W        W17767   5.535   0.800   7.226  0.2972  0.0200  0.2515
13368W        W17768  23.713   0.145   0.186 -0.5851 -0.2099 -0.0707
13369W        W17769   3.166   7.786   4.735  0.0854  0.0083 -0.0241
13370W        W17770  22.685   6.246  21.995  0.1341 -0.1034  0.2736
13371W        W17771   3.975   0.975   5.052 -0.0592  0.1120 -0.0924
13372W        W17772  13.706   7.108  21.476 -0.0262  0.1275  0.5222
13373W        W17773  29.815   0.289  15.721 -0.0788  0.0152 -0.3426
13374W        W17774  27.743   1.832   5.908 -0.1021  0.0873  0.1384
13375W        W17775   6.750   5.073  18.169 -0.1266 -0.1221  0.2022
13376W        W17776   6.890   4.956   4.375  0.1380 -0.2379  0.2198
13377W        W17777  18.580   7.388   1.364  0.0391 -0.3301  0.2265
13378W        W17778   0.965   6.526   1.806 -0.0651 -0.1450 -0.0791
13379W        W17779  14.333   0.010  22.664  0.1333 -0.1094 -0.1733
13380W        W17780  23.843   3.474   5.844  0.1037  0.1700  0.0295
13381W        W17781   1.759   1.863  23.663 -0.2036  0.0425  0.1156
13382W        W17782  21.130   4.944  22.577 -0.1269  0.0642  0.0170
13383W        W17783  29.736   0.235   5.621  0.1368 -0.0022  0.0781
13384W        W17784  27.886   4.495   7.788 -0.2240 -0.1020  0.0108
13385W        W17785   9.720   2.656  22.778  0.1172  0.1862  0.1431
13386W        W17786  11.559   7.585  23.157 -0.1003  0.0860 -0.0450
13387W        W17787  11.436   0.913   2.986 -0.0791 -0.1198  0.1343
13388W        W17788   2.259   5.071   0.588 -0.2324 -0.2989 -0.2771
13389W        W17789   4.502   0.622  23.307  0.2207 -0.1172  0.1496
13390W        W17790  14.843   2.617   5.091  0.0098 -0.2223  0.2060
13391W        W17791   4.726   0.033  22.645  0.0823 -0.2161  0.3444
13392W        W17792  15.895   1.136  24.829  0.1311  0.1780 -0.1469
13393W        W17793   4.705   4.708  25.655  0.0683  0.0824 -0.2953
13394W        W17794  12.387   4.182   5.716  0.0600 -0.2052  0.0410
13395W        W17795  29.247   3.782   8.773 -0.3119  0.1571 -0.0602
13396W        W17796   9.309   0.156   6.338 -0.0331 -0.1690 -0.1198
13397W        W17797   8.379   4.990  25.859 -0.2603  0.1268 -0.1463
13398W        W17798   6.921   1.073   9.935 -0.1017  0.0476 -0.2328
13399W        W17799  14.328   3.378   5.209  0.0328  0.2099  0.0147
13400W        W17800   6.275   7.565   3.773 -0.1864 -0.2138  0.4405
13401W        W17801   9.007   6.156  17.877  0.2813  0.0797 -0.0133
13402W        W17802   6.969   7.198  14.513 -0.0225  0.1929 -0.2708
13403W        W17803  31.420   3.809   9.672  0.1260 -0.1065 -0.0847
13404W        W17804  30.843   7.539  25.794  0.0492  0.0073  0.1408
13405W        W17805  23.541   6.485  25.442 -0.1733  0.3026  0.1752
13406W        W17806  27.265   2.722   8.019 -0.0123  0.1246 -0.0757
13407W        W17807  18.297   7.302   3.878 -0.0656 -0.2394  0.2026
13408W        W17808   8.866   5.967   2.264  0.0198 -0.0349  0.0293
13409W        W17809  20.146   6.378   3.092  0.0613  0.0786  0.2842
13410W        W17810  20.196   3.984  23.219 -0.1117 -0.0969 -0.1811
13411W        W17811  27.807   1.828   2.271  0.0641  0.0480 -0.1212
13412W        W17812  12.756   0.518   6.887 -0.1246 -0.0330 -0.1175
13413W        W17813  12.523   7.219  18.054 -0.0101  0.0345  0.2664
13414W        W17814  13.223   4.768   2.180  0.0407 -0.0777 -0.4500
13415W        W17815   0.011   2.917   0.656 -0.1441 -0.1598  0.2914
13416W        W17816  16.528   7.265  25.004 -0.0106 -0.0513  0.0531
13417W        W17817  13.637   0.291   9.279 -0.0098  0.0380 -0.2953
13418W        W17818   3.276   1.092   1.708  0.0601 -0.1003  0.0972
13419W        W17819  28.628   7.651  21.079 -0.1408  0.1923  0.1705
13420W        W17820  17.442   4.842  25.542 -0.2461 -0.0278  0.0721
13421W        W17821  28.280   7.148  24.636 -0.0452 -0.0888  0.2414
13422W        W17822  29.241   2.492  19.071  0.2828  0.0259  0.2809
13423W        W17823   4.723   6.118  19.392  0.1897  0.0042 -0.1162
13424W        W17824   7.882   3.837  23.369 -0.2254  0.4630 -0.1353
13425W        W17825  29.207   2.854  20.499  0.0179  0.3642  0.0215
13426W        W17826  29.891   2.845  10.448 -0.1029  0.2381 -0.2947
13427W        W17827   5.849   3.225   4.113  0.3046  0.1351 -0.0395
13428W        W17828   0.033   3.929   6.197 -0.0053 -0.0210  0.1968
13429W        W17829  30.763   6.902   0.242  0.2342 -0.1075 -0.3400
13430W        W17830  12.830   4.013  26.068 -0.0434  0.0979  0.1218
13431W        W17831  16.911   6.930   1.772 -0.2604  0.0068  0.1755
13432W        W17832  15.588   3.508  23.571  0.0507 -0.1361 -0.1411
13433W        W17833   0.718   5.652   3.051  0.1571  0.0291  0.1671
13434W        W17834  28.080   6.256   9.150  0.0774 -0.0405 -0.1819
13435W        W17835  23.642   5.686  10.901  0.1106 -0.1345  0.1012
13436W        W17836   3.526   6.647  22.644 -0.0878  0.0027  0.0965
13437W        W17837  26.882   7.277  21.557  0.1744  0.0717 -0.4468
13438W        W17838   9.360   6.544   6.518  0.1074 -0.1111 -0.0798
13439W        W17839   8.683   5.098  20.664  0.1311  0.0511 -0.2189
13440W        W17840   3.455   3.022   2.729  0.0577  0.2084 -0.0389
13441W        W17841  14.976   2.859  17.186 -0.2098  0.0444 -0.0118
13442W        W17842   3.985   6.887   2.981  0.0750 -0.0477 -0.3190
13443W        W17843  20.110   4.627   2.247  0.0862 -0.0343  0.0116
13444W        W17844  16.530   0.531   9.242 -0.1244  0.0766 -0.1567
13445W        W17845  20.312   4.920   8.601 -0.0029 -0.0957  0.1020
13446W        W17846  22.132   0.655  23.566 -0.3800 -0.0739  0.3281
13447W        W17847  16.189   7.659  21.040  0.0238 -0.0362 -0.0138
13448W        W17848  17.474   6.873  17.520  0.2757 -0.2321  0.3338
13449W        W17849  24.554   1.677  15.047  0.1746  0.1063  0.0044
13450W        W17850  17.793   4.827  25.106 -0.0843 -0.2132  0.0964
13451W        W17851  25.723   3.449  15.548 -0.1067  0.0466  0.0991
13452W        W17852  25.425   3.655  10.923  0.2089 -0.5396 -0.3064
13453W        W17853  16.506   2.996  22.270  0.0059  0.2323  0.0205
13454W        W17854  19.370   0.590   4.758  0.0778 -0.2492 -0.4849
13455W        W17855  15.643   5.810   8.426  0.1045  0.1005  0.0489
13456W        W17856  26.715   7.654  17.250  0.1288  0.0343  0.1367
13457W        W17857   6.309   2.892   6.505 -0.2146 -0.0289  0.1030
13458W        W17858  28.799   5.975   5.996 -0.0422 -0.0807 -0.0974
13459W        W17859  23.948   0.818  23.609 -0.0959 -0.3663  0.2172
13460W        W17860   6.905   7.042   7.140  0.2250  0.2379  0.1002
13461W        W17861  17.222   3.872   6.868 -0.1213  0.2272  0.0173
13462W        W17862  18.366   5.834  10.762  0.0691  0.2163  0.1094
13463W        W17863  30.950   1.404   8.315 -0.1101 -0.0959 -0.1004
13464W        W17864  22.526   4.934  18.322 -0.0478  0.0606  0.0022
13465W        W17865   7.123   3.536  21.471  0.1238  0.0105 -0.0816
13466W        W17866  24.867   2.600   3.748  0.3735 -0.0245 -0.0761
13467W        W17867  22.182   3.957  20.275  0.2951  0.3004  0.0947
13468W        W17868   4.067   4.073   3.428  0.0868  0.1446  0.0126
13469W        W17869   0.301   5.060   3.519  0.0223  0.1322 -0.0877
13470W        W17870   9.525   1.302   6.274  0.1865  0.2979  0.2469
13471W        W17871   1.964   3.242   1.859 -0.1707  0.2204 -0.1301
13472W        W17872   3.039   6.814  19.384 -0.2051 -0.0929 -0.0632
13473W        W17873  12.233   5.286   1.344 -0.0765 -0.2557 -0.0650
13474W        W17874  11.657   4.472  15.695 -0.0669  0.0383  0.0368
13475W        W17875  15.632   1.760   1.380  0.2459 -0.0627  0.1021
13476W        W17876  28.199   3.142  23.344  0.0305 -0.3118  0.3440
13477W        W17877  10.600   4.026  10.768  0.2145  0.0520  0.0670
13478W        W17878  25.657   5.071  24.241  0.1413  0.1888  0.0703
13479W        W17879   4.168   7.508   2.232 -0.0744 -0.1661 -0.0717
13480W        W17880   1.178   7.217   6.933 -0.0183 -0.2697  0.0010
13481W        W17881  21.740   0.083  21.047 -0.0970 -0.0407 -0.4158
13482W        W17882   7.551   1.113  10.571  0.1869  0.0363 -0.1627
13483W        W17883  18.213   4.963   7.935  0.2742  0.3811 -0.0915
13484W        W17884   5.640   7.184   7.357 -0.1024  0.1947 -0.3270
13485W        W17885   0.425   3.959   9.496 -0.0638  0.1544  0.0255
13486W        W17886  10.477   7.302   1.583  0.0713  0.2334 -0.1299
13487W        W17887  19.178   4.573  19.757 -0.0332  0.2645  0.3022
13488W        W17888  20.568   7.523  16.982 -0.0228 -0.2667  0.0522
13489W        W17889   1.923   5.552   7.444  0.1978  0.2364 -0.0501
13490W        W17890   8.770   4.785   1.922 -0.2178 -0.0850  0.1281
13491W        W17891   0.341   5.027  21.551  0.1877  0.2214 -0.2425
13492W        W17892  28.774   7.021   7.148  0.0486  0.1086  0.0113
13493W        W17893   7.834   5.828  23.921 -0.1436 -0.1939  0.0407
13494W        W17894  18.635   6.242  17.356  0.0503 -0.0112 -0.0907
13495W        W17895  14.253   3.723   8.403  0.0308  0.1486 -0.4600
13496W        W17896  11.400   0.218  22.701  0.1118 -0.4548  0.0878
13497W        W17897  13.065   5.326  24.887 -0.2157 -0.0132 -0.0329
13498W        W17898   5.358   4.493   7.475  0.2583 -0.2036 -0.1054
13499W        W17899   0.754   0.599  15.256 -0.0600  0.1425  0.1280
13500W        W17900   7.489   2.224  17.860 -0.2199  0.0050 -0.1363
13501W        W17901  23.780   6.703  20.925 -0.0891 -0.1940 -0.1929
13502W        W17902  18.370   1.530   6.340 -0.2512  0.4092 -0.0243
13503W        W17903   7.929   0.454   5.322  0.0630 -0.2431  0.1353
13504W        W17904  19.031   3.600   1.412 -0.2222  0.1025  0.1849
13505W        W17905  28.444   3.810  22.739  0.0071  0.0087 -0.0193
13506W        W17906  20.402   2.150   0.390 -0.0479  0.1646 -0.0935
13507W        W17907  14.163   5.195   5.675  0.3795 -0.1527 -0.1489
13508W        W17908  10.554   6.527   2.071 -0.0467  0.1540  0.0296
13509W        W17909  13.789   2.165  21.441  0.0862  0.0119 -0.0825
13510W        W17910   8.589   7.728  22.267 -0.3323  0.1568 -0.0854
13511W        W17911  15.470   3.684   6.442  0.2970  0.0660  0.1433
13512W        W17912  11.991   3.726   0.862  0.1356 -0.3923 -0.1224
13513W        W17913  23.335   2.846  20.645 -0.0690 -0.0710 -0.0363
13514W        W17914   9.325   2.992  25.033 -0.0799  0.1059 -0.1493
13515W        W17915   7.345   3.782  23.603 -0.2525  0.1169  0.0802
13516W        W17916  19.095   3.805   7.946 -0.0320  0.3344 -0.0767
13517W        W17917  30.525   4.811  20.486  0.0055  0.1300 -0.2515
13518W        W17918   2.158   2.706  24.351  0.0224  0.2491 -0.2030
13519W        W17919   3.770   1.982   8.166  0.1455 -0.1282  0.3654
13520W        W17920  24.333   0.712  20.872  0.1552  0.2299  0.2455
13521W        W17921  21.558   6.189   5.755 -0.1259 -0.0031  0.0107
13522W        W17922   8.177   0.155   2.886 -0.0509  0.2062 -0.1891
13523W        W17923  29.622   3.734   6.951 -0.0815 -0.3923 -0.0790
13524W        W17924  29.971   0.540   0.363 -0.1137 -0.0709  0.1894
13525W        W17925   7.429   7.244  15.070 -0.0875  0.0027  0.1939
13526W        W17926  19.651   3.949  16.913  0.2889  0.0120 -0.1050
13527W        W17927   1.280   4.458   2.724  0.0219 -0.2635  0.3982
13528W        W17928  26.895   2.840   7.181 -0.1597  0.0885 -0.4417
13529W        W17929  28.097   3.852  16.317 -0.5285  0.0042 -0.1503
13530W        W17930  10.063   6.881  21.064  0.0215 -0.2135  0.2308
13531W        W17931  10.719   5.302  19.704 -0.2377  0.0716  0.0310
13532W        W17932  31.114   1.218  14.252  0.0759 -0.0219  0.2372
13533W        W17933  19.530   4.717  25.064  0.0154 -0.0334  0.1188
13534W        W17934   6.605   2.583  21.835 -0.2208 -0.3716 -0.0460
13535W        W17935  10.021   6.614  10.393 -0.1182 -0.1988  0.0129
13536W        W17936   0.744   4.435   7.723  0.2192  0.1309  0.2527
13537W        W17937  28.847   1.814  21.810  0.0131  0.3201  0.1855
13538W        W17938  18.189   1.698   9.370 -0.1468 -0.3105  0.0817
13539W        W17939  27.577   3.885  21.154 -0.0879  0.0745  0.1552
13540W        W17940  29.655   6.170  16.060  0.1253 -0.0840  0.1373
13541W        W17941  18.568   6.861  10.342 -0.0087 -0.0727  0.0860
13542W        W17942  19.966   4.854  24.299 -0.1244  0.0058  0.2673
13543W        W17943  20.063   2.284   4.544 -0.0581  0.2025 -0.0149
13544W        W17944   9.451   7.521   6.213 -0.0056  0.0316  0.0042
13545W        W17945  19.245   0.643   6.198  0.0979  0.2691  0.1241
13546W        W17946  30.279   2.955   0.905 -0.1055  0.3957 -0.0499
13547W        W17947  27.145   2.992   9.697  0.1827 -0.1113  0.2756
13548W        W17948  23.690   3.965  24.144 -0.1315  0.0018 -0.0529
13549W        W17949   2.355   0.947   1.357 -0.2012 -0.0126  0.1091
13550W        W17950  20.287   4.327  20.611  0.2336 -0.1190  0.0804
13551W        W17951  26.566   1.975  23.877 -0.1031 -0.0144 -0.0468
13552W        W17952   0.222   5.383  21.869  0.2874 -0.0984 -0.1257
13553W        W17953   2.027   5.468   8.304 -0.1301 -0.0862 -0.0278
13554W        W17954  16.257   0.897   7.448 -0.1158 -0.0941  0.1586
13555W        W17955  19.273   6.559   0.254  0.1544  0.0704 -0.3643
13556W        W17956  11.606   0.683   2.279 -0.0359  0.1176  0.0407
13557W        W17957   6.340   5.375  23.415 -0.1787 -0.1933 -0.1284
13558W        W17958  30.519   7.246  26.028  0.0300  0.0549  0.1630
13559W        W17959  29.715   5.711   1.428 -0.2170  0.0011 -0.0601
13560W        W17960  10.391   3.753  17.682  0.0689 -0.1295 -0.1628
13561W        W17961  28.362   1.847   7.642 -0.0592  0.1052 -0.0748
13562W        W17962  10.763   0.298  17.822  0.1943  0.2342  0.2682
13563W        W17963  20.674   1.351   0.883 -0.1118  0.0078  0.2519
13564W        W17964   5.386   7.027  17.784  0.2391  0.0677 -0.4674
13565W        W17965  28.797   6.887  23.617 -0.1179  0.2046 -0.0646
13566W        W17966   9.235   6.952   5.865  0.0521 -0.2385  0.0115
13567W        W17967   8.368   4.456   8.875  0.1773 -0.1178  0.0332
13568W        W17968   3.867   4.776  20.671 -0.0405 -0.3632 -0.2345
13569W        W17969  13.897   7.573   1.749 -0.1391 -0.1834  0.0123
13570W        W17970   1.567   3.777   5.900  0.0742  0.1822 -0.1620
13571W        W17971  20.146   6.135   4.251 -0.2725 -0.2284 -0.1550
13572W        W17972   3.023   4.615   7.075 -0.1010  0.0467  0.1126
13573W        W17973  24.651   1.767  24.393 -0.0171 -0.0512  0.0079
13574W        W17974  19.112   4.430   4.046 -0.0591  0.1874 -0.0286
13575W        W17975  27.880   2.811  15.971  0.0237 -0.2661 -0.1336
13576W        W17976  12.984   3.331  21.411  0.2287  0.2818 -0.3087
13577W        W17977  30.386   2.949  19.611  0.0459  0.0774  0.1021
13578W        W17978   4.583   0.511   2.137 -0.0079 -0.0750 -0.0695
13579W        W17979   5.238   0.461  20.580 -0.0117 -0.1962  0.1707
13580W        W17980   6.328   4.015   5.607  0.1802 -0.4441  0.1860
13581W        W17981  14.033   6.618   5.305  0.1064  0.1004  0.1356
13582W        W17982  15.723   6.184  22.174  0.0023  0.0610 -0.2192
13583W        W17983  20.544   7.028  22.691  0.3692  0.1294  0.3166
13584W        W17984  11.198   2.418  10.863 -0.0341 -0.0444 -0.0681
13585W        W17985   5.577   2.374   3.495  0.1683 -0.0473 -0.0381
13586W        W17986  24.022   3.844   5.534 -0.0911 -0.1423 -0.2268
13587W        W17987  18.777   6.464  16.896  0.2256  0.1743 -0.1591
13588W        W17988  11.298   1.958  10.796 -0.1903  0.1856  0.2141
13589W        W17989  20.725   2.434  23.775 -0.0433  0.2247 -0.0628
13590W        W17990   2.747   0.067  24.995  0.3931  0.2423  0.0914
13591W        W17991  20.225   1.673   2.027  0.4662  0.1171 -0.0232
13592W        W17992  21.953   2.599  22.841  0.0190 -0.0432 -0.1527
13593W        W17993  15.589   1.752  10.370  0.0729  0.2032 -0.3191
13594W        W17994   8.863   0.234  10.898  0.0456  0.0649  0.1255
13595W        W17995  23.217   2.696   4.580 -0.0278 -0.2065  0.1851
13596W        W17996  11.346   5.888  22.932  0.0039 -0.0462 -0.0518
13597W        W17997   3.354   4.892   5.238  0.1885  0.0235  0.0545
13598W        W17998   3.719   3.165   4.569  0.0112 -0.2481 -0.1246
13599W        W17999  20.749   1.203   6.448 -0.0173 -0.3171  0.1614
13600W        W18000  21.878   2.552  20.976 -0.1949 -0.0589 -0.0152
13601W        W18001  24.904   7.843   4.653 -0.3320  0.1202 -0.0727
13602W        W18002  11.008   5.041   9.763 -0.1092 -0.2067  0.0462
13603W        W18003   3.134   4.154   4.707  0.1037  0.0218 -0.1910
13604W        W18004  11.339   3.528  17.105  0.0428 -0.2514  0.1236
13605W        W18005  23.273   7.489  22.483 -0.2115  0.0100  0.0797
13606W        W18006  30.494   3.877   3.188 -0.0854  0.0610 -0.0355
13607W        W18007  21.620   4.278   5.054  0.0310  0.1501 -0.1778
13608W        W18008  31.005   0.676  10.886 -0.1837  0.4281  0.0919
13609W        W18009  29.168   5.974  21.091 -0.1289  0.0609  0.0446
13610W        W18010  24.141   4.882  24.732  0.3818 -0.2352  0.2484
13611W        W18011  15.419   5.578   5.210 -0.0474  0.1763 -0.0284
13612W        W18012  29.060   6.007   6.456  0.0484  0.2234 -0.0286
13613W        W18013  24.663   5.003  20.693  0.1511 -0.1685 -0.2584
13614W        W18014  21.585   4.286   2.098  0.2303 -0.2431 -0.2512
13615W        W18015  15.184   4.972   1.824 -0.2843 -0.1141 -0.0349
13616W        W18016   6.620   3.519  10.082 -0.1556 -0.2023  0.2311
13617W        W18017   1.639   2.430  24.407  0.0733 -0.2149  0.3899
13618W        W18018  19.292   2.466  21.890 -0.1020 -0.0663 -0.1696
13619W        W18019  16.430   5.261   6.828  0.1816  0.2040 -0.1883
13620W        W18020  27.873   0.921  15.195  0.0847  0.1176 -0.4622
13621W        W18021  26.167   5.452  16.053  0.0829  0.0604 -0.1639
13622W        W18022  20.832   6.068  20.987 -0.0850 -0.0243  0.1747
13623W        W18023   4.476   4.422  25.996  0.1258 -0.1063 -0.1404
13624W        W18024   1.226   3.965   5.130 -0.3917 -0.1540 -0.4192
13625W        W18025  15.827   5.978  20.228 -0.0954 -0.0197 -0.1165
13626W        W18026   5.190   6.984  23.852 -0.1401  0.1766  0.0239
13627W        W18027  16.911   7.202   8.976  0.2845  0.0089 -0.0190
13628W        W18028  19.118   0.522  20.759 -0.0853 -0.0699 -0.2795
13629W        W18029  30.831   6.224  15.032 -0.1558 -0.2521 -0.4092
13630W        W18030  25.354   5.030  25.366 -0.1474  0.3476  0.2442
13631W        W18031  11.036   5.658  16.591  0.4221 -0.0673 -0.0625
13632W        W18032  13.052   5.248   2.151 -0.1109  0.2156 -0.1779
13633W        W18033  12.908   7.347  15.861  0.4556  0.3013  0.2699
13634W        W18034  21.644   0.461   0.184  0.2508  0.0647  0.2980
13635W        W18035   6.849   6.859  22.598 -0.0447  0.1113 -0.1676
13636W        W18036  27.634   3.406   0.046 -0.0806 -0.0088 -0.1468
13637W        W18037  16.665   5.213   3.739 -0.0407 -0.2760 -0.1278
13638W        W18038   7.712   4.624  25.247  0.1523 -0.0931 -0.0538
13639W        W18039  20.023   3.005  23.292 -0.0746 -0.1373 -0.4779
13640W        W18040  27.616   5.106  20.713  0.3959 -0.1216  0.2385
13641W        W18041  11.644   1.670  17.610  0.0610  0.1453 -0.0656
13642W        W18042  27.733   6.677   4.570  0.1251 -0.2626 -0.0515
13643W        W18043  27.304   1.663   0.135  0.2227  0.1505  0.3227
13644W        W18044  14.269   7.409   4.760 -0.2721  0.2259 -0.1313
13645W        W18045   1.355   2.644   8.592 -0.4627  0.1501 -0.3085
13646W        W18046   4.402   5.552   1.691  0.0237 -0.0108 -0.0207
13647W        W18047   0.769   2.958   5.274  0.2031 -0.1208  0.3206
13648W        W18048  18.741   2.853   2.340  0.0785  0.1528 -0.1167
13649W        W18049  22.651   3.862  15.939  0.1179 -0.1586 -0.0438
13650W        W18050   8.451   6.431   8.820  0.4095 -0.1585 -0.0531
13651W        W18051   0.726   3.077   0.488 -0.0452  0.1952 -0.1751
13652W        W18052  13.347   6.717   5.786 -0.1276  0.1334  0.2555
13653W        W18053   5.464   3.615   0.316  0.0973 -0.0496 -0.1778
13654W        W18054  26.333   6.374  24.430 -0.2030  0.0724 -0.0527
13655W        W18055  22.005   6.223   0.361  0.3846  0.1130  0.0379
13656W        W18056   5.505   5.018   4.671 -0.2437 -0.4879 -0.0996
13657W        W18057   8.116   6.467   1.797 -0.1698  0.0008 -0.0220
13658W        W18058   0.638   4.769   2.276 -0.3654 -0.1452 -0.0560
13659W        W18059   6.917   1.025  25.608 -0.0599  0.0901  0.1945
13660W        W18060  13.764   6.955   5.552  0.2043  0.1286  0.3777
13661W        W18061  16.133   1.022   2.386 -0.3173 -0.2997  0.1323
13662W        W18062   7.353   0.647  19.153  0.4473  0.1824 -0.2395
13663W        W18063  20.308   3.671  17.202 -0.1164  0.0794  0.1053
13664W        W18064  11.232   1.417  17.402 -0.1516  0.3030  0.1770
13665W        W18065  30.558   2.924  16.979  0.1649  0.0510 -0.2006
13666W        W18066  12.183   7.574  17.306 -0.0573 -0.1529  0.4080
13667W        W18067  22.993   7.440  19.531  0.2511 -0.1816  0.1507
13668W        W18068  17.030   6.582  21.555  0.1986 -0.2263  0.1971
13669W        W18069  10.447   5.054   8.617  0.2480 -0.1861  0.0199
13670W        W18070  21.602   6.646   5.485  0.1514 -0.1640 -0.0803
13671W        W18071  14.147   0.341  20.128  0.0151  0.2947 -0.2623
13672W        W18072  25.133   6.995   6.364 -0.0555 -0.0286  0.0166
13673W        W18073  19.268   7.179   3.185  0.2227 -0.1031 -0.0631
13674W        W18074   1.411   5.473   5.860  0.3040  0.0183  0.1366
13675W        W18075  27.852   7.518  15.871 -0.2253 -0.0307  0.2312
13676W        W18076  28.826   3.649   8.519  0.0703 -0.4870 -0.3113
13677W        W18077  11.043   3.458   3.937 -0.1210 -0.1386  0.2376
13678W        W18078  11.448   0.199   2.631  0.0745 -0.2670 -0.0942
13679W        W18079   7.306   3.215  23.838 -0.1303 -0.1051 -0.0254
13680W        W18080  18.989   1.716  20.276 -0.3606 -0.2068  0.2201
13681W        W18081  24.716   5.395  15.839  0.1521  0.0848 -0.1235
13682W        W18082  13.644   4.528   5.600  0.2014 -0.1381 -0.0514
13683W        W18083   7.638   3.392  18.476 -0.1638  0.2558 -0.2675
13684W        W18084  17.963   2.725  18.623  0.0467 -0.2300 -0.1406
13685W        W18085  27.971   7.156   8.784  0.1155  0.1140  0.2200
13686W        W18086   5.161   7.701   1.960 -0.0305 -0.0127 -0.0133
13687W        W18087  29.287   5.700   8.531 -0.1709 -0.3516 -0.0526
13688W        W18088   7.934   5.143  19.730 -0.0887 -0.1727 -0.1589
13689W        W18089  25.323   3.229  10.653  0.0605  0.2567 -0.1238
13690W        W18090  14.498   4.142  16.994  0.1118  0.1286  0.2049
13691W        W18091   7.444   1.383  22.851  0.0269  0.0909  0.2269
13692W        W18092   0.555   7.240  19.862 -0.1989  0.1540 -0.0218
13693W        W18093  24.639   5.549  17.480  0.1377 -0.1660  0.1016
13694W        W18094  12.274   2.073   3.548  0.2049 -0.0132  0.1094
13695W        W18095  21.978   1.379  21.985  0.0832  0.2739  0.2444
13696W        W18096  24.153   2.939  19.725  0.0077  0.5476  0.2537
13697W        W18097  19.584   1.013   8.750 -0.2986 -0.4099 -0.2088
13698W        W18098   4.702   3.143  19.647  0.1879 -0.0072 -0.2514
13699W        W18099  10.053   2.980  10.803 -0.0532  0.2631  0.0139
13700W        W18100  22.052   7.560   4.001 -0.1821  0.1723 -0.2767
13701W        W18101  13.978   1.094   6.339  0.0546 -0.1679 -0.0358
13702W        W18102  23.898   0.894   2.508 -0.0687 -0.2284 -0.0485
13703W        W18103  10.435   1.826  24.121  0.1327  0.1853 -0.2127
13704W        W18104   3.935   7.494  25.375 -0.0127  0.0879  0.2043
13705W        W18105   3.798   1.053  19.890 -0.0457  0.2024  0.0328
13706W        W18106  25.800   7.257  23.835  0.0001  0.6099  0.0617
13707W        W18107   8.937   7.153  21.566  0.1760  0.0596  0.0567
13708W        W18108  19.109   3.327   5.194  0.1423  0.0006  0.3120
13709W        W18109   5.013   5.628  20.610  0.2055  0.0874 -0.1953
13710W        W18110  16.163   7.616  22.955  0.1069 -0.3641  0.2814
13711W        W18111  23.789   5.582  21.667 -0.1213  0.1076  0.1841
13712W        W18112  23.411   6.487   5.203  0.3063 -0.1582  0.1559
13713W        W18113  13.760   6.826  23.834  0.0353 -0.2169 -0.1517
13714W        W18114  17.909   1.287  22.984 -0.0674 -0.2102  0.3529
13715W        W18115  24.246   0.627  21.367  0.2113 -0.0622  0.2122
13716W        W18116   9.328   3.750   3.269 -0.0363 -0.1605 -0.0524
13717W        W18117   7.163   5.372   7.987 -0.0593 -0.1506  0.1245
13718W        W18118  19.806   1.152  23.062  0.1588 -0.1829 -0.0870
13719W        W18119  19.495   3.815  18.377 -0.2230  0.3202 -0.1803
13720W        W18120  18.324   3.866  18.493 -0.0682  0.1242  0.0958
13721W        W18121   1.946   5.548   5.908  0.1049 -0.0744  0.0441
13722W        W18122   5.822   1.251  18.562 -0.0779 -0.0887 -0.3813
13723W        W18123  25.689   4.771  23.633  0.1505 -0.0422  0.1896
13724W        W18124  20.157   7.184  10.502  0.1110  0.1903  0.4913
13725W        W18125   0.589   7.622  17.091 -0.1291 -0.1172  0.4314
13726W        W18126  29.653   5.512  24.369 -0.2894 -0.1471  0.0347
13727W        W18127  10.978   2.164   7.455  0.1664  0.1436  0.2782
13728W        W18128   5.577   4.416   3.846  0.1357 -0.2417  0.0786
13729W        W18129  11.782   3.550   6.627  0.1977  0.0157 -0.1660
13730W        W18130  25.252   5.930   0.681 -0.1891  0.0310 -0.5494
13731W        W18131   0.706   5.327  18.204  0.2148 -0.0990  0.0266
13732W        W18132  30.514   6.598   3.943  0.0773  0.0409  0.1330
13733W        W18133   0.181   0.138   3.383 -0.0948 -0.0404 -0.1172
13734W        W18134   1.384   0.728   6.151 -0.2262 -0.2215  0.2251
13735W        W18135  25.050   1.853  23.720  0.1388  0.2284  0.2273
13736W        W18136   8.630   1.390   6.408 -0.1640  0.3657  0.0987
13737W        W18137  27.094   1.122  22.837  0.0399  0.0666  0.2876
13738W        W18138   6.082   4.268   7.990  0.1777  0.1643  0.1380
13739W        W18139  18.956   2.456  18.428  0.0813 -0.0935  0.2662
13740W        W18140   5.025   1.412  15.803  0.1303 -0.0137  0.0518
13741W        W18141  29.399   3.261  22.905  0.0320  0.0949  0.0833
13742W        W18142  16.445   4.635  16.583 -0.2981 -0.0918  0.1547
13743W        W18143   1.466   2.217  25.345 -0.0354  0.0101 -0.1144
13744W        W18144   5.115   1.474  25.533 -0.1167  0.2508  0.2855
13745W        W18145  20.218   3.933  21.962 -0.3927  0.0384 -0.0896
13746W        W18146  20.174   3.501  15.503  0.1697  0.0340  0.0226
13747W        W18147   6.691   2.275  23.128 -0.3734 -0.0479 -0.0774
13748W        W18148  27.542   6.154  20.523 -0.1598  0.0933 -0.0384
13749W        W18149  21.747   1.435  17.693  0.3069  0.0485  0.0268
13750W        W18150   9.849   6.920  24.030 -0.3830 -0.0912 -0.0730
13751W        W18151   8.924   5.797  20.218 -0.1191 -0.3130 -0.0863
13752W        W18152   4.542   0.097   9.794 -0.0038  0.1950  0.1511
13753W        W18153  30.442   1.100   4.662  0.0850 -0.0658  0.0612
13754W        W18154  25.157   7.591  19.479  0.0037 -0.0255 -0.0637
13755W        W18155  26.888   2.578  25.596 -0.0330  0.1536  0.0904
13756W        W18156  12.494   4.788  21.421 -0.0770  0.0827 -0.2119
13757W        W18157  25.405   5.305   8.138  0.0336  0.2711  0.1120
13758W        W18158   8.763   3.516   5.280 -0.1122 -0.0795  0.2089
13759W        W18159  27.090   3.711  19.285 -0.0159  0.0980  0.3169
13760W        W18160  17.666   6.455  17.412  0.2491  0.0179  0.0588
13761W        W18161   6.722   3.530  17.957 -0.2424  0.1581  0.1803
13762W        W18162  10.243   2.637   5.143  0.1241 -0.2473 -0.0059
13763W        W18163   7.359   4.601   9.926 -0.1500  0.0386  0.1824
13764W        W18164  26.752   1.119  25.782 -0.0842 -0.1155  0.0605
13765W        W18165  11.393   4.182  25.511  0.2669  0.0575 -0.0715
13766W        W18166   1.701   2.665  15.718  0.1779 -0.2132 -0.0479
13767W        W18167  12.063   5.091   5.289 -0.0353 -0.4576  0.0457
13768W        W18168  12.026   0.749   7.137 -0.2032 -0.1888 -0.0077
13769W        W18169  29.348   2.293  25.052 -0.2057  0.1968 -0.0755
13770W        W18170  21.247   1.817  17.573  0.3007  0.3716 -0.3045
13771W        W18171  13.202   5.827  21.885  0.1461 -0.0240  0.1218
13772W        W18172   9.994   1.912   6.401  0.1144  0.0111 -0.2047
13773W        W18173  24.950   5.323  18.426  0.0443 -0.2256  0.0274
13774W        W18174  28.935   1.408   3.375  0.0251  0.2567  0.1559
13775W        W18175  14.611   3.608   4.839  0.0306 -0.0289  0.2105
13776W        W18176  13.624   4.503   9.299  0.1217 -0.2341 -0.0405
13777W        W18177  26.754   4.462  19.938  0.2306 -0.0399 -0.0834
13778W        W18178  27.446   6.506   3.923  0.1582  0.0318  0.0914
13779W        W18179  16.042   2.688  21.510  0.2274  0.0472 -0.0267
13780W        W18180  18.957   2.948  22.263  0.0416  0.3476  0.0476
13781W        W18181   7.143   1.979  15.931 -0.0040 -0.0136  0.2740
13782W        W18182   5.671   4.873  10.478 -0.4317 -0.1533  0.1583
13783W        W18183  17.950   2.322   5.310 -0.2492 -0.1745  0.1512
13784W        W18184  13.436   0.867   0.845  0.2164 -0.2022  0.3328
13785W        W18185   2.783   7.519   7.626 -0.1042 -0.0914  0.0694
13786W        W18186  12.427   4.216  17.913  0.3456  0.1170 -0.2372
13787W        W18187   0.231   6.930  25.001  0.1063 -0.0652  0.2029
13788W        W18188  18.176   3.736  20.167  0.0415  0.0824 -0.1596
13789W        W18189  20.846   4.754  24.246  0.0229  0.3182  0.1983
13790W        W18190  12.240   0.925  20.160  0.0497  0.2104  0.1329
13791W        W18191  25.303   0.266   4.816  0.0216 -0.0935 -0.3346
13792W        W18192  15.933   6.789   2.167 -0.4607  0.1260 -0.0609
13793W        W18193  24.074   5.645  16.441  0.0185  0.0533  0.1120
13794W        W18194   7.467   7.796  25.072  0.1593 -0.1207  0.0239
13795W        W18195  25.640   0.691  17.301 -0.0275 -0.1228  0.0202
13796W        W18196  17.734   3.911   6.299  0.3654 -0.2490  0.0226
13797W        W18197  16.928   3.730  18.641 -0.2810 -0.1952  0.1366
13798W        W18198  22.178   3.045   0.045  0.1414  0.3112 -0.0818
13799W        W18199  30.329   2.082  21.903  0.0350 -0.0093  0.0686
13800W        W18200  22.466   5.419   1.237  0.0118 -0.0478  0.2199
13801W        W18201  10.601   7.339  17.657  0.1135 -0.0283 -0.0396
13802W        W18202  22.915   4.598  25.566 -0.2777  0.2056  0.0847
13803W        W18203   3.549   0.012  18.160  0.3926  0.1597 -0.0074
13804W        W18204   8.847   3.709  21.118  0.0713 -0.0910 -0.5339
13805W        W18205  15.624   6.662  22.255 -0.0422 -0.0649 -0.1995
13806W        W18206  14.415   5.393  17.973  0.2100  0.2585 -0.0672
13807W        W18207  16.891   6.462   8.044 -0.2358 -0.5051  0.0155
13808W        W18208  20.470   6.293  18.288 -0.0221  0.0105 -0.3894
13809W        W18209  24.707   5.621   3.133  0.0791  0.1426 -0.2375
13810W        W18210   1.108   1.330   6.574 -0.1938  0.3518 -0.1770
13811W        W18211  20.660   4.378   6.269 -0.3641  0.0992  0.2840
13812W        W18212  14.927   7.050   7.972 -0.1967 -0.2774  0.0247
13813W        W18213   6.023   4.306  21.861 -0.0273  0.0069 -0.1288
13814W        W18214   0.365   1.698   4.647  0.1989 -0.1467 -0.0669
13815W        W18215  15.787   6.509  18.537  0.0058  0.1374 -0.1578
13816W        W18216   8.126   0.186   1.478 -0.3550 -0.4475 -0.0946
13817W        W18217  30.040   3.006   5.429  0.1499  0.2875  0.1896
13818W        W18218   9.790   2.964  17.561 -0.0032  0.2024  0.3504
13819W        W18219   7.040   3.355   8.158 -0.0164 -0.1795  0.4008
13820W        W18220  22.987   4.505   0.415  0.2350  0.1734  0.2451
13821W        W18221   6.577   3.860   6.393  0.0389 -0.1034  0.1637
13822W        W18222  28.163   6.529   4.325 -0.0694  0.0625 -0.0844
13823W        W18223   1.036   4.675  17.122 -0.1006 -0.0021  0.0109
13824W        W18224  28.897   1.149  20.691 -0.1798  0.1402  0.1064
13825W        W18225  10.192   3.298   3.419 -0.0608 -0.0751  0.0311
13826W        W18226  26.738   4.364   5.957 -0.0927 -0.2729  0.2094
13827W        W18227  22.021   0.212   3.910 -0.3714 -0.0904  0.4517
13828W        W18228   9.471   6.109   6.043  0.1425 -0.1747  0.3190
13829W        W18229  18.414   5.889   6.296 -0.1947 -0.1344  0.1286
13830W        W18230  13.874   7.400  10.773 -0.1921  0.0349  0.1097
13831W        W18231  22.408   2.347  25.055 -0.3190  0.3081  0.0638
13832W        W18232  27.319   0.062   2.042 -0.2755 -0.0180 -0.2126
13833W        W18233  29.645   2.954  19.537  0.1316 -0.2098 -0.0308
13834W        W18234  24.722   4.302  15.821 -0.2496 -0.0177 -0.1466
13835W        W18235   9.701   5.971  22.055  0.1573  0.1324  0.0794
13836W        W18236  21.686   6.089  20.441 -0.0950  0.1155  0.2007
13837W        W18237  19.603   6.518  21.689  0.0501 -0.2515  0.2403
13838W        W18238  26.937   4.631  22.381 -0.1132  0.2705 -0.0703
13839W        W18239  29.094   6.232  18.187 -0.1249 -0.0685  0.0938
13840W        W18240   5.602   5.921  22.968 -0.0217 -0.1808  0.1336
13841W        W18241  11.363   5.213  20.055 -0.0885 -0.1848  0.0312
13842W        W18242  17.122   3.780   0.248 -0.1454 -0.4258  0.0065
13843W        W18243  11.362   3.122   2.238  0.0814 -0.0286 -0.0119
13844W        W18244  15.566   7.156  16.544 -0.0259 -0.1953  0.0632
13845W        W18245   4.739   4.853   5.429 -0.0411  0.0385  0.0255
13846W        W18246  11.214   2.879  20.110  0.0849 -0.2018 -0.3421
13847W        W18247   2.733   1.404  21.375 -0.2251 -0.0541  0.0750
13848W        W18248  20.980   5.494   5.491 -0.2068 -0.0667  0.2223
13849W        W18249  31.273   3.740  25.777  0.1372  0.1416 -0.2519
13850W        W18250  23.438   3.423  21.450 -0.0749  0.1110 -0.0354
13851W        W18251   9.116   3.357   4.894  0.0406  0.2524  0.2120
13852W        W18252  15.855   4.711  24.921 -0.0242 -0.2689  0.0575
13853W        W18253  18.462   1.907   0.750  0.2108  0.0872 -0.3509
13854W        W18254  30.693   6.475  19.843  0.0192  0.1140  0.1225
13855W        W18255  12.744   0.985   1.363  0.0712 -0.0438  0.0755
13856W        W18256  28.960   5.538   4.750  0.1959 -0.0410  0.0918
13857W        W18257  30.353   2.013   6.680  0.0869  0.0937 -0.3282
13858W        W18258   3.087   2.143   3.861  0.0707 -0.1319 -0.4297
13859W        W18259  18.450   0.959  16.005  0.0373  0.1204 -0.2010
13860W        W18260  16.226   6.978   1.508 -0.1407 -0.2578  0.0440
13861W        W18261  10.397   2.472   8.033  0.1171 -0.2129  0.0664
13862W        W18262  13.366   1.261   8.620  0.2878  0.2369 -0.1019
13863W        W18263  22.788   1.881   5.783  0.3199  0.0613  0.0243
13864W        W18264  16.903   4.809  16.997  0.0151 -0.2898 -0.0156
13865W        W18265  20.806   3.570  22.699  0.0162 -0.0315 -0.0036
13866W        W18266   6.539   2.746   8.533  0.0208  0.2360  0.2471
13867W        W18267  27.996   4.816   5.427  0.1392  0.1256  0.1713
13868W        W18268   1.006   3.936   3.518 -0.1839  0.1360  0.2226
13869W        W18269   9.336   5.675  23.533  0.0837  0.1845 -0.1544
13870W        W18270  21.162   0.697   6.465 -0.0081 -0.0145 -0.1094
13871W        W18271  29.590   4.227  21.467 -0.0612 -0.0246  0.0344
13872W        W18272  27.590   1.873  17.981  0.1243  0.2307 -0.1451
13873W        W18273  11.170   4.887  17.246 -0.2641 -0.1003  0.2295
13874W        W18274  28.892   2.124   1.006 -0.1193  0.0815  0.0009
13875W        W18275  12.792   4.253  22.141  0.2083  0.1896  0.0084
13876W        W18276   6.610   3.507  22.371 -0.0838 -0.1868  0.0713
13877W        W18277  26.648   4.293  10.010 -0.0734  0.0476  0.1923
13878W        W18278  29.867   3.722  24.334 -0.0839 -0.3705 -0.0592
13879W        W18279  24.004   0.808  16.905  0.0022 -0.1104 -0.3443
13880W        W18280  23.408   4.330  19.894 -0.0895  0.4258 -0.0937
13881W        W18281   5.990   7.788  17.865 -0.1100 -0.2301 -0.0892
13882W        W18282  15.777   6.299   2.090 -0.0078  0.1969  0.1418
13883W        W18283  20.153   7.452   7.195 -0.1507 -0.3804 -0.0439
13884W        W18284  14.356   2.763   5.073 -0.0943  0.2678  0.0102
13885W        W18285   0.615   7.037   0.557  0.1157 -0.2874 -0.1778
13886W        W18286   3.832   2.006   0.865  0.0225  0.0415 -0.4810
13887W        W18287  21.839   0.910   9.516 -0.0268 -0.2632  0.0446
13888W        W18288  30.626   5.686  16.501 -0.1148  0.2558 -0.0425
13889W        W18289  12.889   1.610  24.546  0.0006  0.0182  0.0767
13890W        W18290  12.381   0.246   2.800  0.2152 -0.1140  0.0459
13891W        W18291   4.132   3.435  20.367  0.1051 -0.1831  0.3114
13892W        W18292  18.573   1.955  22.112  0.0812 -0.0279  0.2113
13893W        W18293  10.424   0.664  17.035 -0.1089  0.0156  0.0923
13894W        W18294  24.706   5.915  21.441  0.0234  0.1438  0.3851
13895W        W18295   2.027   7.275  14.884 -0.0144  0.1295  0.0619
13896W        W18296   3.985   0.622   9.014 -0.2188  0.0663 -0.0882
13897W        W18297  23.143   4.980  24.359  0.2010  0.0793  0.1566
13898W        W18298  25.658   6.907  16.395 -0.0246 -0.1388 -0.0284
13899W        W18299   2.212   6.896   7.887  0.0903  0.3458  0.2986
13900W        W18300  13.087   7.479  23.360 -0.1583 -0.0020 -0.0623
13901W        W18301   7.474   3.540   7.883 -0.0928  0.1111 -0.1205
13902W        W18302  26.182   4.751  10.708  0.3478 -0.1820 -0.0516
13903W        W18303   1.291   4.090   5.635 -0.0364  0.0096 -0.0944
13904W        W18304  30.171   0.502   2.443 -0.3471 -0.1455 -0.1079
13905W        W18305  16.347   1.118  18.946  0.0752 -0.0416 -0.0173
13906W        W18306  22.495   3.075  18.127  0.3009  0.2531  0.1530
13907W        W18307  11.392   2.909   6.519 -0.0492  0.1311  0.0300
13908W        W18308   6.598   7.232  15.686 -0.0005 -0.2558 -0.0415
13909W        W18309   6.798   4.857   0.715  0.1496  0.1039 -0.0976
13910W        W18310  13.197   1.375  24.787  0.4235 -0.1778  0.1286
13911W        W18311   4.179   6.963  16.558  0.2570 -0.1746  0.0434
13912W        W18312   1.050   5.557  22.151 -0.0236  0.0148  0.1324
13913W        W18313  22.519   1.980   6.225 -0.0880  0.2267  0.1078
13914W        W18314  25.034   7.370   0.689 -0.0100  0.0483  0.2818
13915W        W18315  25.110   0.335   9.415 -0.1858 -0.0566  0.1444
13916W        W18316  16.236   0.486  16.388 -0.0046 -0.1854 -0.2506
13917W        W18317  25.902   3.761  20.707  0.2007 -0.0033  0.0083
13918W        W18318   5.555   6.309   9.254 -0.1322  0.0205  0.1224
13919W        W18319  25.897   3.637   6.291 -0.1358  0.2310 -0.2484
13920W        W18320  16.014   0.884  19.310  0.2276  0.4084  0.0433
13921W        W18321  23.357   4.620   2.011 -0.3379  0.2491 -0.2053
13922W        W18322  12.604   0.882   0.135 -0.1375  0.0203 -0.0961
13923W        W18323   5.522   1.666   6.234  0.2452  0.0375 -0.1543
13924W        W18324  22.252   1.697  21.036 -0.3842  0.1653 -0.1979
13925W        W18325  22.222   7.239  25.725 -0.0104  0.3888 -0.2901
13926W        W18326  30.105   6.326   3.043 -0.1065 -0.0159  0.0360
13927W        W18327   3.590   1.130   5.940  0.2322  0.1444 -0.1378
13928W        W18328  31.222   4.796  25.934 -0.0749  0.0472  0.2810
13929W        W18329   9.334   4.373   0.238 -0.0310 -0.3342 -0.0976
13930W        W18330  23.522   7.606   4.310 -0.0444 -0.1283  0.2516
13931W        W18331   3.527   1.136  26.042 -0.1179  0.0348  0.1227
13932W        W18332  14.223   0.718   8.215  0.1624  0.2121 -0.1794
13933W        W18333  18.532   7.421  23.118 -0.3013 -0.0071 -0.0720
13934W        W18334   0.442   7.427  24.952  0.0678  0.0257 -0.1331
13935W        W18335  29.566   2.502   4.117 -0.1639  0.0937 -0.3095
13936W        W18336   4.390   1.137  14.709  0.2067  0.3004  0.0847
13937W        W18337  15.872   6.147  25.206  0.1525  0.2161  0.2041
13938W        W18338  24.598   3.767   2.964 -0.0822 -0.0291 -0.0976
13939W        W18339   4.576   5.507   8.573  0.0607  0.1763  0.1517
13940W        W18340  15.716   3.562  17.992 -0.1229 -0.0443  0.0449
13941W        W18341   0.144   7.272  21.668 -0.0573  0.0359 -0.2933
13942W        W18342   2.774   2.011  23.942 -0.1298  0.2498  0.1957
13943W        W18343  15.634   7.824  25.121  0.0034 -0.0911 -0.2967
13944W        W18344  24.669   4.681  14.784 -0.0305  0.0963 -0.0314
13945W        W18345   3.425   4.871  22.406  0.3013  0.0742  0.1911
13946W        W18346  21.744   3.447   7.674 -0.0031 -0.0477 -0.1312
13947W        W18347  11.465   4.357  21.407  0.1042 -0.0798 -0.2131
13948W        W18348  16.351   4.838   7.144  0.1102  0.1812 -0.0366
13949W        W18349   1.132   5.315   8.086 -0.2570  0.0451 -0.0658
13950W        W18350  11.645   5.620  16.399  0.0160  0.2275  0.2347
13951W        W18351  21.938   5.529   3.985 -0.1858 -0.2064  0.3236
13952W        W18352  20.703   2.087  19.046  0.0318 -0.0683 -0.1449
13953W        W18353  14.798   6.887  10.857 -0.1203  0.0023  0.1636
13954W        W18354  17.554   2.727   4.089 -0.1027  0.2643 -0.0960
13955W        W18355  22.509   0.501  24.540 -0.1351 -0.1076 -0.0076
13956W        W18356  28.020   2.534   8.706 -0.0759 -0.1749 -0.0950
13957W        W18357   9.167   7.275   5.195  0.0187  0.1784 -0.1897
13958W        W18358   3.996   5.379   6.487  0.0906  0.0841  0.0860
13959W        W18359  11.260   2.372  18.584  0.0027  0.4196  0.2979
13960W        W18360  30.581   3.481   7.030  0.1820 -0.0423 -0.1962
13961W        W18361  12.941   6.464   2.237  0.1294  0.1935 -0.0828
13962W        W18362  18.351   6.156   0.508 -0.1944 -0.0834  0.2259
13963W        W18363  29.601   1.766  17.079 -0.2686  0.2103  0.0034
13964W        W18364   8.747   6.056  18.280 -0.1178  0.3971 -0.3503
13965W        W18365   1.460   0.961  24.846 -0.1619  0.1696  0.3507
13966W        W18366   9.446   4.194   8.874  0.0895 -0.2896  0.0791
13967W        W18367   6.576   7.675   1.350  0.2605  0.2333  0.2751
13968W        W18368   0.765   2.054   6.409 -0.0905 -0.0254 -0.0712
13969W        W18369  16.464   3.948  15.668 -0.0209 -0.2874  0.0470
13970W        W18370  28.634   3.034  19.812  0.0595 -0.1424 -0.0527
13971W        W18371  28.615   6.656  22.397 -0.1182  0.2604  0.2368
13972W        W18372   0.642   3.676  19.307  0.1636  0.1396 -0.2205
13973W        W18373  30.892   6.391  24.758 -0.1359  0.1822 -0.1232
13974W        W18374  29.511   4.036   3.524  0.1727  0.0223  0.0675
13975W        W18375   6.443   7.788  16.175 -0.4082  0.2308  0.0590
13976W        W18376  29.835   5.650  25.098 -0.1696  0.1159 -0.0845
13977W        W18377  27.715   1.297  23.038 -0.2643  0.2927  0.3762
13978W        W18378  29.994   3.499   9.049  0.0515 -0.0251 -0.1444
13979W        W18379  28.595   2.848  17.525  0.2876  0.0182 -0.1724
13980W        W18380  14.134   2.870  24.131 -0.0996  0.1018 -0.0660
13981W        W18381  25.976   0.157  23.394 -0.2816  0.0416 -0.2234
13982W        W18382   5.036   4.632  18.384 -0.0630 -0.2461 -0.0031
13983W        W18383  17.823   2.840   7.903  0.3270  0.1097  0.1144
13984W        W18384  20.740   5.918  21.454  0.1301  0.1021 -0.2548
13985W        W18385  18.761   0.955   7.591 -0.0079  0.2907  0.2902
13986W        W18386   2.689   7.668   4.765 -0.1214  0.0930  0.0664
13987W        W18387   5.046   7.671  18.522 -0.4091  0.1509 -0.0834
13988W        W18388  23.119   2.222   1.099  0.0251 -0.0225 -0.0332
13989W        W18389  28.228   7.129   6.237 -0.0751 -0.0675 -0.0963
13990W        W18390   4.787   0.550   8.334  0.0758 -0.2486 -0.3930
13991W        W18391  16.700   3.700  16.782  0.1643 -0.4052 -0.1428
13992W        W18392  30.099   4.322   1.639 -0.0861 -0.1683  0.1978
13993W        W18393  28.080   3.502  25.990 -0.0156 -0.1276 -0.2350
13994W        W18394  16.618   1.960  25.675 -0.1918  0.0259 -0.1725
13995W        W18395  24.995   1.425   2.595 -0.0439 -0.0046 -0.0048
13996W        W18396  16.946   3.382   1.805 -0.1625  0.0823  0.2410
13997W        W18397  25.771   6.740   5.899  0.0527  0.0723  0.2512
13998W        W18398  22.647   3.652   5.233 -0.0121 -0.1302  0.0005
13999W        W18399  21.631   3.658  21.716 -0.0734 -0.0193 -0.1483
14000W        W18400  26.385   0.805  18.671 -0.1802  0.0183 -0.2687
14001W        W18401  18.824   7.654   5.400 -0.0297 -0.3299  0.0659
14002W        W18402  18.813   5.432  16.574 -0.2567 -0.1804 -0.0212
14003W        W18403  23.215   1.618  10.365 -0.2312 -0.0203 -0.0466
14004W        W18404  25.626   3.411  17.312  0.1431  0.0517  0.0333
14005W        W18405   0.684   3.808   6.915  0.1687  0.0674 -0.0562
14006W        W18406  21.484   0.590  25.195  0.2840  0.0609  0.2088
14007W        W18407  20.173   0.169   6.054  0.1186  0.1290 -0.1597
14008W        W18408  11.145   7.312  18.881 -0.0347  0.0955 -0.1653
14009W        W18409   8.192   2.327  18.530 -0.0304  0.3816  0.1609
14010W        W18410   6.070   4.903  21.014 -0.1037 -0.0397 -0.0791
14011W        W18411   9.746   7.618   2.113 -0.2285 -0.2203  0.0259
14012W        W18412  12.181   4.069  22.922 -0.1470  0.0032 -0.1182
14013W        W18413   1.616   3.767   7.718 -0.2466  0.0019 -0.0399
14014W        W18414  24.322   6.312  22.943 -0.2665  0.2568 -0.0570
14015W        W18415   0.976   6.356  21.068 -0.0089  0.0167 -0.1456
14016W        W18416  11.251   5.144  16.436 -0.1818  0.0520 -0.1025
14017W        W18417  16.280   0.436  17.625 -0.2467  0.1683  0.0342
14018W        W18418  30.542   5.023  15.208 -0.0447  0.0500 -0.6054
14019W        W18419  23.456   2.759  24.442 -0.2000  0.2841  0.0242
14020W        W18420  10.878   4.392   2.897  0.0582  0.2232 -0.2386
14021W        W18421  17.742   0.720  14.992 -0.1764  0.2168  0.1992
14022W        W18422   2.578   2.790   9.253  0.2222 -0.0688  0.2295
14023W        W18423   1.938   5.908  18.198  0.2034  0.0487  0.1704
14024W        W18424   2.952   0.323  23.671 -0.1049 -0.1533 -0.2356
14025W        W18425  20.028   2.824   0.060  0.0649  0.0527 -0.0590
14026W        W18426  30.964   5.299   1.619 -0.1167 -0.1307 -0.1463
14027W        W18427  15.812   1.282  21.241  0.2184 -0.0834 -0.1909
14028W        W18428  23.509   2.970   4.130 -0.1884 -0.0693  0.3525
14029W        W18429   6.827   3.816  16.338 -0.3374 -0.1538  0.3864
14030W        W18430  25.205   1.684  25.575 -0.1173 -0.2004 -0.1085
14031W        W18431  11.986   4.285  21.170  0.1094  0.0387 -0.0581
14032W        W18432   0.545   6.663   0.221  0.0179  0.3869  0.0200
14033W        W18433   9.795   7.249   6.408 -0.2419  0.0531 -0.2245
14034W        W18434  18.231   1.130   8.140  0.0399  0.2025  0.3706
14035W        W18435   9.511   4.390   6.273  0.1460 -0.1438  0.2345
14036W        W18436  15.581   1.097   8.192 -0.1607  0.0242 -0.0251
14037W        W18437  22.328   4.519   1.910 -0.0738 -0.0150 -0.0568
14038W        W18438   3.364   6.754  20.304  0.1221  0.0979  0.3531
14039W        W18439  25.085   6.386  19.163 -0.0932  0.2332  0.2228
14040W        W18440   3.156   4.635   8.067  0.0606  0.0398 -0.2100
14041W        W18441  14.091   6.869   2.896 -0.0041 -0.1316 -0.1540
14042W        W18442   9.747   5.905  23.186  0.0252 -0.1639  0.0967
14043W        W18443  18.729   7.560  16.302 -0.0634  0.1159  0.0933
14044W        W18444   3.591   0.940  23.359  0.0059 -0.2675  0.1529
14045W        W18445  31.337   5.942  22.002  0.0335  0.0571 -0.0337
14046W        W18446  21.040   6.676  23.527 -0.1323 -0.2704  0.1344
14047W        W18447   6.808   1.651  15.750  0.1906 -0.1486  0.3477
14048W        W18448  24.199   3.105   0.980 -0.1794 -0.0281 -0.0772
14049W        W18449   7.480   3.205  22.689  0.3688 -0.0464  0.3881
14050W        W18450  30.001   3.443  25.144  0.0636 -0.0605  0.0941
14051W        W18451  10.284   7.474   2.016 -0.5313 -0.2806  0.2026
14052W        W18452   6.911   5.292   3.091 -0.2914  0.0103 -0.0327
14053W        W18453  21.611   6.159   7.231 -0.1896  0.1118  0.0967
14054W        W18454  18.777   3.350  17.801 -0.3730 -0.0469  0.2600
14055W        W18455  26.520   4.020   3.318 -0.1287 -0.1283  0.4291
14056W        W18456   7.051   2.117   9.074 -0.2756 -0.0472 -0.2074
14057W        W18457  15.887   1.809   2.644  0.2269 -0.1049  0.3410
14058W        W18458  30.334   2.121  15.364  0.4433  0.1160  0.1942
14059W        W18459   3.778   5.568  19.272 -0.2903 -0.0018  0.0173
14060W        W18460  15.262   2.925   4.679  0.0321  0.2130 -0.0270
14061W        W18461  28.075   2.887   0.564  0.1257 -0.0648 -0.4251
14062W        W18462   0.047   6.865   5.511  0.0766  0.1216 -0.1690
14063W        W18463  30.796   7.077  25.607 -0.1279 -0.0664  0.0509
14064W        W18464  18.929   3.940   3.705  0.1231 -0.4522 -0.2484
14065W        W18465  19.417   1.125   1.389  0.0815 -0.1168 -0.1580
14066W        W18466  20.259   3.661  25.714 -0.1998  0.3754 -0.2685
14067W        W18467   0.432   0.045  21.538  0.2350  0.0478 -0.2043
14068W        W18468  29.684   5.474   8.149 -0.2172  0.0595 -0.0547
14069W        W18469  28.952   4.339  19.212 -0.0255  0.1823  0.2384
14070W        W18470  22.770   2.186  17.676  0.1461 -0.1963 -0.1567
14071W        W18471  19.631   4.070  25.709  0.1458 -0.1074 -0.2297
14072W        W18472  20.527   7.368   0.489 -0.2464 -0.0163  0.1958
14073W        W18473  19.891   7.605  18.357  0.3107  0.2400  0.0371
14074W        W18474  11.797   2.090   6.069 -0.0984 -0.0627  0.2291
14075W        W18475   2.948   1.165   6.621 -0.0988  0.0709 -0.0524
14076W        W18476  15.693   6.402  21.216  0.0070 -0.0480 -0.2368
14077W        W18477  24.751   7.770  15.511 -0.0083 -0.3104 -0.0170
14078W        W18478  19.221   2.105  23.996  0.2406  0.0853 -0.0171
14079W        W18479  27.214   6.024  21.360  0.3356 -0.0049 -0.0694
14080W        W18480   1.529   7.217   5.518 -0.1143 -0.0215 -0.1687
14081W        W18481  17.597   6.788  23.334 -0.0617 -0.0716 -0.1502
14082W        W18482  10.450   2.509  15.069 -0.0551  0.2802  0.0196
14083W        W18483  27.371   1.196  17.494 -0.0580 -0.2843  0.1307
14084W        W18484  27.102   2.475   9.999  0.4164 -0.1899 -0.3651
14085W        W18485  21.236   0.375   5.410 -0.0378  0.2632  0.3067
14086W        W18486  24.330   7.616  24.241 -0.0125  0.1077 -0.1260
14087W        W18487   6.733   3.048  22.083 -0.3943  0.1337 -0.3542
14088W        W18488   4.025   2.260  21.259 -0.0940 -0.3508  0.1782
14089W        W18489   5.830   3.495  18.214  0.0836 -0.0331 -0.1929
14090W        W18490  13.524   3.289  24.640 -0.3359  0.1474  0.1378
14091W        W18491   4.988   4.225  24.645 -0.1019  0.2181  0.0235
14092W        W18492  14.565   6.040  20.215 -0.1325 -0.2299  0.0825
14093W        W18493   8.209   3.194  22.954  0.3860  0.1799 -0.1041
14094W        W18494   8.661   4.816  21.085 -0.2259 -0.2086 -0.1369
14095W        W18495  27.811   2.494  25.246  0.2545  0.1096  0.1838
14096W        W18496   1.552   5.106  15.401 -0.0691 -0.1665 -0.0108
14097W        W18497  19.498   2.262   2.384  0.0300  0.2062 -0.0628
14098W        W18498  24.476   2.047   6.834 -0.0250 -0.2959 -0.1273
14099W        W18499  14.430   5.104   0.669  0.0916 -0.1643 -0.0399
14100W        W18500  10.552   2.668  10.170 -0.2370 -0.1973 -0.1112
14101W        W18501  18.987   3.925   2.167 -0.1060 -0.0636 -0.0392
14102W        W18502  16.620   0.085   6.791  0.3586  0.0843 -0.0326
14103W        W18503  18.366   1.400   4.490  0.0729  0.0187  0.1493
14104W        W18504  19.959   3.482  20.534 -0.2819  0.0287 -0.0706
14105W        W18505  13.603   3.017   9.029  0.0277  0.1092 -0.0982
14106W        W18506  29.138   2.193   1.593  0.2527  0.0399 -0.0872
14107W        W18507  20.217   6.576   4.078  0.0995  0.2460  0.2167
14108W        W18508  20.281   5.618   2.452 -0.0032 -0.2777 -0.2736
14109W        W18509   0.137   2.123  23.598 -0.1776 -0.2776  0.0518
14110W        W18510  18.789   5.581   1.102 -0.1887 -0.0237 -0.0101
14111W        W18511  30.458   7.647  15.005  0.1115  0.1811 -0.0391
14112W        W18512   7.865   0.515   3.033  0.1522  0.2229 -0.0762
14113W        W18513  21.950   4.943   1.043 -0.1073 -0.3079 -0.1684
14114W        W18514  14.686   3.136   6.380 -0.1178 -0.0420 -0.0369
14115W        W18515   0.598   1.456  21.700 -0.0137  0.0539  0.4173
14116W        W18516  27.365   0.792   0.934 -0.0041 -0.2414 -0.2053
14117W        W18517   6.252   2.099  19.714  0.0234  0.0600  0.2673
14118W        W18518  23.641   6.030   6.973 -0.0823 -0.0150 -0.0304
14119W        W18519  14.936   3.994   7.115 -0.2116 -0.5403 -0.0563
14120W        W18520  25.065   4.121   5.245  0.2683  0.2591 -0.1897
14121W        W18521   9.929   7.630   9.371  0.0622  0.0910  0.0852
14122W        W18522  11.180   1.811  25.845  0.0163  0.1643 -0.0672
14123W        W18523  21.811   6.723   6.422  0.0735  0.0988  0.0460
14124W        W18524  13.599   5.681  25.616  0.1556 -0.1255 -0.3158
14125W        W18525  20.829   4.392   7.087 -0.0608  0.1203 -0.1026
14126W        W18526  18.892   2.849   6.420  0.0695  0.0536 -0.0626
14127W        W18527   1.655   2.820  25.225 -0.0855 -0.0907  0.0230
14128W        W18528  16.438   2.542  24.556  0.0045 -0.1304  0.2306
14129W        W18529  21.453   5.832  22.536  0.2981 -0.0690 -0.0350
14130W        W18530   4.107   7.753  21.913 -0.0063 -0.0740 -0.0473
14131W        W18531  10.356   0.000   6.253  0.0107 -0.0174  0.0647
14132W        W18532   5.639   6.601  17.481 -0.2973  0.2766 -0.0802
14133W        W18533   8.898   5.118   7.254 -0.0017  0.0664 -0.3256
14134W        W18534  18.948   5.031   9.966 -0.0063 -0.1242 -0.0753
14135W        W18535   4.365   0.522   1.106  0.1350 -0.1368 -0.0484
14136W        W18536   7.135   6.221   3.542  0.0385 -0.0013 -0.0895
14137W        W18537   8.948   6.665  22.460 -0.0447 -0.1252 -0.1107
14138W        W18538  25.723   4.191  17.563 -0.1748  0.1637  0.1389
14139W        W18539  23.549   2.124  20.914  0.0694  0.2618 -0.0793
14140W        W18540  29.432   2.186   6.430 -0.0907 -0.4607 -0.1654
14141W        W18541  16.578   7.529  22.678 -0.1498  0.2810 -0.0679
14142W        W18542  29.770   5.765   0.480 -0.0793  0.0122 -0.1007
14143W        W18543  15.699   7.155   9.886 -0.0612  0.2808  0.0907
14144W        W18544  17.801   3.896  15.933 -0.0290 -0.0979 -0.1827
14145W        W18545   7.462   7.847   9.530 -0.1178  0.0406  0.0847
14146W        W18546  16.401   2.964   0.625 -0.1288 -0.1140 -0.0494
14147W        W18547  29.485   5.586   0.107 -0.0962  0.0384 -0.1605
14148W        W18548   1.199   4.903  24.429 -0.1693 -0.0683 -0.0662
14149W        W18549  15.232   7.656  17.807  0.0752  0.0316  0.1103
14150W        W18550  11.428   0.170  19.730 -0.3598 -0.2968 -0.1849
14151W        W18551  15.708   0.833   9.342  0.2368  0.1120 -0.2087
14152W        W18552   8.797   2.248  25.457  0.0842  0.0226  0.1621
14153W        W18553  13.738   0.681  20.193  0.0345 -0.1817 -0.2640
14154W        W18554  21.974   0.265  18.524 -0.0988  0.0468 -0.2366
14155W        W18555   2.790   7.310  20.556  0.0704 -0.1327 -0.1754
14156W        W18556  25.322   7.122   4.480  0.1507  0.2896  0.1184
14157W        W18557  26.472   2.697  19.763  0.1264 -0.0851  0.1439
14158W        W18558  21.428   5.395  16.959 -0.0387  0.0216  0.1342
14159W        W18559  24.035   5.437  26.028 -0.1483 -0.1311 -0.1358
14160W        W18560  13.517   4.581   3.874 -0.1428 -0.0360  0.3000
14161W        W18561  13.933   4.820  24.295  0.0548  0.0908  0.0137
14162W        W18562   9.892   6.594   5.653  0.2482 -0.2499  0.1065
14163W        W18563  25.410   1.438  23.682  0.0907 -0.1136 -0.1751
14164W        W18564  24.016   1.508  25.079 -0.0444  0.2972 -0.1243
14165W        W18565  29.244   2.594   7.186 -0.0510 -0.0495 -0.0937
14166W        W18566  28.896   3.330   1.947 -0.0948  0.1118  0.3577
14167W        W18567  23.654   7.549  19.257 -0.1472 -0.0750 -0.0886
14168W        W18568  21.201   5.176   4.621  0.0545  0.0404  0.1094
14169W        W18569  17.188   1.330  21.008 -0.0651 -0.0022  0.0830
14170W        W18570  24.603   2.560   7.230  0.1317  0.1099  0.4327
14171W        W18571  22.532   4.481  15.174 -0.0875  0.2587  0.0721
14172W        W18572   3.802   3.826  20.441  0.3195  0.1269 -0.2123
14173W        W18573  25.908   6.173  10.648 -0.2396  0.1110  0.1922
14174W        W18574   4.721   2.627   5.010  0.1302  0.0899 -0.0465
14175W        W18575  18.185   4.594   4.814 -0.0815  0.2099  0.3908
14176W        W18576  20.756   0.957  20.811  0.2630 -0.0172 -0.1786
14177W        W18577  24.164   2.612  21.711  0.0938 -0.1035 -0.2530
14178W        W18578   2.813   0.840   6.224  0.1828 -0.2618  0.0695
14179W        W18579  11.151   6.991  16.862 -0.0017  0.0078 -0.0230
14180W        W18580  28.336   3.522   1.240 -0.2621 -0.0755  0.0803
14181W        W18581   5.480   1.657   2.605 -0.3183 -0.1661 -0.0412
14182W        W18582  23.996   7.714  20.391 -0.1089  0.1285  0.2639
14183W        W18583  29.053   4.008  20.739  0.2214  0.2895  0.0793
14184W        W18584  30.209   2.975  16.352  0.1013 -0.0068 -0.0679
14185W        W18585   7.410   2.838   6.941 -0.2470 -0.1415 -0.1004
14186W        W18586   9.691   0.177   2.541  0.3934  0.1228  0.4147
14187W        W18587  19.606   3.213   3.163 -0.0417 -0.2589 -0.0571
14188W        W18588  25.149   0.936   7.619  0.0499 -0.2011  0.4473
14189W        W18589   5.859   6.598  18.500  0.0339 -0.2472 -0.4039
14190W        W18590   0.506   6.389  17.916  0.1082 -0.1711  0.0401
14191W        W18591  25.277   0.435  10.499 -0.1383 -0.1515 -0.1016
14192W        W18592  30.072   7.792  22.465 -0.1410 -0.1329  0.0562
14193W        W18593  27.691   0.309   4.379  0.3140  0.0458  0.0069
14194W        W18594  20.533   5.657   1.932 -0.0022  0.0115  0.1186
14195W        W18595  11.153   1.626   6.316 -0.1194  0.1449 -0.0968
14196W        W18596  21.864   0.833   6.441 -0.0311  0.1443  0.1790
14197W        W18597  13.731   6.022  22.047 -0.0986  0.1100 -0.1475
14198W        W18598  22.012   4.806   4.635  0.1578  0.1480 -0.0355
14199W        W18599  29.613   6.478  22.033  0.1104  0.1350 -0.0482
14200W        W18600   5.138   4.106   6.631  0.0997 -0.3393 -0.2240
14201W        W18601  30.542   0.120   3.739  0.2527  0.0514 -0.2253
14202W        W18602  22.406   0.489  25.496 -0.3706 -0.0131 -0.0168
14203W        W18603  13.516   4.827   8.266 -0.3263  0.2052 -0.2746
14204W        W18604   9.286   7.480   5.593  0.0922 -0.0673 -0.1299
14205W        W18605   6.961   0.709  18.701 -0.0757  0.2782 -0.0055
14206W        W18606  19.475   3.822  18.913  0.0651  0.0833  0.2394
14207W        W18607   8.440   7.384  17.572 -0.0888  0.1138  0.1048
14208W        W18608  23.517   4.627   5.258  0.1965 -0.0994  0.0733
14209W        W18609  13.080   5.895  21.064  0.0338 -0.0384  0.0994
14210W        W18610  21.312   0.046  24.775  0.0137  0.1527  0.1946
14211W        W18611   5.599   5.838   7.618  0.1032 -0.1707 -0.1067
14212W        W18612  11.389   6.651  10.220 -0.0444 -0.0521  0.0431
14213W        W18613  19.826   0.808   4.872  0.1683  0.0888 -0.0274
14214W        W18614  11.505   3.375   3.721 -0.0173  0.0761 -0.1437
14215W        W18615  23.244   1.998  16.736 -0.0742 -0.0554  0.1828
14216W        W18616  18.092   0.903  24.393  0.0239  0.0208  0.1487
14217W        W18617   8.451   2.622  20.528  0.3119 -0.0499 -0.0435
14218W        W18618  18.135   7.797  11.222 -0.0354  0.1668  0.1267
14219W        W18619   0.283   2.873   3.891  0.2605 -0.2483 -0.0891
14220W        W18620   1.672   1.846  19.730 -0.1570  0.1968 -0.2984
14221W        W18621   3.005   2.142  16.001 -0.1036  0.1093  0.2139
14222W        W18622  19.964   3.538   1.654  0.0337 -0.0939 -0.2354
14223W        W18623  11.292   5.709   8.012 -0.1432 -0.0412 -0.1308
14224W        W18624  16.514   5.933   0.548  0.1098  0.1273 -0.2933
14225W        W18625   6.309   6.190  18.484  0.1078 -0.0236 -0.1591
14226W        W18626   1.835   3.218   5.165 -0.0458  0.2120 -0.2284
14227W        W18627   5.268   4.169  22.321  0.0293  0.2417 -0.2387
14228W        W18628  16.253   6.848  23.967  0.0682 -0.1870 -0.0365
14229W        W18629  29.626   4.915  23.393  0.0599  0.0145 -0.2201
14230W        W18630  25.213   4.042  25.510 -0.1574  0.0777  0.1305
14231W        W18631   6.787   7.294  17.620  0.3771  0.2117 -0.1469
14232W        W18632  20.740   6.708  22.109 -0.0057 -0.0551 -0.0781
14233W        W18633  26.403   7.623   4.957  0.1112 -0.0398  0.3885
14234W        W18634  27.793   6.037  23.982  0.1710 -0.0176  0.0667
14235W        W18635   8.835   4.531   6.922  0.2017  0.1680  0.1410
14236W        W18636  13.991   0.681   2.489  0.3237  0.1297  0.4872
14237W        W18637  28.545   6.626   0.966  0.0341 -0.1330  0.1968
14238W        W18638   3.536   5.476   7.725  0.2108 -0.1344 -0.0545
14239W        W18639  17.129   5.105   2.011 -0.0016  0.2358 -0.2387
14240W        W18640   3.071   5.169   2.019  0.0080 -0.1236 -0.0791
14241W        W18641  22.463   5.500  25.548 -0.1914 -0.0886 -0.0831
14242W        W18642  27.424   7.165  19.749 -0.2232 -0.4592 -0.0661
14243W        W18643   3.786   4.864  18.417  0.0242 -0.1175  0.0095
14244W        W18644  14.461   1.238  25.311  0.0960 -0.0891 -0.1065
14245W        W18645   7.589   7.756  20.630  0.1265 -0.0850 -0.0126
14246W        W18646   0.164   5.408   1.922 -0.2327  0.3466  0.1283
14247W        W18647   1.328   1.092  19.065  0.0900  0.0852 -0.0478
14248W        W18648   7.708   0.275  19.026  0.0378  0.0438  0.0520
14249W        W18649  23.301   6.307   6.183  0.1131  0.1972 -0.0499
14250W        W18650   8.315   5.466  25.589 -0.3072  0.1495  0.0561
14251W        W18651  19.476   2.263   1.885 -0.0184 -0.1439 -0.1485
14252W        W18652  24.480   4.265   2.775  0.1113  0.0125  0.1877
14253W        W18653  17.761   1.096  22.495  0.0588 -0.3418  0.3673
14254W        W18654  21.265   6.252  15.564  0.0626 -0.2990 -0.0321
14255W        W18655   4.146   6.010  24.839 -0.0185  0.1277 -0.1040
14256W        W18656  27.944   0.240   1.944  0.1605 -0.1067  0.4402
14257W        W18657   1.062   5.773   6.182 -0.1369 -0.2240 -0.0559
14258W        W18658  20.435   4.317   0.069 -0.0320 -0.1463 -0.1309
14259W        W18659   6.620   0.530   3.294  0.0226 -0.0831  0.2218
14260W        W18660  27.247   2.120  16.055 -0.0111  0.2418 -0.1264
14261W        W18661  17.516   6.761   4.845  0.1208 -0.0214  0.1313
14262W        W18662  14.639   2.456  23.575 -0.2809  0.3092 -0.3720
14263W        W18663   1.415   6.482  25.332 -0.0146 -0.3059 -0.1284
14264W        W18664   0.222   1.283  23.614 -0.0012 -0.2079 -0.0228
14265W        W18665  26.632   7.685   1.177  0.1194 -0.0638  0.1623
14266W        W18666   1.483   7.631  23.998  0.1872  0.0077  0.0564
14267W        W18667  20.753   2.541   9.358 -0.1363  0.0422 -0.2753
14268W        W18668  27.047   2.556  10.474  0.0787 -0.1214  0.0258
14269W        W18669   9.491   3.108  18.245  0.2039 -0.1877  0.2111
14270W        W18670   1.725   2.459  16.331 -0.1020  0.1303 -0.0976
14271W        W18671  16.568   6.302  23.832 -0.0885 -0.0666  0.0877
14272W        W18672  29.864   5.707  14.672 -0.0541 -0.1704  0.3946
14273W        W18673   5.248   0.241  24.972  0.1327 -0.0779  0.1273
14274W        W18674   7.867   2.366  20.421 -0.2007  0.1303  0.3890
14275W        W18675  21.223   6.252  22.655  0.2083  0.3750  0.2795
14276W        W18676  18.021   5.881   9.769 -0.0321 -0.0107  0.2259
14277W        W18677   2.370   5.108  24.579  0.1471 -0.3500 -0.1184
14278W        W18678  21.308   3.093  24.991  0.1740  0.0169 -0.3043
14279W        W18679  22.072   5.156   6.614  0.1572  0.0147 -0.0071
14280W        W18680   2.991   2.472  18.923 -0.2010  0.0392 -0.0213
14281W        W18681  31.197   5.074   2.063  0.0742  0.3539 -0.3166
14282W        W18682  22.505   5.405  23.874  0.0315 -0.0072  0.1339
14283W        W18683  25.906   2.688   7.224 -0.0511  0.1642 -0.2075
14284W        W18684   4.471   3.452   6.944 -0.0094 -0.1058 -0.1571
14285W        W18685  11.427   6.445   4.630 -0.1539 -0.0125 -0.2493
14286W        W18686  12.602   4.942   2.352 -0.1031 -0.0880 -0.0472
14287W        W18687   7.950   6.583  16.649  0.0493 -0.0253  0.1073
14288W        W18688  14.835   1.551  25.664 -0.0704  0.1867  0.1121
14289W        W18689   1.507   5.980  20.327 -0.2011  0.1818  0.1590
14290W        W18690  14.223   4.906  24.819  0.0522  0.0025 -0.0965
14291W        W18691  17.128   3.077  25.745  0.1486  0.2329 -0.0443
14292W        W18692  19.469   6.477  22.756 -0.3508 -0.1498 -0.0116
14293W        W18693   1.728   0.683  21.430  0.1398  0.1470 -0.2398
14294W        W18694  10.865   3.081  16.971  0.0224 -0.0948 -0.0367
14295W        W18695  29.397   7.070   1.822 -0.0893  0.1365 -0.0424
14296W        W18696  19.296   7.084  19.506 -0.2371 -0.0008 -0.0810
14297W        W18697   4.961   1.538  17.350  0.0345  0.0974  0.1355
14298W        W18698  15.572   4.526  17.018 -0.0700  0.0675 -0.0524
14299W        W18699  12.477   6.857  22.859 -0.1408 -0.1117 -0.0501
14300W        W18700  13.571   5.498  21.792 -0.2786 -0.0763  0.2920
14301W        W18701  17.691   7.168   7.308  0.2415 -0.0485 -0.2484
14302W        W18702  14.121   2.023  24.728 -0.1616 -0.1625 -0.0842
14303W        W18703  17.246   4.369   8.600  0.0017  0.0296 -0.0822
14304W        W18704  15.167   7.631   6.596  0.1242 -0.1520  0.0227
14305W        W18705  20.922   7.011   4.430 -0.0941  0.0306  0.0379
14306W        W18706   9.336   6.920  24.581  0.1651 -0.0072  0.0081
14307W        W18707  10.776   1.232  20.774  0.1073 -0.0448  0.1235
14308W        W18708  30.086   2.278   3.574  0.1734 -0.2839 -0.0565
14309W        W18709   2.273   6.277   4.348  0.0148 -0.2929 -0.0305
14310W        W18710  22.418   7.143  22.224 -0.1317  0.3214 -0.4987
14311W        W18711  18.696   4.336   3.533  0.1440  0.1734 -0.0483
14312W        W18712  17.638   0.121  24.167  0.0122  0.2810  0.0587
14313W        W18713  27.658   0.197  19.099  0.2944 -0.0280  0.0594
14314W        W18714  15.283   4.044  11.040  0.2676 -0.0124 -0.0803
14315W        W18715  16.830   3.216  16.112 -0.0638 -0.0115 -0.0354
14316W        W18716  11.086   6.623  26.074 -0.0600 -0.1551  0.3332
14317W        W18717   2.479   7.366  26.010 -0.0107 -0.2449  0.1581
14318W        W18718  12.844   3.307   7.810 -0.0353  0.0595 -0.0576
14319W        W18719   2.169   6.556  20.948  0.1183 -0.3304 -0.0771
14320W        W18720  15.451   4.813   9.933 -0.2132  0.3250  0.0082
14321W        W18721  14.976   3.093   1.919 -0.0318  0.0682  0.0132
14322W        W18722  12.698   6.361   6.845 -0.2392 -0.0605 -0.3112
14323W        W18723  21.122   3.232  24.493 -0.1570 -0.0329  0.0653
14324W        W18724  19.726   1.612  10.686  0.0412  0.1818  0.1258
14325W        W18725  29.337   2.648   1.631 -0.3023 -0.1422 -0.2977
14326W        W18726  28.672   7.084   3.522 -0.0127 -0.1121  0.1155
14327W        W18727   9.872   0.202   1.274  0.2816  0.1128 -0.1669
14328W        W18728   9.401   0.974   0.886  0.0219 -0.1641  0.1855
14329W        W18729  31.314   7.730  22.573  0.2451 -0.1177  0.1296
14330W        W18730  20.381   6.561   3.567 -0.2161 -0.1853 -0.2904
14331W        W18731   9.835   1.400  25.778  0.0831 -0.1822 -0.1119
14332W        W18732   2.888   4.419   0.127 -0.0806  0.1553  0.2650
14333W        W18733  23.577   1.053   7.816 -0.5239  0.0362  0.2590
14334W        W18734  21.464   6.399  23.398  0.1927 -0.1222  0.0381
14335W        W18735  21.309   2.360  21.985 -0.0797  0.3084 -0.0265
14336W        W18736  13.774   6.443   4.482 -0.1421 -0.0203 -0.0358
14337W        W18737  26.819   0.302   5.641  0.0213  0.0139 -0.0750
14338W        W18738   7.013   2.049  20.854  0.0111  0.0621 -0.0513
14339W        W18739  20.265   4.536   1.366  0.0182 -0.2211 -0.0754
14340W        W18740  22.529   0.984  21.824 -0.0406  0.2601  0.4446
14341W        W18741  23.317   1.650  22.597 -0.0692  0.3782  0.1772
14342W        W18742  19.668   3.831   6.613 -0.1086 -0.0373  0.0787
14343W        W18743   2.455   0.495   2.983  0.1482 -0.0932 -0.2917
14344W        W18744  24.968   3.568   3.987 -0.0915  0.0231  0.1150
14345W        W18745  16.903   7.672  19.986 -0.0410  0.0033  0.0593
14346W        W18746   9.674   2.631   3.109  0.2188  0.1312 -0.2762
14347W        W18747  19.413   3.408  23.689  0.1016 -0.0826  0.2293
14348W        W18748  27.665   1.995  18.440  0.0718 -0.0044 -0.1018
14349W        W18749  12.012   6.495  18.365 -0.0518 -0.0282 -0.1680
14350W        W18750  23.785   1.694  20.656  0.2821  0.4145 -0.2191
14351W        W18751  24.315   7.605  25.522  0.2324 -0.0383  0.3437
14352W        W18752   1.840   7.391  25.369  0.0896  0.0564  0.2720
14353W        W18753  20.962   7.174  21.954 -0.1939  0.3106 -0.0509
14354W        W18754   0.855   2.062  18.362  0.0255 -0.2849  0.0697
14355W        W18755   9.536   6.979  17.723 -0.0187  0.3660  0.2471
14356W        W18756  26.523   1.862   0.196 -0.2973  0.3981 -0.2582
14357W        W18757  19.998   2.885  10.912 -0.2240  0.0776  0.2243
14358W        W18758  17.912   4.589   3.365  0.1902  0.0547 -0.2412
14359W        W18759  27.476   1.828   5.416  0.1497 -0.1269 -0.0123
14360W        W18760   1.606   3.209  14.944 -0.0796 -0.2195 -0.0545
14361W        W18761   1.287   0.655  17.287  0.2225 -0.1101  0.0355
14362W        W18762  10.165   7.488   5.284  0.0578  0.1206 -0.2522
14363W        W18763  26.789   7.444   2.857  0.2772  0.1882  0.0178
14364W        W18764   2.542   2.277   0.833  0.0854 -0.0098 -0.1067
14365W        W18765  13.258   5.967  11.498 -0.0346 -0.3016 -0.0293
14366W        W18766  30.147   4.790   6.589  0.1143  0.1832  0.0771
14367W        W18767  10.471   6.574  10.084  0.2415  0.0819  0.4478
14368W        W18768  26.413   1.443   7.050 -0.1124 -0.0596 -0.2182
14369W        W18769  28.346   0.908   9.598  0.0776 -0.2312  0.0223
14370W        W18770  17.442   6.530   9.470  0.0739 -0.1063 -0.0464
14371W        W18771  14.280   2.861   3.602 -0.2094 -0.2946 -0.2217
14372W        W18772   5.555   4.363  18.099  0.0324  0.0091  0.0046
14373W        W18773  13.668   7.278   4.724 -0.1597  0.1801  0.2884
14374W        W18774  15.814   0.488   6.346 -0.1696  0.2654 -0.1916
14375W        W18775  23.324   3.648  24.878 -0.0130  0.1462 -0.0379
14376W        W18776   0.054   1.703  18.983 -0.1191  0.0214 -0.0498
14377W        W18777  15.018   4.969  23.710  0.0682 -0.0916  0.0597
14378W        W18778  27.019   5.689   3.103 -0.0276 -0.0567  0.2493
14379W        W18779   0.536   1.549  24.238 -0.1903  0.0477  0.2150
14380W        W18780   1.008   0.891   1.450 -0.1748  0.3837  0.0929
14381W        W18781  13.973   2.653  21.677  0.0299  0.0429  0.2536
14382W        W18782  20.578   3.788  20.011 -0.2972  0.0130  0.1669
14383W        W18783  28.992   1.655  18.604 -0.0411  0.1389 -0.2492
14384W        W18784  13.847   1.881   4.187 -0.0744 -0.3752 -0.0942
14385W        W18785  17.393   6.238  20.105  0.1317  0.1584  0.1063
14386W        W18786  23.824   5.928  19.573  0.0365  0.0250 -0.3260
14387W        W18787  14.182   7.847  23.177  0.0769 -0.2717  0.0358
14388W        W18788   4.641   6.797   3.894 -0.3542 -0.1463 -0.0344
14389W        W18789  29.102   3.182   5.000 -0.1142  0.0700  0.0168
14390W        W18790  24.635   0.413   6.245 -0.0596 -0.1479  0.2224
14391W        W18791   9.030   0.964  10.661  0.1108  0.1671 -0.1469
14392W        W18792  24.081   5.624   7.662 -0.1270 -0.0965  0.2057
14393W        W18793   7.066   4.431   6.071  0.0189  0.0057 -0.1864
14394W        W18794  25.029   4.286  24.972  0.0675  0.0471 -0.1688
14395W        W18795   3.866   0.749  25.227  0.2009 -0.1415 -0.2501
14396W        W18796   9.763   7.764   9.910  0.1120  0.0606  0.1335
14397W        W18797  16.707   1.439  22.498 -0.0372  0.2544  0.2093
14398W        W18798  17.548   1.472  24.955  0.0520  0.4406 -0.3618
14399W        W18799   8.496   4.392  24.694  0.0500 -0.1633 -0.0756
14400W        W18800   4.050   7.437   9.855 -0.0033  0.1811  0.0503
14401W        W18801   8.239   3.667  22.075  0.1336  0.0083 -0.0192
14402W        W18802  20.336   1.414   6.073 -0.1256  0.0721  0.0510
14403W        W18803   1.231   6.128  19.449  0.1665 -0.0485  0.0540
14404W        W18804   7.888   1.490   0.412 -0.0247  0.0456 -0.3155
14405W        W18805  27.725   0.357   2.372 -0.0641  0.1091 -0.0670
14406W        W18806   1.548   5.123   2.873  0.1719 -0.0927 -0.1404
14407W        W18807  11.572   7.035   7.223 -0.0738 -0.1778  0.0169
14408W        W18808   9.409   1.663  10.274 -0.0404 -0.1242 -0.0098
14409W        W18809  18.514   0.155  17.238 -0.1317  0.0796  0.4349
14410W        W18810  29.541   1.269  24.899 -0.0454  0.3393 -0.0011
14411W        W18811  19.678   3.231   4.507  0.0907  0.0482  0.2842
14412W        W18812  18.687   4.308  26.061 -0.1382 -0.0215  0.0466
14413W        W18813  10.799   0.565   1.553  0.1006  0.0008 -0.1080
14414W        W18814   4.107   0.507  10.501 -0.2054 -0.1331 -0.2505
14415W        W18815   5.010   6.889   8.605 -0.2524  0.1859  0.2584
14416W        W18816   3.336   5.212  10.678  0.1154  0.0730 -0.0184
14417W        W18817  25.055   4.485   3.181  0.0989 -0.0945 -0.1438
14418W        W18818  26.574   0.358   9.363 -0.0509  0.0378 -0.0090
14419W        W18819   7.860   1.895   6.676 -0.0407  0.0975 -0.0069
14420W        W18820  13.502   1.352  22.523  0.1203  0.1765  0.2215
14421W        W18821  21.654   4.126  22.219  0.1980  0.0857  0.0349
14422W        W18822   9.945   3.222  22.872 -0.0230 -0.2439  0.0151
14423W        W18823   9.007   3.496  22.212 -0.0946  0.1901 -0.0447
14424W        W18824  23.238   7.189   4.693 -0.4490  0.2742 -0.0691
14425W        W18825  12.240   7.295  16.594  0.0881  0.1333 -0.2019
14426W        W18826  19.003   0.882  23.649  0.3548 -0.0403  0.1626
14427W        W18827   4.550   7.639  20.548  0.3214 -0.4468  0.0791
14428W        W18828  20.097   0.643  18.179  0.0962 -0.1785 -0.2044
14429W        W18829  18.565   2.918   4.087  0.1604 -0.1547  0.0962
14430W        W18830  10.151   5.665  16.937 -0.0484  0.0805 -0.1497
14431W        W18831  20.679   6.748  24.373  0.0728  0.2916 -0.2407
14432W        W18832   8.553   4.219  17.935 -0.2991 -0.0573  0.0741
14433W        W18833  28.514   1.278   1.299  0.0262  0.3127 -0.0990
14434W        W18834   0.975   6.666   0.511  0.1570  0.0226  0.0351
14435W        W18835  24.161   5.051  19.911  0.1713 -0.1605 -0.5302
14436W        W18836  25.703   4.414  21.954  0.1048 -0.3289  0.3240
14437W        W18837  12.001   2.862   6.065  0.3495  0.1325  0.0909
14438W        W18838  15.052   4.442  22.265  0.1045  0.0688  0.1175
14439W        W18839   1.960   7.284   5.238 -0.2981 -0.0918 -0.3361
14440W        W18840  24.725   0.184  22.476  0.0141 -0.1620 -0.0220
14441W        W18841  25.217   6.833   1.895  0.0140 -0.4361  0.1195
14442W        W18842  23.903   1.486  24.075 -0.2482 -0.0154  0.1403
14443W        W18843  15.074   7.504  25.804  0.1945 -0.2743  0.1505
14444W        W18844  29.106   0.573  22.790 -0.0121  0.1221 -0.1131
14445W        W18845   6.839   6.908   3.529  0.2351  0.3495  0.0106
14446W        W18846  13.939   6.692  22.599  0.1482 -0.1741  0.1645
14447W        W18847  27.527   1.443  22.032 -0.0351 -0.1975 -0.0677
14448W        W18848   8.543   3.554  17.335  0.0780 -0.0435  0.1184
14449W        W18849  18.840   2.388   9.500 -0.0135  0.0526 -0.4065
14450W        W18850  13.051   4.794  10.634  0.1635 -0.2175  0.0222
14451W        W18851  25.670   7.379   8.702  0.4936 -0.1168 -0.2746
14452W        W18852  25.273   4.306   1.911  0.0338  0.0311  0.0766
14453W        W18853  17.425   2.061   7.286  0.3102 -0.0426  0.2499
14454W        W18854  30.891   2.357  19.256  0.1948  0.0065 -0.0235
14455W        W18855  29.499   6.931   8.249  0.3073  0.0257  0.4267
14456W        W18856  22.499   2.186  16.103  0.2188  0.2249 -0.0207
14457W        W18857  20.811   5.561  21.081 -0.2789  0.1895 -0.0388
14458W        W18858  20.035   0.170  25.550  0.2494 -0.0735 -0.1587
14459W        W18859  12.315   6.772  17.906 -0.1981 -0.0186  0.1173
14460W        W18860  10.285   2.126   6.850  0.1064 -0.2168 -0.1143
14461W        W18861   3.037   4.715   1.726 -0.3629 -0.2752  0.1776
14462W        W18862   1.390   2.966   2.881  0.0398  0.0855  0.0383
14463W        W18863  13.921   5.437   7.658  0.1093  0.1070  0.0493
14464W        W18864   9.350   5.923   8.274  0.1431 -0.2994  0.1944
14465W        W18865  11.446   7.601  22.532 -0.0061  0.1848  0.1273
14466W        W18866  11.142   5.324   1.093 -0.0043 -0.0532  0.0590
14467W        W18867   7.048   2.023   1.945 -0.1644 -0.1660 -0.0302
14468W        W18868   9.913   1.410   0.233 -0.0608  0.1800 -0.1765
14469W        W18869  15.420   1.444  10.880  0.1018 -0.0541  0.0630
14470W        W18870  11.921   4.317   4.922  0.0230 -0.1029  0.2888
14471W        W18871  20.981   5.792  23.287  0.0712 -0.0026  0.1243
14472W        W18872  13.947   5.719   1.323  0.3680  0.0678 -0.1780
14473W        W18873  27.146   4.570  20.276 -0.1738  0.1513  0.0831
14474W        W18874  27.594   5.506   5.247  0.2448 -0.1104  0.1094
14475W        W18875   2.234   3.610   9.590  0.2986  0.1543  0.3051
14476W        W18876  14.675   1.563  21.304 -0.0831  0.2240  0.0083
14477W        W18877   5.033   2.698  18.928 -0.2816  0.1461 -0.0014
14478W        W18878   7.633   4.462  18.833  0.2570 -0.0257  0.1753
14479W        W18879  11.255   2.791   1.787 -0.2237  0.1924 -0.2579
14480W        W18880  19.321   0.327  23.082 -0.1407  0.3068  0.1689
14481W        W18881  12.578   2.711  22.229  0.1612  0.0288  0.2450
14482W        W18882   2.900   2.070  22.884  0.1906  0.1581  0.3368
14483W        W18883  12.464   4.649  16.039  0.0278 -0.0912  0.1931
14484W        W18884  31.273   5.946   5.055 -0.1679  0.1026  0.3256
14485W        W18885   0.247   4.666   4.998 -0.3322  0.3687  0.0398
14486W        W18886  10.100   5.061  20.514 -0.0769 -0.2288 -0.0825
14487W        W18887  29.744   1.387  10.314 -0.1194 -0.0727  0.1686
14488W        W18888  21.052   1.721  25.114  0.2381 -0.1658 -0.0124
14489W        W18889  10.439   2.942   1.188  0.0868  0.2131 -0.0455
14490W        W18890  16.124   6.453  20.504  0.2747 -0.1601  0.2271
14491W        W18891  26.924   3.734  22.538  0.2720  0.1564 -0.0146
14492W        W18892  22.122   4.460   7.928 -0.0252 -0.0973  0.1211
14493W        W18893  16.680   3.030   6.975  0.2804  0.1290  0.1839
14494W        W18894  14.704   6.273   2.559 -0.0868  0.2084 -0.1069
14495W        W18895  31.305   3.536   7.387  0.3336  0.1763  0.0029
14496W        W18896  15.677   6.381   5.210  0.2278 -0.0294  0.2123
14497W        W18897  27.270   3.626   3.916  0.1565  0.4352  0.2000
14498W        W18898  22.561   7.687   4.063 -0.0097  0.2028  0.0583
14499W        W18899   1.079   2.928   8.894 -0.3137 -0.1199 -0.3414
14500W        W18900  29.948   5.105  22.987 -0.0015 -0.0295  0.2282
14501W        W18901  16.343   6.093   0.040 -0.1462 -0.1064 -0.0618
14502W        W18902  20.406   2.760   2.048  0.1078 -0.2617  0.1348
14503W        W18903   1.635   6.938   6.059 -0.1867  0.0118  0.0173
14504W        W18904   6.381   5.871  23.337  0.0597 -0.0154  0.1012
14505W        W18905  29.787   7.707  19.388  0.1156  0.1322 -0.3326
14506W        W18906   0.058   1.122   6.642 -0.1549  0.0755  0.2155
14507W        W18907  29.061   2.517   0.649  0.1233 -0.1736 -0.0221
14508W        W18908  16.038   6.670  18.964  0.0389  0.0274 -0.2143
14509W        W18909  18.609   7.782  17.627  0.0243  0.1575 -0.1563
14510W        W18910   2.548   2.584  15.724 -0.0642 -0.2070 -0.1377
14511W        W18911   8.843   4.436   2.706 -0.0025 -0.1586  0.0851
14512W        W18912   8.546   7.117   2.575  0.0865 -0.1373  0.0516
14513W        W18913  20.971   2.313   3.960 -0.0226  0.0366  0.2322
14514W        W18914  16.419   6.792   1.897 -0.1156  0.0774  0.2789
14515W        W18915  15.211   2.754  15.420  0.2921 -0.4744 -0.1279
14516W        W18916   4.369   2.075  20.388 -0.1032  0.0224  0.0404
14517W        W18917   2.930   0.089  19.936 -0.2558 -0.2387  0.1161
14518W        W18918   8.725   2.041  23.511 -0.2737 -0.1251  0.0958
14519W        W18919  16.872   5.473  15.757 -0.2197  0.1345 -0.2060
14520W        W18920   3.598   5.039   6.822 -0.2819  0.1530 -0.1880
14521W        W18921   7.944   6.825   3.538 -0.2934 -0.0836  0.1637
14522W        W18922   6.026   6.411  18.105  0.1740 -0.0540  0.2219
14523W        W18923  21.456   5.304   7.426  0.1567  0.2386 -0.1854
14524W        W18924  17.064   7.030  10.693  0.0217 -0.0608  0.0381
14525W        W18925  29.840   6.996  20.037  0.1036 -0.0966 -0.2304
14526W        W18926   2.837   3.388   6.279 -0.0070  0.1210 -0.1225
14527W        W18927  26.797   6.091  16.263 -0.3219  0.4529 -0.0138
14528W        W18928   6.544   0.807   7.620 -0.1060 -0.3999 -0.1653
14529W        W18929   4.596   6.879  16.853 -0.0569  0.1168  0.0277
14530W        W18930  27.691   0.229   9.290 -0.2036 -0.2398 -0.1926
14531W        W18931   7.111   0.767   4.000  0.0822 -0.1683  0.0198
14532W        W18932  30.462   3.559  19.646 -0.1310 -0.1054 -0.0788
14533W        W18933   3.415   0.621  21.994 -0.1476 -0.0842 -0.1077
14534W        W18934  21.635   1.608  18.221 -0.0858  0.0052 -0.1588
14535W        W18935  20.145   4.740  25.892 -0.0680  0.0443 -0.0774
14536W        W18936  25.218   1.779   0.502 -0.0594 -0.3325  0.0955
14537W        W18937  12.075   1.048  23.788 -0.1741 -0.5353  0.3024
14538W        W18938  30.039   2.410   0.378  0.3781 -0.1580 -0.0454
14539W        W18939  16.149   4.274  25.497  0.2583  0.1309  0.4220
14540W        W18940  17.161   2.405  25.947  0.0339 -0.3515 -0.2408
14541W        W18941  17.227   5.044   0.439 -0.1061 -0.0373 -0.0249
14542W        W18942  26.603   2.716  20.361 -0.2599  0.2320  0.0596
14543W        W18943  15.699   4.322   1.947  0.2173  0.1747  0.0209
14544W        W18944   8.083   4.098   5.382 -0.0566 -0.0688 -0.1196
14545W        W18945  22.627   1.520  21.299 -0.3118 -0.0738 -0.0532
14546W        W18946  18.229   4.262   1.335  0.1291 -0.0575 -0.4519
14547W        W18947   6.496   0.600  18.929 -0.2793  0.0033 -0.0034
14548W        W18948  10.534   4.067   1.022 -0.2829  0.0179 -0.0834
14549W        W18949  12.763   0.060   6.029  0.0701 -0.0042  0.1364
14550W        W18950   5.117   7.801  25.428  0.3415 -0.3027 -0.3246
14551W        W18951   0.071   2.278  25.091 -0.2339  0.2214  0.1707
14552W        W18952   2.771   3.960   2.473  0.0277 -0.0147 -0.0808
14553W        W18953   1.980   1.146  17.218  0.2424 -0.2559 -0.0932
14554W        W18954   9.868   6.402   1.373  0.0793  0.1502  0.1247
14555W        W18955   9.260   4.180  18.318 -0.1238 -0.0756  0.2198
14556W        W18956  17.567   7.859  22.036  0.1943  0.0897  0.2832
14557W        W18957  28.052   2.829   5.602  0.0878  0.0196 -0.3577
14558W        W18958  11.583   1.228   1.666 -0.3067 -0.1360 -0.2344
14559W        W18959   5.237   5.623   4.317  0.0288 -0.0560 -0.0832
14560W        W18960   1.972   7.608   0.694  0.1500  0.0872  0.1365
14561W        W18961  27.274   1.759   0.649 -0.1481  0.1849 -0.0982
14562W        W18962  26.540   6.424  17.765  0.0201 -0.2632 -0.0349
14563W        W18963   4.522   5.309  10.344 -0.1170  0.0183  0.2608
14564W        W18964  31.097   4.625   6.860  0.1541 -0.0763  0.1318
14565W        W18965  25.645   0.202  20.190 -0.0867  0.0350  0.2139
14566W        W18966  21.303   7.532  17.229  0.2697  0.1079  0.0565
14567W        W18967  16.796   1.669  18.176  0.2066  0.2074 -0.1439
14568W        W18968  16.566   5.286   3.022  0.0182  0.2514 -0.0019
14569W        W18969  30.503   1.702  10.292 -0.0238  0.0730 -0.3453
14570W        W18970  19.760   6.836  19.513  0.3879 -0.0862 -0.1702
14571W        W18971  10.295   7.512   4.208  0.0801  0.2101 -0.4195
14572W        W18972   9.434   6.512  22.332 -0.2253  0.0368 -0.0645
14573W        W18973   4.620   4.458  15.227  0.0960  0.2583  0.1527
14574W        W18974  19.792   0.336   3.892 -0.0257 -0.0265 -0.2845
14575W        W18975   9.584   2.281   6.995 -0.2131  0.1523  0.1990
14576W        W18976  15.934   3.142  16.644  0.0108  0.0067 -0.1744
14577W        W18977  14.659   3.739  23.355 -0.0066 -0.0875  0.0245
14578W        W18978   3.275   7.787   0.360  0.0477  0.3689  0.0380
14579W        W18979  25.092   5.530   7.730 -0.2400 -0.0214  0.2076
14580W        W18980  10.817   7.018  15.396  0.1108  0.2463  0.3217
14581W        W18981  12.477   5.414   5.250 -0.2274  0.1037  0.3409
14582W        W18982  26.853   3.384  24.438 -0.0247 -0.0262  0.2120
14583W        W18983   3.367   3.755   0.511 -0.1664  0.3007 -0.2040
14584W        W18984  16.885   3.782  20.451  0.1931 -0.0272  0.0220
14585W        W18985  25.739   4.956   1.215 -0.0150  0.1803 -0.1799
14586W        W18986   8.217   3.947  17.267 -0.1849  0.1328 -0.0693
14587W        W18987  29.341   5.255  18.086  0.2211  0.0678  0.0334
14588W        W18988  21.279   5.568   5.020 -0.5450  0.2109  0.1978
14589W        W18989   5.657   5.333   2.302  0.1125 -0.1571 -0.2674
14590W        W18990   1.367   2.701   0.943 -0.0966  0.0837 -0.0353
14591W        W18991   1.648   4.713   1.955 -0.1412 -0.2706  0.0169
14592W        W18992  12.725   7.781  24.023  0.1806  0.1105  0.1286
14593W        W18993  28.218   0.845   3.334  0.1202 -0.0909 -0.1045
14594W        W18994   8.765   1.910  10.571  0.0460 -0.0438  0.0682
14595W        W18995  17.232   5.127  10.423  0.2466  0.2192  0.2511
14596W        W18996   9.041   0.789  10.214 -0.2288  0.0759 -0.0605
14597W        W18997  22.473   6.246  18.820 -0.0489  0.1094  0.2446
14598W        W18998  12.921   6.314  11.585  0.2477 -0.4258  0.0446
14599W        W18999   1.456   0.293   5.091 -0.0198  0.1353  0.0332
14600W        W19000  11.660   2.120  17.141 -0.0192  0.1734 -0.0803
14601W        W19001  21.020   7.260   3.896  0.2246  0.2178  0.0619
14602W        W19002  11.224   4.727  15.630  0.0203  0.0538 -0.0352
14603W        W19003   3.104   6.389  16.417 -0.0872 -0.0445  0.1166
14604W        W19004  23.598   7.383  26.022  0.1578 -0.0719  0.1716
14605W        W19005   0.180   4.323  19.695 -0.0667 -0.0409  0.2194
14606W        W19006  15.691   4.035  18.737 -0.2009 -0.1254  0.1373
14607W        W19007  27.435   6.598   0.774 -0.0043 -0.0700  0.1988
14608W        W19008  18.932   0.373   3.507  0.2160 -0.0867 -0.0292
14609W        W19009  25.545   6.283  15.066  0.0463 -0.4130 -0.3704
14610W        W19010  24.269   7.772   9.249  0.0018  0.0543  0.0142
14611W        W19011  25.028   1.018   0.889 -0.1014 -0.2560  0.0458
14612W        W19012  20.876   7.549   2.007 -0.0988 -0.1069  0.1933
14613W        W19013  18.736   4.810  19.553  0.1271  0.0732 -0.3957
14614W        W19014   0.967   4.822  21.780 -0.2279  0.1264  0.0680
14615W        W19015   0.259   7.663   4.846  0.3382  0.0649  0.0208
14616W        W19016  25.185   4.981  18.657  0.3968  0.4205 -0.1471
14617W        W19017  19.272   7.355  15.948  0.0720 -0.1002  0.0211
14618W        W19018   8.991   0.723  21.738 -0.0035 -0.0945 -0.2252
14619W        W19019   8.461   0.924  24.035  0.0944  0.0651  0.0385
14620W        W19020  12.254   0.180  20.446 -0.1075 -0.0948  0.0764
14621W        W19021  19.695   3.868  23.154  0.2618  0.1778 -0.2114
14622W        W19022  14.151   4.184   5.616 -0.1452 -0.3248  0.2865
14623W        W19023  11.183   1.467  23.071 -0.0763 -0.0910  0.0588
14624W        W19024  29.026   4.103   6.343  0.1479 -0.1098 -0.2582
14625W        W19025  30.644   5.266   7.328 -0.4227 -0.0847  0.0894
14626W        W19026   1.445   3.698  23.023 -0.1739 -0.0741 -0.1265
14627W        W19027  17.394   1.665   9.274 -0.1561 -0.0094  0.2127
14628W        W19028  16.759   1.174   1.897  0.0477 -0.1799  0.0283
14629W        W19029  11.006   4.525   9.050  0.2011 -0.1022  0.1873
14630W        W19030  13.589   1.361   7.262 -0.0267 -0.1566  0.0752
14631W        W19031  23.601   6.256   1.980 -0.0622 -0.3662 -0.0986
14632W        W19032  26.608   4.896   8.986  0.0943  0.1041  0.0785
14633W        W19033   8.428   6.893   6.338  0.1219 -0.0830 -0.0112
14634W        W19034  14.477   0.076  17.528 -0.0156  0.2290  0.1469
14635W        W19035  20.291   5.828   0.072  0.1030 -0.0010 -0.0711
14636W        W19036  26.758   1.964  21.873  0.2017 -0.2015 -0.1303
14637W        W19037  27.500   7.297   6.805  0.1621  0.0513 -0.0666
14638W        W19038  24.873   6.653   2.323 -0.4334  0.0118 -0.2845
14639W        W19039  30.118   5.890  19.445  0.1342 -0.0454  0.1874
14640W        W19040  16.081   3.216  20.486 -0.2415  0.0892  0.3697
14641W        W19041  11.735   0.150   9.822  0.0700 -0.1179  0.1839
14642W        W19042  26.885   5.249   0.812  0.3742 -0.0930 -0.0109
14643W        W19043  12.362   4.519   2.006  0.1688 -0.1986 -0.3146
14644W        W19044  18.028   3.839  23.350 -0.1533 -0.0767  0.0095
14645W        W19045  15.465   7.025  15.327  0.0461 -0.1413 -0.0996
14646W        W19046  29.523   0.309  17.022 -0.1236  0.2127 -0.0079
14647W        W19047   0.153   4.953  18.242  0.0160 -0.0924  0.0163
14648W        W19048   6.561   3.438   0.079 -0.3530  0.0676 -0.2419
14649W        W19049  27.606   2.009   0.391 -0.3422 -0.1847 -0.2557
14650W        W19050  22.272   0.581   0.253  0.2621 -0.0831 -0.1799
14651W        W19051   7.461   2.519   6.021 -0.2084  0.0915  0.2341
14652W        W19052  11.458   0.676   4.366 -0.0883 -0.3382 -0.0290
14653W        W19053  22.985   7.460  16.025 -0.1638  0.1002  0.1570
14654W        W19054  14.990   0.472   7.874  0.0836 -0.1008  0.0719
14655W        W19055  22.809   5.191   9.424 -0.0634  0.1417 -0.1495
14656W        W19056   4.837   4.982   1.761  0.0082  0.2348  0.2066
14657W        W19057  16.395   2.799  10.032 -0.0290  0.1444  0.3066
14658W        W19058   4.795   5.203  25.990 -0.0019  0.0283  0.0362
14659W        W19059  22.986   0.646  20.303 -0.0033  0.0018  0.3290
14660W        W19060  11.721   4.167  23.997  0.1493  0.2312  0.0402
14661W        W19061   1.387   2.794  16.544 -0.0671  0.0760  0.1279
14662W        W19062   4.166   2.432   6.881  0.0107  0.1879  0.2154
14663W        W19063  22.373   4.317   3.252 -0.1470  0.1701 -0.1193
14664W        W19064  11.101   6.575  11.399 -0.0371 -0.1886  0.1690
14665W        W19065  27.577   4.533   2.760 -0.1167  0.1368  0.4494
14666W        W19066  28.755   2.751  26.018 -0.3727 -0.1858 -0.0303
14667W        W19067   9.768   4.157   9.494 -0.0324  0.0939 -0.4272
14668W        W19068  13.431   3.317  23.750  0.0600  0.1632 -0.1979
14669W        W19069  25.208   7.129   8.699 -0.3866  0.0830  0.2098
14670W        W19070  15.750   6.014   1.673 -0.2987  0.1570  0.1347
14671W        W19071  24.485   7.819  21.548 -0.0315  0.3201 -0.0214
14672W        W19072  16.012   6.498  22.470 -0.1723  0.0025 -0.2574
14673W        W19073   6.341   6.130   4.874  0.0948  0.1134  0.2518
14674W        W19074  17.185   0.504  20.472 -0.1274  0.0714  0.2325
14675W        W19075  25.176   4.374  25.882  0.3407 -0.0983 -0.1089
14676W        W19076  16.124   4.458  20.404  0.1244 -0.2624  0.1354
14677W        W19077  30.784   4.632  15.642  0.2119 -0.1038 -0.1265
14678W        W19078  31.380   6.752   6.043  0.1334  0.2187 -0.0081
14679W        W19079   3.486   6.617   3.670 -0.1762  0.1317  0.0087
14680W        W19080   1.457   3.988   4.342  0.0332  0.1672  0.2104
14681W        W19081  12.768   2.497   8.206 -0.1021  0.1792  0.0280
14682W        W19082   1.280   0.716   2.820 -0.1096  0.1026  0.0398
14683W        W19083  25.924   6.210  14.779  0.0551 -0.0330  0.2125
14684W        W19084   8.442   3.971  23.451 -0.2462 -0.3910  0.3705
14685W        W19085  12.094   2.601   1.533  0.1781  0.0980  0.0571
14686W        W19086  14.700   0.862  16.177  0.0855  0.1936  0.1737
14687W        W19087  11.344   2.288  18.128 -0.1159 -0.2528 -0.0363
14688W        W19088  13.485   1.116   9.058  0.0205 -0.1836  0.0389
14689W        W19089   3.210   6.877  16.389  0.3871  0.1555  0.0590
14690W        W19090   0.712   4.663   8.196 -0.1592  0.0165  0.0596
14691W        W19091  11.303   3.157  16.668 -0.1695 -0.2485  0.0805
14692W        W19092  13.792   3.435   9.208  0.4459 -0.0587 -0.3084
14693W        W19093  10.774   0.766   9.755 -0.1407  0.1776  0.0487
14694W        W19094  24.593   0.069   9.626  0.0755  0.0312 -0.0533
14695W        W19095  29.653   5.783   1.910  0.0929 -0.0842 -0.0977
14696W        W19096   7.978   1.623  17.920 -0.0223 -0.0935 -0.0407
14697W        W19097  25.774   1.540   4.008 -0.0650 -0.1489 -0.0828
14698W        W19098   0.276   4.146   5.778  0.0050  0.1709  0.0724
14699W        W19099  31.175   5.329   8.088 -0.2039  0.0651  0.0586
14700W        W19100  27.565   4.804  10.250 -0.1248  0.3529  0.0572
14701W        W19101   2.192   3.773  24.281 -0.0031 -0.4821 -0.3630
14702W        W19102  15.603   7.801   2.231  0.0177  0.2298 -0.2479
14703W        W19103   8.342   5.724  15.483  0.5326  0.1705  0.0000
14704W        W19104  29.955   4.594  25.924  0.1565 -0.3721 -0.2748
14705W        W19105  21.107   6.057   2.023 -0.2387 -0.0838  0.0277
14706W        W19106   5.235   4.858   3.857 -0.0359 -0.0439 -0.3634
14707W        W19107  28.886   3.897  19.947 -0.1534 -0.1950  0.0106
14708W        W19108  29.002   5.565  16.964  0.1708  0.2960 -0.0784
14709W        W19109  19.385   6.788  17.018 -0.1116 -0.2661 -0.0630
14710W        W19110  17.077   5.398   6.373  0.1097 -0.2520 -0.0758
14711W        W19111  22.973   5.224  16.707 -0.1770  0.0307  0.0082
14712W        W19112  31.084   1.701  10.285  0.4413  0.0683 -0.1303
14713W        W19113  29.617   5.142   2.717  0.1946  0.1415  0.0169
14714W        W19114   7.968   5.387  18.033 -0.0529  0.2200  0.0460
14715W        W19115   2.549   3.001  21.320 -0.3151  0.1866 -0.0823
14716W        W19116   0.646   7.198  16.747  0.0289 -0.5233  0.3516
14717W        W19117  19.016   5.248   6.027 -0.2772 -0.1183  0.5050
14718W        W19118   2.791   2.915  20.559 -0.1129  0.1953 -0.0612
14719W        W19119   6.697   7.012  25.689 -0.0950 -0.0960 -0.0125
14720W        W19120   9.913   5.788   5.801  0.0950  0.0444 -0.2717
14721W        W19121   5.024   0.567   9.874  0.2471 -0.1379  0.0730
14722W        W19122   4.617   3.349  17.054 -0.0694  0.2353  0.2843
14723W        W19123   0.072   7.856  14.303  0.0579  0.3349  0.3500
14724W        W19124  26.394   2.478   4.531  0.2585 -0.5583 -0.0435
14725W        W19125   0.881   6.029  25.987  0.0245  0.0073 -0.0641
14726W        W19126  14.866   7.321  21.305 -0.1076  0.2990  0.0162
14727W        W19127  21.123   1.568  16.322 -0.0690  0.2316 -0.0901
14728W        W19128  20.775   3.263  18.235 -0.0746 -0.0704  0.0686
14729W        W19129  10.332   5.513   0.081  0.1419 -0.0826  0.4265
14730W        W19130  29.657   1.649   7.016  0.1406  0.0325 -0.1222
14731W        W19131  15.423   6.246   0.336  0.1038 -0.4991 -0.1273
14732W        W19132  30.736   7.491   3.326  0.2671  0.0325 -0.1061
14733W        W19133  29.984   6.707  19.587  0.0537  0.1326 -0.0065
14734W        W19134  14.188   4.589   7.313 -0.2828  0.0517  0.2603
14735W        W19135  23.218   1.855   8.991 -0.0084 -0.0140 -0.0418
14736W        W19136  20.001   6.358   8.566 -0.0559  0.1241  0.2495
14737W        W19137  19.401   4.153  23.465  0.1168 -0.0320 -0.0619
14738W        W19138  21.352   0.692  21.402  0.1898  0.1710  0.3862
14739W        W19139  26.690   3.471  15.607  0.0116  0.0676 -0.1728
14740W        W19140  25.055   0.137   6.181  0.2123  0.0844 -0.0666
14741W        W19141  15.182   0.675   8.305  0.0600 -0.1113 -0.0967
14742W        W19142   1.946   4.563  22.913  0.0516  0.0759 -0.1308
14743W        W19143  16.703   7.090  15.212  0.2348 -0.0383  0.2681
14744W        W19144  26.514   4.846  25.994 -0.0433  0.0467 -0.1927
14745W        W19145  13.998   6.343  11.222  0.0565  0.0413 -0.0836
14746W        W19146  18.841   1.004  11.371  0.0020  0.0525 -0.1592
14747W        W19147  29.891   0.981  15.058 -0.0119 -0.3149 -0.1797
14748W        W19148  25.820   1.768  23.740 -0.0287  0.1180  0.0138
14749W        W19149   0.066   0.459  23.506  0.1275 -0.0663 -0.1003
14750W        W19150  30.507   7.125  17.599 -0.1091 -0.0167  0.0967
14751W        W19151   4.387   7.354   5.311  0.0867 -0.0554  0.2899
14752W        W19152   6.448   0.631  17.321 -0.0386  0.2049 -0.1012
14753W        W19153   0.492   3.925  19.796  0.0666  0.3556 -0.0348
14754W        W19154  28.147   0.511  16.145 -0.0045 -0.1340  0.2080
14755W        W19155  24.892   6.121   7.133 -0.0773 -0.0437 -0.1199
14756W        W19156   1.026   2.840  17.455  0.3017 -0.1796  0.1470
14757W        W19157  27.861   2.500  16.973 -0.1713 -0.1706 -0.0309
14758W        W19158  11.672   5.709  17.178 -0.0299  0.0472 -0.0234
14759W        W19159  19.629   6.194   3.345 -0.0817 -0.1061  0.0045
14760W        W19160  26.644   6.102  18.190 -0.3336  0.2376 -0.3026
14761W        W19161   7.067   1.091  20.738 -0.2181 -0.0229  0.0656
14762W        W19162  28.727   2.835   4.193  0.1444 -0.2449  0.1133
14763W        W19163  26.514   4.286  25.257  0.2984 -0.0636  0.0676
14764W        W19164  18.312   1.236  23.458  0.1152 -0.2227  0.1826
14765W        W19165   9.404   6.379   8.552  0.1962  0.2769  0.2296
14766W        W19166  14.448   1.826   6.602  0.1148  0.1089  0.2952
14767W        W19167   0.436   3.635   6.495  0.0267 -0.2652 -0.1896
14768W        W19168  18.006   0.725   6.152  0.1236 -0.4580  0.0148
14769W        W19169   4.812   0.816  21.512 -0.0627  0.0606  0.1535
14770W        W19170  17.355   0.046   5.770 -0.0637  0.1561  0.1391
14771W        W19171  18.044   1.588   3.437 -0.0754  0.5064 -0.1014
14772W        W19172  26.442   1.767   5.152  0.0905 -0.1837 -0.3050
14773W        W19173   1.026   1.655  21.812 -0.1284 -0.0082  0.1030
14774W        W19174  23.953   1.486  24.595 -0.0259 -0.2374  0.0108
14775W        W19175  23.410   0.478   1.610  0.4991 -0.0438  0.0871
14776W        W19176  16.030   7.490  24.992  0.2216  0.0477  0.1144
14777W        W19177   6.086   4.578  17.413 -0.2281  0.0862 -0.2238
14778W        W19178  18.829   3.411   2.318  0.2497  0.1670  0.0400
14779W        W19179  30.248   6.582  22.729  0.3087  0.0717  0.2118
14780W        W19180   3.497   5.887   1.380 -0.0379  0.1147  0.5054
14781W        W19181  27.235   1.647  17.604  0.0970 -0.0340  0.2548
14782W        W19182   0.477   5.508   9.312  0.0411  0.0138 -0.1512
14783W        W19183  26.849   3.662  24.016 -0.1355  0.2971  0.0527
14784W        W19184  12.471   0.625   1.165 -0.2551 -0.1951  0.3778
14785W        W19185  17.402   0.338  19.382  0.0375 -0.1115 -0.0486
14786W        W19186  30.788   4.250  22.016  0.2703  0.1958  0.0746
14787W        W19187  19.540   6.895   4.534  0.0647  0.0017  0.0960
14788W        W19188  12.264   7.453   1.650 -0.1411 -0.0466  0.0868
14789W        W19189  20.026   2.831  16.569 -0.3408  0.1503 -0.1815
14790W        W19190  19.066   3.163  20.189  0.0921 -0.0766  0.1674
14791W        W19191   1.438   7.684  15.124  0.3033  0.0156  0.0292
14792W        W19192  17.847   5.251   9.319  0.2116  0.0240 -0.1026
14793W        W19193  30.692   2.381  21.203 -0.0370 -0.1873  0.3533
14794W        W19194  19.544   6.073   6.370  0.3251  0.0630 -0.2448
14795W        W19195   9.551   5.513   1.199  0.2236 -0.1022  0.0802
14796W        W19196  16.592   1.119   2.714  0.0862 -0.1320 -0.0828
14797W        W19197  17.356   4.665   7.121  0.3715 -0.1005 -0.0590
14798W        W19198  27.513   4.070   5.573  0.2846  0.3437  0.0713
14799W        W19199   7.492   5.431   9.658 -0.0508 -0.0574  0.0753
14800W        W19200   0.944   7.004   0.090 -0.0113 -0.0022 -0.0725
14801W        W19201  21.722   2.240   0.787  0.3694  0.4770  0.0720
14802W        W19202  19.790   3.495  24.016 -0.0419  0.0330 -0.1811
14803W        W19203   9.555   4.000  23.282 -0.2894  0.0036  0.1718
14804W        W19204  24.065   0.335   4.671  0.1414 -0.0178 -0.0395
14805W        W19205   9.779   6.211  10.269  0.3081  0.1101 -0.0537
14806W        W19206  25.311   5.141   3.742 -0.0227 -0.0083  0.3157
14807W        W19207   6.572   6.772   6.937 -0.0685  0.1388  0.0017
14808W        W19208   0.471   1.170   5.470  0.0472 -0.1152 -0.2134
14809W        W19209   2.540   3.351   6.676 -0.0561 -0.1673  0.3001
14810W        W19210   6.507   1.504   4.203  0.0376  0.1877  0.3214
14811W        W19211   2.091   4.501   5.433 -0.2333 -0.2316  0.0056
14812W        W19212   2.142   6.583  18.976  0.2271 -0.1541 -0.3757
14813W        W19213   9.196   2.647  15.148  0.1646  0.2990 -0.2433
14814W        W19214   6.538   2.373   0.831 -0.2118 -0.1257 -0.0732
14815W        W19215  22.691   1.668   7.981  0.2136  0.0737 -0.0031
14816W        W19216  17.352   4.236  24.349 -0.0085  0.4221  0.0572
14817W        W19217  13.362   5.549   5.655  0.1697  0.0949 -0.0409
14818W        W19218  26.575   6.577  21.718  0.2073 -0.1683 -0.2914
14819W        W19219  14.185   7.819   1.379 -0.0609 -0.2334  0.2115
14820W        W19220   9.286   4.839   8.073 -0.1067 -0.2025 -0.1454
14821W        W19221   9.569   2.910  19.904  0.1106  0.3762  0.0548
14822W        W19222   6.440   0.842  18.443  0.0029 -0.0527  0.1586
14823W        W19223  10.348   7.410  25.740 -0.0973 -0.2189 -0.2415
14824W        W19224   1.272   5.709   9.133  0.2011 -0.0227 -0.1617
14825W        W19225  29.278   6.601  14.577 -0.2405 -0.1318  0.1823
14826W        W19226  31.202   3.359   3.092 -0.3203 -0.2628  0.1528
14827W        W19227  25.176   4.131  10.157  0.0731  0.4106 -0.0376
14828W        W19228  27.469   3.393  23.104 -0.0269  0.1872  0.1308
14829W        W19229  15.228   7.670  21.004 -0.0197 -0.1104 -0.0227
14830W        W19230  20.848   4.372   4.017  0.2210 -0.0898  0.1232
14831W        W19231  14.457   1.691   8.381 -0.1334  0.1038 -0.0904
14832W        W19232   0.139   1.741   3.731 -0.1506  0.0193 -0.2268
14833W        W19233  28.750   2.745   5.951 -0.0449  0.1442  0.2504
14834W        W19234  11.887   4.518   5.414  0.0266  0.1780  0.0528
14835W        W19235  19.196   3.193   6.672 -0.2218 -0.0323 -0.0577
14836W        W19236  13.602   7.151   3.254  0.0986 -0.1050  0.0134
14837W        W19237  22.659   5.617   9.642  0.3102 -0.2684  0.1577
14838W        W19238  11.329   3.652   2.621  0.2758 -0.1532 -0.2365
14839W        W19239   1.872   2.954  14.627  0.1222  0.0686 -0.0871
14840W        W19240  30.076   2.902   0.382  0.1900  0.0185  0.1532
14841W        W19241  28.505   0.634  15.817 -0.0820  0.2656  0.0974
14842W        W19242  15.243   3.730  16.226  0.1212 -0.0896  0.0904
14843W        W19243  27.907   3.184   3.456 -0.1243  0.4001 -0.0513
14844W        W19244  23.097   7.371   0.195 -0.5217  0.0203  0.1744
14845W        W19245  12.067   3.301  21.303 -0.0947 -0.1112 -0.0432
14846W        W19246  25.181   5.101   1.828 -0.0336 -0.0891 -0.0756
14847W        W19247  26.113   6.276  21.447 -0.0653  0.1152 -0.1618
14848W        W19248  17.875   4.540   1.110 -0.1239  0.0621  0.0030
14849W        W19249   4.703   2.068  15.258  0.0288  0.1496  0.0110
14850W        W19250  19.795   0.027  18.769  0.0705  0.1061 -0.1195
14851W        W19251   6.078   3.907  19.034 -0.4321 -0.1221 -0.2195
14852W        W19252   1.797   0.897  25.774 -0.1234 -0.1174 -0.1100
14853W        W19253   3.187   3.291  14.471  0.1956 -0.2484  0.0526
14854W        W19254   3.219   1.319  16.461  0.1345  0.5124  0.1254
14855W        W19255  29.863   4.088  18.891  0.3201  0.2147 -0.0691
14856W        W19256  31.367   5.055  14.736  0.4918  0.0403  0.0844
14857W        W19257   5.445   3.186  20.830 -0.0093  0.1835  0.0088
14858W        W19258  10.346   7.696   4.876 -0.4955 -0.0647 -0.2396
14859W        W19259  13.548   3.700   8.368 -0.0003 -0.0075 -0.0019
14860W        W19260  13.153   0.930  20.970 -0.1142 -0.0425  0.4007
14861W        W19261   6.467   4.083  10.211  0.0912 -0.0327 -0.0490
14862W        W19262  19.861   5.727  20.931  0.3209 -0.0628  0.1308
14863W        W19263  10.044   5.754  10.304  0.0820  0.0999  0.0300
14864W        W19264  24.717   2.835   6.844  0.1466 -0.1972  0.3717
14865W        W19265   1.344   7.406  20.348  0.0442  0.2431  0.1600
14866W        W19266  18.677   5.040   7.803 -0.3991 -0.0699 -0.0431
14867W        W19267  12.738   2.730  19.819  0.1514 -0.0151 -0.1753
14868W        W19268  10.664   3.211  21.321  0.2074  0.2851  0.2670
14869W        W19269  28.043   7.012  15.654 -0.1994 -0.2120  0.2148
14870W        W19270   0.314   5.914  19.023 -0.0999  0.2415  0.2806
14871W        W19271  20.290   5.848   9.483 -0.2002  0.0875 -0.2604
14872W        W19272   2.715   6.975  17.969 -0.3304  0.2207  0.0307
14873W        W19273  24.631   1.411   4.553 -0.0629  0.0846  0.3836
14874W        W19274  29.684   7.109  25.056  0.2571  0.1698 -0.3545
14875W        W19275   7.320   2.501   3.903 -0.3386  0.3243 -0.1083
14876W        W19276  20.006   4.923  11.814 -0.1881  0.0203  0.0671
14877W        W19277   0.384   7.783   8.850  0.2438 -0.0616 -0.1542
14878W        W19278  19.193   3.037   2.144 -0.3506  0.0386 -0.0317
14879W        W19279  24.596   4.146  18.911 -0.1303 -0.3555 -0.0742
14880W        W19280   0.264   7.818  24.683 -0.1954 -0.0985  0.0591
14881W        W19281  28.151   5.508  21.854 -0.0167  0.1517 -0.0201
14882W        W19282   4.713   7.286  22.393 -0.1522 -0.0003 -0.1160
14883W        W19283  14.932   3.376   0.363  0.1848  0.0386  0.1359
14884W        W19284  28.549   1.001   8.022 -0.0540  0.1622 -0.1451
14885W        W19285  20.338   1.885  18.739  0.1646 -0.2245  0.3359
14886W        W19286  18.439   3.451   4.128 -0.1107 -0.0216 -0.0729
14887W        W19287  29.450   4.162  17.566  0.3450 -0.1579  0.2186
14888W        W19288  16.888   3.961  24.375  0.0919 -0.3236 -0.1403
14889W        W19289  10.084   1.564   3.977  0.1610  0.2615 -0.0126
14890W        W19290  26.889   1.204  15.136 -0.2112  0.2345  0.0036
14891W        W19291  18.300   0.055  24.799 -0.1269  0.1177  0.0777
14892W        W19292   5.001   0.711   2.332 -0.0452 -0.0575 -0.1172
14893W        W19293   7.553   1.048  16.564  0.0104  0.1283  0.0159
14894W        W19294  12.323   5.692  24.612  0.2306 -0.1302 -0.0917
14895W        W19295  20.914   4.647  23.231  0.1091 -0.3222 -0.0366
14896W        W19296  10.394   7.163  19.836  0.3649  0.0353  0.1373
14897W        W19297  17.057   2.942   1.197  0.0805 -0.0921  0.1916
14898W        W19298   1.252   2.158   5.119 -0.1736  0.0339  0.0990
14899W        W19299  26.080   5.843   6.363  0.1374  0.2683  0.0317
14900W        W19300  11.126   7.361  18.297 -0.2211  0.2821  0.0778
14901W        W19301   5.028   6.317   2.086  0.2079 -0.2660  0.1525
14902W        W19302   1.712   6.675   5.639  0.0548 -0.0592 -0.1179
14903W        W19303   5.860   7.527  15.417 -0.1019 -0.0830  0.1175
14904W        W19304   3.464   4.091   4.187  0.0380 -0.1663  0.2381
14905W        W19305   5.340   2.188  11.040 -0.1830  0.2132 -0.3190
14906W        W19306  22.975   7.187  22.189 -0.0682 -0.0582 -0.1045
14907W        W19307  10.462   2.787  16.912 -0.4559  0.0722 -0.1572
14908W        W19308  20.961   6.541   6.299 -0.1226  0.0130 -0.1212
14909W        W19309  19.865   2.517   7.188 -0.0669  0.1028  0.3057
14910W        W19310   4.156   1.565  22.940 -0.1885  0.0406 -0.3036
14911W        W19311  10.603   7.119   1.066 -0.0026 -0.0113  0.1219
14912W        W19312  16.494   5.562  17.671  0.2511  0.1336 -0.0144
14913W        W19313   3.226   5.151   7.404  0.2438  0.1279  0.1833
14914W        W19314  11.965   2.850   3.203  0.1881 -0.0326 -0.0352
14915W        W19315  15.953   1.850   5.889  0.1134  0.0260 -0.1003
14916W        W19316  12.325   1.990  19.327  0.0951 -0.2724 -0.1528
14917W        W19317  23.105   2.472   7.457 -0.2671  0.3706 -0.0040
14918W        W19318   9.910   6.990  22.391  0.1546  0.0650  0.1118
14919W        W19319  14.871   4.689  21.163 -0.0014 -0.3328  0.3165
14920W        W19320  23.802   1.156   0.277 -0.1484 -0.0209 -0.0912
14921W        W19321  22.289   1.234   2.947  0.0447 -0.0361 -0.0997
14922W        W19322  23.557   7.744   0.963  0.2190  0.0773 -0.1698
14923W        W19323   0.063   4.869  25.207 -0.0264  0.2756  0.2850
14924W        W19324  30.337   3.536   2.654  0.2390 -0.1662  0.1365
14925W        W19325  28.804   4.428  15.076  0.0531  0.0232  0.0720
14926W        W19326  21.194   4.320  10.518  0.2820  0.3098 -0.2098
14927W        W19327  17.609   5.700   5.542  0.0193 -0.1701 -0.1625
14928W        W19328  28.982   5.165  24.839 -0.1929 -0.2379 -0.1073
14929W        W19329  30.422   3.195   3.278  0.0159  0.1484 -0.2442
14930W        W19330  18.522   1.154  10.868 -0.0508 -0.0131  0.2716
14931W        W19331  23.911   6.231   5.068  0.0886 -0.0413  0.0296
14932W        W19332  18.760   4.899   1.262  0.0834  0.0249 -0.0918
14933W        W19333   7.406   5.530  11.081 -0.0534 -0.2117 -0.0992
14934W        W19334  16.763   2.453   1.233 -0.2245  0.2562 -0.2696
14935W        W19335  15.389   0.191  19.643 -0.3161 -0.0099 -0.1885
14936W        W19336  26.113   4.874   2.521 -0.2577  0.0149  0.0563
14937W        W19337   0.251   1.512  20.004  0.0294 -0.0657  0.1973
14938W        W19338  13.639   1.761  16.946  0.2734  0.0937 -0.0298
14939W        W19339   7.029   3.535  21.973 -0.1592  0.1577  0.2018
14940W        W19340  20.601   5.317   7.749  0.0854 -0.2451 -0.0856
14941W        W19341   7.268   5.136  19.939 -0.0071  0.2514 -0.0342
14942W        W19342   8.246   5.695  16.718  0.1077 -0.1952 -0.0440
14943W        W19343  19.836   4.931   4.021  0.2174 -0.0030  0.3148
14944W        W19344  13.452   1.158  19.313 -0.1746  0.1827 -0.0531
14945W        W19345  21.335   4.720  23.652  0.0836 -0.1767  0.0347
14946W        W19346  24.076   6.320  24.534  0.0441 -0.1016  0.0984
14947W        W19347   1.492   7.707  22.385 -0.1502 -0.1962  0.2145
14948W        W19348  26.468   0.363   0.356 -0.4577 -0.2321  0.1091
14949W        W19349  31.355   4.603  17.884  0.1615 -0.1457  0.0184
14950W        W19350  18.986   3.652  19.111  0.0878  0.3348 -0.1504
14951W        W19351  19.920   6.933  17.934 -0.1323 -0.0334 -0.3446
14952W        W19352  14.252   0.719  15.353 -0.0498  0.0216  0.0315
14953W        W19353  24.740   4.287  25.382 -0.0912 -0.0415  0.0917
14954W        W19354  19.390   4.525  20.639  0.1513  0.0405 -0.0054
14955W        W19355   0.820   1.337   9.680 -0.1225  0.1143  0.1114
14956W        W19356  10.097   1.735   5.154 -0.2886 -0.1581  0.0820
14957W        W19357  24.206   7.038   0.941  0.1996  0.1016 -0.2054
14958W        W19358  26.129   4.175   8.034  0.3796  0.1763  0.2047
14959W        W19359  25.487   6.822  15.912 -0.1215  0.4208  0.2367
14960W        W19360   6.330   1.783  20.460  0.2792 -0.0449  0.0281
14961W        W19361  27.747   1.362   1.642  0.2359  0.1321  0.0169
14962W        W19362  21.482   5.667  20.838 -0.1040  0.3102  0.0480
14963W        W19363  29.808   0.777  15.656  0.1312 -0.3629 -0.1435
14964W        W19364  19.094   5.190  25.044  0.1370 -0.0675 -0.0041
14965W        W19365  17.548   4.654   0.293  0.2482 -0.2120 -0.0365
14966W        W19366   5.892   1.832   0.116 -0.3233 -0.1000  0.1088
14967W        W19367  10.783   7.249   5.975 -0.0524  0.0287  0.1941
14968W        W19368   4.408   6.790   7.431 -0.3247 -0.0277 -0.0387
14969W        W19369  11.431   3.333  22.852  0.0157 -0.1483  0.0018
14970W        W19370  11.045   3.375  23.951  0.0617  0.2080  0.0629
14971W        W19371  27.282   3.162   8.203  0.1125  0.0644  0.2256
14972W        W19372  22.719   2.969  16.305  0.0742 -0.0822  0.2391
14973W        W19373  29.935   5.384   2.218  0.5746  0.0043 -0.1931
14974W        W19374  25.264   4.403  15.898 -0.2783  0.1740  0.0148
14975W        W19375   5.549   4.511  24.015  0.0575 -0.1160  0.0046
14976W        W19376  27.222   6.531   8.058  0.0691  0.3306 -0.0287
14977W        W19377  14.207   3.823   9.990  0.1448 -0.2713 -0.1387
14978W        W19378  26.864   3.552  21.114 -0.2073 -0.0007  0.1680
14979W        W19379  26.475   2.618   7.041  0.3549 -0.0713  0.1625
14980W        W19380  29.942   1.690  22.047 -0.1742 -0.0522  0.2498
14981W        W19381  21.033   0.900   0.739  0.0278  0.1320 -0.1182
14982W        W19382  28.024   4.727   3.533  0.2097  0.3215  0.0219
14983W        W19383  28.490   5.070   9.347 -0.2774 -0.0169 -0.2585
14984W        W19384   2.507   4.641   7.090  0.1260 -0.2967  0.1874
14985W        W19385  12.945   0.187  24.479 -0.0377 -0.0055 -0.1799
14986W        W19386  13.359   0.194   8.393 -0.2227  0.1593  0.2654
14987W        W19387  10.275   0.898   8.722 -0.2939 -0.1061  0.0312
14988W        W19388   7.532   7.580   3.169 -0.3652 -0.2093  0.1233
14989W        W19389  21.000   4.191  18.314  0.3538 -0.0387 -0.0037
14990W        W19390  24.882   0.150   6.713  0.1279  0.0102  0.0340
14991W        W19391  12.109   5.970   3.815 -0.2085  0.2016 -0.1426
14992W        W19392  23.733   4.481  16.914 -0.1383 -0.2307  0.3315
14993W        W19393  29.092   6.890   5.840 -0.0327  0.3330  0.1955
14994W        W19394  30.813   6.629  16.915  0.0588  0.0621 -0.0489
14995W        W19395   4.360   3.461   6.070  0.2387 -0.1329 -0.1116
14996W        W19396  29.202   0.502  18.535 -0.3392 -0.2050 -0.0248
14997W        W19397  26.169   2.358   0.722 -0.3350 -0.3860 -0.2852
14998W        W19398  15.111   3.126   6.026  0.0948  0.0934 -0.0423
14999W        W19399  10.527   5.270   1.769 -0.2033  0.0381 -0.1067
15000W        W19400  14.287   6.611  17.715  0.2767 -0.3721  0.0465
15001W        W19401  31.403   3.648  10.538 -0.0942  0.1632 -0.2292
15002W        W19402  15.643   0.706  16.485 -0.1428 -0.0351 -0.1314
15003W        W19403  23.375   0.552   5.040 -0.1784  0.2181 -0.0321
15004W        W19404  18.065   6.229  10.769 -0.1717 -0.1171 -0.1249
15005W        W19405   4.253   7.827  18.817  0.0569 -0.2203  0.0224
15006W        W19406   7.679   6.254   6.752  0.0233 -0.1259  0.0682
15007W        W19407  15.401   6.174  25.170  0.0646 -0.0300  0.1216
15008W        W19408   9.327   0.292   9.922  0.2174  0.1624  0.2064
15009W        W19409  23.190   7.440   9.529 -0.2116  0.1326 -0.0330
15010W        W19410  20.936   4.816   6.182 -0.0718  0.0438  0.0244
15011W        W19411  12.791   0.203  17.453 -0.0377 -0.0234 -0.1233
15012W        W19412   2.129   0.985  25.372 -0.0909  0.4152  0.1737
15013W        W19413   5.223   0.539  15.625  0.0354  0.0287  0.1230
15014W        W19414   3.495   7.432   4.744 -0.0729  0.1486  0.0243
15015W        W19415  23.874   2.901  23.572  0.0172  0.3383  0.0067
15016W        W19416  31.392   3.028   5.770  0.1154  0.1052 -0.0951
15017W        W19417   0.346   1.498   2.941 -0.1096 -0.0441  0.0832
15018W        W19418  27.323   4.363  21.544 -0.2470 -0.0757 -0.0614
15019W        W19419  21.100   2.019   4.842 -0.0786 -0.1870 -0.1334
15020W        W19420  20.552   3.816  20.538 -0.2333  0.1143 -0.3522
15021W        W19421   8.081   2.828  22.189  0.0923 -0.1086  0.2585
15022W        W19422  28.962   2.552  22.652  0.2614  0.0423 -0.2028
15023W        W19423  29.062   5.304   0.246  0.3086 -0.2159  0.1802
15024W        W19424  13.999   5.258  21.485  0.4932 -0.1540  0.0269
15025W        W19425   4.957   0.020   6.170  0.1872  0.2368 -0.0898
15026W        W19426  12.854   0.953  24.974  0.0967  0.0964 -0.0826
15027W        W19427  23.809   4.430  24.605 -0.1578  0.2023 -0.1340
15028W        W19428  12.976   3.335  17.433  0.0581  0.1044  0.0590
15029W        W19429  28.964   3.559   0.174  0.1824 -0.1988  0.0364
15030W        W19430  26.643   1.921   2.907  0.0443 -0.0810 -0.0418
15031W        W19431  14.426   2.968  15.338  0.0604  0.0292  0.3279
15032W        W19432   8.160   2.867  20.170 -0.0300 -0.0503  0.0685
15033W        W19433   4.985   4.270   0.837 -0.1482 -0.1124 -0.3694
15034W        W19434  24.815   1.311  15.428  0.0029 -0.2298  0.3719
15035W        W19435  15.692   4.492   4.835  0.1434  0.1637 -0.2788
15036W        W19436  22.905   1.559   1.037 -0.0250  0.1597  0.0263
15037W        W19437   7.552   1.783   8.717 -0.0890  0.1738 -0.1733
15038W        W19438  20.962   7.049   3.157 -0.1826 -0.0893 -0.1810
15039W        W19439   4.833   3.889   1.173 -0.0008 -0.1908 -0.1107
15040W        W19440  22.447   0.077  25.027 -0.3396  0.1910  0.3158
15041W        W19441   3.903   6.737   2.261  0.3863  0.2043  0.1098
15042W        W19442  16.224   1.236   9.723 -0.0082 -0.6289  0.0509
15043W        W19443  26.893   4.508   8.149  0.1580 -0.2611 -0.0537
15044W        W19444  21.467   7.242  22.138 -0.1557  0.1782 -0.3292
15045W        W19445  29.940   1.710   2.607 -0.2407 -0.1694 -0.0428
15046W        W19446  18.162   0.559   3.864 -0.1343  0.2209  0.1820
15047W        W19447   4.966   3.911   3.582 -0.1595 -0.1724 -0.2207
15048W        W19448   5.026   6.782   9.850  0.5544  0.0368 -0.1267
15049W        W19449  10.208   1.239   4.817 -0.1470  0.2307 -0.1194
15050W        W19450  16.379   2.102   1.400 -0.1111 -0.0539 -0.1813
15051W        W19451  30.166   4.922  10.023  0.1068  0.3707  0.2046
15052W        W19452  23.609   2.894   4.972 -0.2531  0.0234 -0.1645
15053W        W19453  26.032   2.275   9.473 -0.2428 -0.0994  0.0355
15054W        W19454  21.299   3.540   5.461 -0.0192  0.0393  0.0388
15055W        W19455  23.990   0.837  11.091 -0.1017 -0.2801  0.0227
15056W        W19456   2.299   3.798   2.481 -0.0865 -0.0189 -0.2194
15057W        W19457  20.535   7.065   6.464 -0.1311  0.2733  0.0783
15058W        W19458   5.026   0.576  17.444 -0.4033 -0.3338  0.1440
15059W        W19459   4.078   5.106   8.525 -0.2335  0.4901  0.2062
15060W        W19460  25.483   2.482  15.966 -0.0453  0.0952  0.0509
15061W        W19461   6.134   1.687  22.065 -0.3379  0.0401 -0.1895
15062W        W19462  18.892   4.048  25.003  0.0725 -0.1212 -0.1230
15063W        W19463   0.156   5.986  15.371 -0.2853 -0.0712 -0.2007
15064W        W19464  12.924   7.048   0.701 -0.3191  0.1652 -0.1564
15065W        W19465  29.603   2.878  16.735 -0.0027 -0.0171  0.0770
15066W        W19466  18.886   4.680  18.670 -0.2894 -0.1649 -0.1739
15067W        W19467  19.054   1.939  10.747  0.1567  0.0004  0.0861
15068W        W19468   5.663   4.706  19.049  0.0396  0.1914 -0.0324
15069W        W19469  18.564   1.184   8.463 -0.0611  0.0051  0.1474
15070W        W19470  20.159   1.363  16.150  0.0557  0.0452 -0.1752
15071W        W19471  25.593   4.503   3.156 -0.0613 -0.2881  0.1159
15072W        W19472  15.924   1.512   0.503  0.0721  0.0107  0.0180
15073W        W19473  29.208   6.462   7.820 -0.0352  0.0285  0.2675
15074W        W19474  17.378   7.528  21.707  0.1991  0.3660  0.1065
15075W        W19475  19.337   7.211   0.714  0.2630 -0.0856  0.1547
15076W        W19476  17.530   3.826   5.092 -0.0449 -0.0975 -0.3713
15077W        W19477  29.589   5.467   4.789  0.0455 -0.0064 -0.2200
15078W        W19478  18.896   3.599  23.899  0.0060  0.0241  0.1331
15079W        W19479   1.084   2.112   4.180 -0.2286 -0.1006 -0.0364
15080W        W19480  20.378   4.517   9.745 -0.0122  0.0051  0.0799
15081W        W19481   4.153   2.505  17.163 -0.0697 -0.0064 -0.0249
15082W        W19482  26.641   2.132   8.855  0.1015  0.0488 -0.0369
15083W        W19483  26.930   0.423  10.473  0.0373 -0.0056  0.0312
15084W        W19484  13.397   4.088  11.040 -0.0712  0.1428 -0.1018
15085W        W19485  12.624   7.846  10.140  0.0355 -0.4143 -0.2220
15086W        W19486  20.091   7.764   0.356  0.0848 -0.0367  0.0630
15087W        W19487  12.679   1.955  16.306 -0.1248  0.1734 -0.0402
15088W        W19488   1.825   4.480  20.061  0.0306 -0.1686  0.1029
15089W        W19489  12.768   6.959  26.029  0.1666 -0.0287  0.0300
15090W        W19490  13.788   6.162   3.454 -0.6012 -0.1878 -0.1801
15091W        W19491  13.781   4.410  24.044  0.0442  0.1868 -0.1976
15092W        W19492  27.277   6.687   5.812 -0.3076  0.3110  0.0601
15093W        W19493  21.347   7.372   3.433 -0.2324 -0.0908  0.2093
15094W        W19494   6.002   2.876  16.669  0.0409 -0.0123 -0.2322
15095W        W19495  25.135   3.169   4.284 -0.2307 -0.0002 -0.1126
15096W        W19496   8.923   3.247   0.692  0.2885 -0.0790 -0.2661
15097W        W19497   5.365   7.120   1.581  0.1372  0.1751 -0.4780
15098W        W19498  16.441   7.427  21.439  0.3051 -0.0072  0.2445
15099W        W19499   2.533   4.328  22.347 -0.1199 -0.1466 -0.0838
15100W        W19500  12.317   2.284  20.383 -0.0965 -0.0692 -0.0825
15101W        W19501  16.354   7.558   2.315  0.1349 -0.0189 -0.2518
15102W        W19502  10.289   3.466   9.120  0.1283  0.1706 -0.2857
15103W        W19503  26.452   4.872   7.398  0.0214  0.0439 -0.3069
15104W        W19504  10.414   1.170   6.741  0.2079 -0.1269  0.0346
15105W        W19505  20.341   3.506   0.676 -0.1053 -0.3371  0.0830
15106W        W19506  24.057   2.326   9.916  0.1233  0.1738 -0.0772
15107W        W19507  11.397   3.540   1.159 -0.3071  0.0728  0.0868
15108W        W19508  27.043   2.924   3.516 -0.1339  0.0635  0.0012
15109W        W19509   5.330   5.311  19.849  0.5798 -0.1672  0.0455
15110W        W19510  21.550   6.589  26.010  0.0826 -0.1359  0.0805
15111W        W19511  22.153   4.763  24.142 -0.2808 -0.0039 -0.2199
15112W        W19512  18.237   2.471  22.389  0.1087 -0.2861  0.4148
15113W        W19513  26.318   4.301   9.494 -0.0341  0.0910  0.0707
15114W        W19514  14.749   2.583  22.771 -0.2824  0.0680  0.1551
15115W        W19515   0.285   3.497   9.395  0.0171  0.0293 -0.2404
15116W        W19516  29.705   6.724  22.580 -0.0886 -0.2076  0.0308
15117W        W19517  29.405   6.732  23.432 -0.1630 -0.1186  0.2858
15118W        W19518  29.612   0.478  22.873  0.2155  0.1954  0.0137
15119W        W19519   4.060   7.601  23.236  0.0859 -0.1477  0.2152
15120W        W19520  27.558   4.417  18.810 -0.0042 -0.1934 -0.4240
15121W        W19521  14.763   2.761  11.016 -0.2783  0.1534 -0.1319
15122W        W19522  13.407   0.373   3.566  0.2365  0.1413  0.3264
15123W        W19523  21.361   3.795   3.427 -0.4178  0.1502  0.0431
15124W        W19524  25.370   1.843  10.017 -0.0901  0.0628  0.1291
15125W        W19525   0.763   1.983   3.780  0.0126 -0.1100 -0.0704
15126W        W19526  15.868   6.486   3.694 -0.0575 -0.1641 -0.2126
15127W        W19527   0.091   4.506  19.196 -0.0884  0.0828 -0.1792
15128W        W19528   4.383   2.243   9.326  0.3164 -0.1647 -0.1681
15129W        W19529   9.023   7.078   7.296 -0.0500  0.1318 -0.2889
15130W        W19530  22.496   0.357   6.376  0.0469  0.0363 -0.2336
15131W        W19531  19.511   2.249  22.367  0.1702  0.1270  0.0004
15132W        W19532  13.553   5.154   2.123 -0.1580  0.1079 -0.2210
15133W        W19533   8.917   3.321  23.609  0.3120  0.0260  0.0501
15134W        W19534  23.732   4.257   9.636  0.1053 -0.1629 -0.0274
15135W        W19535   1.392   3.709  21.749 -0.1199  0.1224 -0.0649
15136W        W19536  13.731   1.783   6.343 -0.0219  0.2977  0.2326
15137W        W19537  10.934   4.778  24.429 -0.2358 -0.2001 -0.0886
15138W        W19538  31.332   5.976  23.957 -0.3139 -0.4446 -0.0345
15139W        W19539  28.425   5.174  17.621  0.1781 -0.1284 -0.1086
15140W        W19540  12.124   7.379   7.391  0.0432  0.0819 -0.3220
15141W        W19541   7.200   2.588   4.393 -0.3874 -0.4689 -0.0198
15142W        W19542  18.950   7.137   5.130  0.3620  0.0319  0.1052
15143W        W19543  30.693   0.082   8.273 -0.2836 -0.0927 -0.1154
15144W        W19544  17.018   2.746   5.482 -0.4431  0.0266 -0.0323
15145W        W19545  10.587   2.582  20.554 -0.1915 -0.4161  0.0189
15146W        W19546  25.189   4.332  17.478 -0.2619 -0.1630 -0.0147
15147W        W19547  21.363   4.543  21.649  0.0878  0.0174 -0.0774
15148W        W19548  20.425   0.904  19.059  0.2686  0.0542  0.0678
15149W        W19549  21.213   3.188  16.299  0.1157 -0.0783  0.1312
15150W        W19550   8.637   0.207  18.763 -0.4154  0.0273 -0.0378
15151W        W19551  11.468   3.270   1.606  0.0277  0.1851  0.0485
15152W        W19552   2.398   3.257   6.152  0.2624 -0.0265  0.2675
15153W        W19553  30.978   3.384  24.599 -0.1879  0.0230  0.2146
15154W        W19554  29.790   2.738   7.100  0.0229 -0.1207 -0.1788
15155W        W19555  16.330   7.193   3.312  0.1638  0.2075 -0.0278
15156W        W19556   5.332   3.671   9.578  0.3331  0.2081 -0.1891
15157W        W19557  11.194   7.740   0.620 -0.4330 -0.2768  0.1413
15158W        W19558  22.909   2.518  22.857  0.3830  0.0011  0.1170
15159W        W19559   3.703   6.374  20.604  0.0527  0.0847  0.3508
15160W        W19560  18.667   7.227   2.322 -0.3725  0.0262  0.0539
15161W        W19561  31.326   6.710  23.353  0.1381 -0.1928  0.3466
15162W        W19562  22.650   6.586  24.474 -0.2875  0.1204  0.0089
15163W        W19563  23.918   1.672   2.270 -0.1782 -0.1967 -0.2292
15164W        W19564  30.086   0.376   3.467 -0.1547  0.2148 -0.0312
15165W        W19565  12.647   3.902  16.708 -0.0631  0.0309 -0.0203
15166W        W19566   4.323   3.601  21.896  0.3368 -0.0823 -0.0240
15167W        W19567   6.944   7.395   9.669 -0.5234  0.2301 -0.4276
15168W        W19568  20.290   5.967   8.192  0.3815 -0.2176  0.3154
15169W        W19569  25.612   7.363   0.975 -0.2391 -0.0321 -0.1670
15170W        W19570   9.087   5.515   4.824 -0.0479 -0.2423  0.0943
15171W        W19571  27.977   2.993   0.033 -0.1349 -0.0270  0.0689
15172W        W19572   6.053   3.855  25.429  0.0374  0.3025 -0.1002
15173W        W19573  26.528   5.210  21.391  0.3693 -0.1764  0.0854
15174W        W19574   9.695   1.685  23.696  0.1655  0.1960  0.0266
15175W        W19575  11.594   0.010   1.307  0.3138 -0.2690  0.1558
15176W        W19576  11.357   0.071   7.060 -0.1113  0.0321  0.0100
15177W        W19577  16.612   1.627   0.976 -0.2432  0.1111  0.1353
15178W        W19578  26.302   1.822  25.430 -0.1339  0.2950  0.0087
15179W        W19579   6.258   0.643  21.782 -0.1252  0.1181  0.2447
15180W        W19580  11.896   5.595  22.928 -0.1305  0.0437 -0.1046
15181W        W19581  13.936   5.506  10.327 -0.1896  0.1205 -0.0960
15182W        W19582  30.711   1.959  19.443 -0.1377  0.1222 -0.3251
15183W        W19583  31.407   4.174   0.893  0.3172 -0.0500  0.1029
15184W        W19584   8.403   3.499   7.707  0.0398 -0.1590 -0.1100
15185W        W19585  23.124   3.754   8.732 -0.4023 -0.2152  0.2303
15186W        W19586  12.573   2.196   5.442 -0.1495  0.2372  0.0454
15187W        W19587  25.821   2.674   4.448 -0.4801  0.2117  0.0681
15188W        W19588  27.254   2.768  22.180 -0.1216  0.0279  0.1322
15189W        W19589  18.125   3.959   2.787  0.2172  0.2404  0.1717
15190W        W19590  21.632   6.158   2.283 -0.0405 -0.1856 -0.2262
15191W        W19591  25.302   6.935   3.019  0.2727  0.3296  0.0698
15192W        W19592   4.828   2.858  20.865 -0.0632  0.1482 -0.4850
15193W        W19593  14.557   4.424   5.132  0.1349  0.0363 -0.0262
15194W        W19594  23.096   7.443  15.496 -0.1453  0.1795  0.1887
15195W        W19595  18.347   6.938  16.973  0.2633 -0.3931  0.1532
15196W        W19596   2.227   6.247  25.986  0.2787  0.2527 -0.0499
15197W        W19597   7.306   4.842  16.421 -0.1739 -0.1059 -0.3158
15198W        W19598   1.367   6.838   0.253  0.1923  0.3080 -0.0419
15199W        W19599  24.811   6.575  21.623  0.0990 -0.2157 -0.0111
15200W        W19600  17.887   5.267   6.858 -0.1284 -0.1536 -0.2162
15201W        W19601  18.530   5.931   7.338  0.3060  0.0545  0.0701
15202W        W19602  10.991   4.423   2.122 -0.2886 -0.1464 -0.0773
15203W        W19603  16.840   0.309  17.511 -0.2963 -0.3126 -0.2668
15204W        W19604  20.911   5.652   2.250 -0.0499 -0.1354 -0.0484
15205W        W19605  24.718   5.773   5.929 -0.3679 -0.3842 -0.2173
15206W        W19606  10.721   0.980   5.957  0.1151 -0.1342  0.1885
15207W        W19607  13.393   0.894  19.843  0.1390 -0.2644 -0.3713
15208W        W19608  20.863   7.773  17.282 -0.0105  0.1672 -0.3012
15209W        W19609  20.243   6.681  21.924  0.2059  0.0348 -0.0636
15210W        W19610  26.914   1.951  19.163 -0.4008  0.4863 -0.1464
15211W        W19611   7.854   4.174  18.476 -0.1720 -0.1185 -0.0501
15212W        W19612   0.388   0.841   6.339 -0.0387 -0.2412  0.1540
15213W        W19613  22.315   3.098  17.231  0.0232  0.2614  0.1145
15214W        W19614   6.667   4.461   1.053 -0.2695  0.1119 -0.1331
15215W        W19615   4.885   2.148  20.089  0.2446 -0.0776 -0.2080
15216W        W19616  25.952   7.052   3.691  0.1623 -0.2869 -0.0402
15217W        W19617  13.282   1.186   2.130 -0.2075 -0.2630 -0.0389
15218W        W19618  20.092   6.808   9.597  0.3261 -0.0622  0.0417
15219W        W19619   1.609   0.511   3.464 -0.1454  0.0979  0.0009
15220W        W19620   4.487   6.701  22.286 -0.0308 -0.1972 -0.1393
15221W        W19621   9.473   2.162   1.312 -0.0490 -0.0142  0.2112
15222W        W19622   5.755   2.341   3.993 -0.4155 -0.3535  0.1394
15223W        W19623  15.708   5.774   6.171  0.4033  0.0297 -0.0824
15224W        W19624  14.380   4.186   4.748  0.0482 -0.2037  0.0149
15225W        W19625   4.758   1.350  20.758 -0.1109 -0.0868  0.1212
15226W        W19626  25.731   5.746   4.238 -0.0588 -0.0576  0.1995
15227W        W19627  17.107   5.241  15.048  0.1229 -0.3270 -0.0862
15228W        W19628   0.379   5.362  24.455  0.0717  0.0513  0.1623
15229W        W19629  11.624   1.646   2.709 -0.3434  0.2088  0.1653
15230W        W19630  15.769   6.876   7.134  0.3339  0.3826 -0.0956
15231W        W19631   9.436   7.453  18.717  0.0828 -0.0393  0.0284
15232W        W19632   3.703   3.573  14.499 -0.0576 -0.0275 -0.0865
15233W        W19633  17.783   4.712   7.758 -0.0711 -0.2830  0.1490
15234W        W19634  13.292   4.031  18.076 -0.0057 -0.0914  0.1327
15235W        W19635  17.373   3.565   7.407  0.0728  0.0220 -0.1028
15236W        W19636   5.637   3.895  20.501  0.0352 -0.2180  0.1358
15237W        W19637  29.151   1.757   8.052  0.3127  0.2109 -0.3188
15238W        W19638  26.356   6.207   2.149  0.1264  0.3068 -0.0459
15239W        W19639  30.390   6.117   1.321  0.1228 -0.1730 -0.0067
15240W        W19640  12.978   2.761  23.442 -0.0635  0.1105  0.0453
15241W        W19641  19.332   1.101   6.379 -0.0412 -0.1961 -0.0362
15242W        W19642   1.391   7.622   6.218 -0.1780  0.0140 -0.2724
15243W        W19643  21.131   0.033   8.001 -0.2017 -0.0195  0.0638
15244W        W19644  22.148   3.732   5.467 -0.0228  0.1720  0.0072
15245W        W19645  27.814   4.378  15.230  0.0297 -0.0513 -0.1398
15246W        W19646  20.173   2.549  21.449 -0.2778 -0.0218 -0.0504
15247W        W19647  26.804   7.249  17.832 -0.1295  0.0615 -0.0634
15248W        W19648  19.323   5.441   2.493  0.1449  0.2794 -0.0617
15249W        W19649  17.782   6.263   5.087 -0.1524 -0.1411 -0.1373
15250W        W19650  16.716   1.102  25.483 -0.1942  0.1074 -0.0950
15251W        W19651   2.213   1.999   7.158  0.2794  0.2067 -0.0682
15252W        W19652  22.616   5.189  15.950  0.2764 -0.4281 -0.3664
15253W        W19653  17.390   3.909  23.241 -0.0514 -0.0981 -0.2579
15254W        W19654   1.626   0.046   4.682 -0.2169 -0.1513 -0.1787
15255W        W19655  28.054   0.208   7.177  0.4163 -0.1610 -0.2826
15256W        W19656   3.647   3.989  10.078  0.0114 -0.2036  0.4087
15257W        W19657  27.622   3.066   7.885 -0.2034  0.2542 -0.1697
15258W        W19658  22.997   6.732   5.284  0.0845 -0.0176 -0.0193
15259W        W19659  27.811   5.866   2.483 -0.0057  0.2062  0.0203
15260W        W19660  27.257   0.707   7.403  0.1209  0.0984  0.0553
15261W        W19661  30.919   3.102   0.595 -0.0491  0.2504 -0.0321
15262W        W19662   4.930   2.982  18.189  0.2503 -0.2537 -0.0383
15263W        W19663   2.341   0.685   6.346 -0.0437 -0.0326 -0.1164
15264W        W19664  20.600   2.314  20.161 -0.0397  0.0911  0.2098
15265W        W19665  19.940   2.054  22.497 -0.3044  0.0167  0.2608
15266W        W19666   9.385   6.024   1.543  0.1924 -0.2925  0.1756
15267W        W19667  27.983   3.158  15.369 -0.5218  0.2151 -0.1054
15268W        W19668  19.206   2.110  22.790 -0.0226 -0.0935 -0.1949
15269W        W19669  12.953   1.898  10.176 -0.3168  0.1908  0.2794
15270W        W19670  29.344   6.492  16.313 -0.0660  0.2053  0.0541
15271W        W19671  27.114   6.519   0.302  0.2003 -0.2560 -0.0446
15272W        W19672   4.491   3.484  24.304 -0.2410  0.0958 -0.2670
15273W        W19673   7.739   5.578  23.532 -0.0497 -0.0338 -0.1338
15274W        W19674  18.393   5.717  16.512 -0.3250  0.1569  0.5454
15275W        W19675   5.183   4.136  19.687 -0.0981  0.1134  0.1530
15276W        W19676   4.505   1.653  22.604  0.0467  0.1386  0.2078
15277W        W19677   5.875   3.729  17.481 -0.1666  0.2982 -0.0413
15278W        W19678  15.453   4.150  24.823  0.0393 -0.2844 -0.1297
15279W        W19679  29.309   4.404  25.329 -0.1791 -0.1553 -0.3482
15280W        W19680  21.678   5.559  23.367 -0.1910  0.1842 -0.2336
15281W        W19681   2.551   7.384  23.718 -0.1320  0.1029 -0.0381
15282W        W19682  11.286   7.331   5.242  0.2225  0.0361  0.2450
15283W        W19683  10.371   5.367  17.253  0.1183 -0.0895 -0.2681
15284W        W19684  26.507   0.505   9.861 -0.0088 -0.2025  0.2840
15285W        W19685  10.020   5.003  10.474  0.0004  0.2015 -0.3751
15286W        W19686   2.617   1.116  17.619 -0.1801  0.3055 -0.1671
15287W        W19687   0.017   5.739   6.128  0.2368  0.2462  0.3229
15288W        W19688   3.315   4.686  18.220  0.2027 -0.3512  0.1740
15289W        W19689  21.571   1.689   0.913 -0.1514 -0.0609 -0.1362
15290W        W19690  25.236   2.962  16.697  0.1391  0.1067  0.1335
15291W        W19691   8.174   6.013   6.609 -0.2087  0.0359 -0.1899
15292W        W19692  11.686   4.832   6.785  0.1454 -0.3233  0.2151
15293W        W19693   1.817   2.588   8.963 -0.1197  0.0187 -0.2070
15294W        W19694  10.350   2.244  22.232  0.0317 -0.1921 -0.1062
15295W        W19695  29.276   5.360  19.087  0.0134  0.1232  0.1926
15296W        W19696  13.158   0.440  17.230 -0.2537  0.2256 -0.0842
15297W        W19697  19.329   7.088  24.215  0.1241 -0.0861 -0.1051
15298W        W19698   7.182   7.663  18.829  0.1355 -0.0596  0.1774
15299W        W19699  24.245   2.688  18.778  0.0205  0.1457 -0.0688
15300W        W19700  17.541   5.147   4.847  0.4122 -0.2345 -0.0112
15301W        W19701  29.219   5.627   0.590 -0.2055  0.2099  0.3769
15302W        W19702   6.559   5.946   5.293 -0.1157 -0.1076  0.1035
15303W        W19703   2.340   5.865  18.482 -0.3832  0.0822 -0.0090
15304W        W19704  23.257   4.429   4.385 -0.1472  0.2528 -0.1825
15305W        W19705   4.795   6.708  21.438 -0.0344 -0.0848  0.0015
15306W        W19706  15.702   6.441   4.695 -0.2172 -0.0810 -0.1389
15307W        W19707  27.448   6.377  19.516  0.0064  0.1369 -0.1669
15308W        W19708   6.517   0.855   9.605  0.0611  0.0355  0.1294
15309W        W19709  15.123   7.331  22.239  0.2292  0.1707  0.2937
15310W        W19710   4.458   2.423  20.053 -0.0241 -0.0572  0.1126
15311W        W19711   8.200   0.283   4.484  0.1305 -0.2597 -0.1186
15312W        W19712  18.075   6.791   5.299 -0.0603  0.0842  0.3144
15313W        W19713  17.075   4.891  22.853  0.0367 -0.1988  0.1640
15314W        W19714   1.682   6.317   8.844  0.0769  0.1031 -0.0279
15315W        W19715  17.035   3.996  25.797 -0.0267 -0.1279 -0.1262
15316W        W19716   7.289   4.952  25.846 -0.0619 -0.0953  0.4637
15317W        W19717   7.809   6.245   6.253 -0.3473  0.3543  0.2389
15318W        W19718   6.034   2.446   1.361  0.0431 -0.0352 -0.0793
15319W        W19719  27.856   7.658  19.514 -0.2674 -0.2136  0.3333
15320W        W19720  18.993   6.576   8.155 -0.1990  0.3585  0.2531
15321W        W19721  14.230   5.961   2.648  0.0296  0.1443 -0.0136
15322W        W19722   1.205   6.450   2.843  0.0310 -0.0234  0.1898
15323W        W19723  18.898   5.117  17.239 -0.2325 -0.3388 -0.0474
15324W        W19724   8.812   7.563   9.373 -0.2921  0.3837 -0.1172
15325W        W19725  30.176   7.468  24.091  0.0838  0.2164  0.1984
15326W        W19726   4.625   7.057  21.840  0.1334 -0.0349 -0.1297
15327W        W19727  12.308   1.133   3.836 -0.1749  0.0791 -0.0803
15328W        W19728  22.013   6.202  18.640  0.0796 -0.1310  0.2543
15329W        W19729   0.711   6.208  16.519 -0.1128  0.2228 -0.0708
15330W        W19730  19.057   3.776  17.678  0.1908 -0.1058 -0.4383
15331W        W19731  18.188   7.787   8.902 -0.0944  0.1919 -0.4994
15332W        W19732  17.673   6.603  20.311  0.0318  0.2255  0.3259
15333W        W19733  11.717   5.233   0.325  0.1182  0.0299  0.0010
15334W        W19734  23.287   7.360  17.458  0.4178 -0.1018  0.1906
15335W        W19735   8.033   2.504  25.692 -0.0150 -0.1690 -0.0826
15336W        W19736  18.271   5.089   7.469 -0.1950  0.0352 -0.0960
15337W        W19737  15.287   5.577   6.640  0.0666  0.0923  0.0665
15338W        W19738  23.575   7.789  19.693 -0.1912 -0.3377 -0.0489
15339W        W19739  13.707   2.305   7.024 -0.2968  0.0333  0.0444
15340W        W19740  14.973   1.978   4.278 -0.0201  0.2458 -0.0429
15341W        W19741  21.492   1.710  23.817  0.0769 -0.1909  0.0994
15342W        W19742  14.732   0.156   8.750  0.2801  0.3152 -0.0188
15343W        W19743  19.468   2.146   8.581 -0.1087 -0.3509 -0.1524
15344W        W19744  12.548   4.431  20.846 -0.3390 -0.4237 -0.1975
15345W        W19745  14.674   6.535   4.737 -0.0238  0.1791 -0.0223
15346W        W19746  12.347   2.026  18.169  0.2363  0.0236 -0.1945
15347W        W19747   9.892   0.943   9.825 -0.3209 -0.1307  0.1867
15348W        W19748   6.881   3.814  17.513  0.0271  0.0105 -0.1220
15349W        W19749  26.614   3.310   3.411 -0.1900 -0.0918 -0.1242
15350W        W19750  16.123   3.719  24.742 -0.2141  0.0794  0.1108
15351W        W19751  19.917   1.995  11.437 -0.0955 -0.1537 -0.0959
15352W        W19752   9.511   2.873  15.718  0.1233 -0.0338  0.1997
15353W        W19753  19.561   7.779  19.241 -0.2506 -0.3820 -0.3065
15354W        W19754   8.497   6.720   5.026  0.0687  0.0667 -0.0231
15355W        W19755   0.192   0.445   0.930  0.0325 -0.0993 -0.1601
15356W        W19756  12.284   3.230   8.714  0.0014 -0.1998 -0.1175
15357W        W19757   6.098   5.071   1.217 -0.2551 -0.1171  0.1878
15358W        W19758   3.442   5.955  26.072  0.0571  0.0276  0.3473
15359W        W19759  17.052   5.293  16.954  0.1591 -0.1994 -0.5164
15360W        W19760  17.766   3.033   1.554 -0.0477 -0.2258 -0.0767
15361W        W19761  18.996   6.305  23.625  0.2169  0.2188 -0.2272
15362W        W19762  10.846   6.915   1.635  0.4170  0.0653 -0.0620
15363W        W19763   5.536   5.456  24.567 -0.1713  0.0208 -0.0542
15364W        W19764  28.024   5.095   9.195 -0.1863 -0.0053  0.0670
15365W        W19765   2.727   0.654   4.963 -0.1822  0.0830  0.3402
15366W        W19766  30.543   1.146  25.189  0.3150  0.1026  0.2023
15367W        W19767   6.695   5.181   3.543 -0.1509 -0.0398 -0.0338
15368W        W19768   7.149   0.941  16.223  0.0114 -0.0796  0.1027
15369W        W19769   5.090   3.919  20.587  0.1251  0.1325  0.1092
15370W        W19770  20.625   5.731   1.407 -0.0705 -0.2170  0.1921
15371W        W19771   2.709   5.705  10.693  0.0490  0.0332 -0.0043
15372W        W19772  18.279   5.123  17.409 -0.0014  0.2700 -0.0881
15373W        W19773  27.174   3.628   4.756  0.0876  0.3255 -0.0937
15374W        W19774   5.715   2.894   1.120 -0.0690  0.1154  0.1567
15375W        W19775   3.402   3.566   9.869  0.1016 -0.2554 -0.0123
15376W        W19776  11.820   1.154   5.851 -0.2395 -0.1620  0.0861
15377W        W19777  30.471   7.145  25.097  0.0370 -0.2860 -0.1794
15378W        W19778  30.238   5.658  14.280 -0.3124  0.1385 -0.3574
15379W        W19779  11.738   2.775   4.073  0.0789 -0.2576 -0.0341
15380W        W19780  18.183   1.970  11.294  0.0666  0.0550 -0.1935
15381W        W19781   3.059   6.795  22.616 -0.1605  0.2133 -0.0401
15382W        W19782  21.117   4.250  24.545 -0.0958  0.3453 -0.1031
15383W        W19783  28.513   0.122  15.567 -0.0533 -0.3809  0.0730
15384W        W19784  31.324   1.320   3.167  0.2222 -0.1988  0.1216
15385W        W19785   9.999   4.252   0.284 -0.1299  0.1487 -0.2016
15386W        W19786   6.244   1.685   5.771  0.2089 -0.1487 -0.0890
15387W        W19787  10.922   6.193   9.592 -0.1587 -0.2282  0.5769
15388W        W19788   1.681   4.988  22.734  0.2913 -0.0871 -0.0880
15389W        W19789   4.689   3.303  22.149  0.2554 -0.1302  0.1652
15390W        W19790  20.160   1.213   0.614  0.0453  0.2234  0.2409
15391W        W19791   1.104   7.238   2.336 -0.1191  0.1974 -0.1828
15392W        W19792  18.679   1.229   2.856  0.1273 -0.1014 -0.1491
15393W        W19793  29.654   4.777   5.309  0.0152  0.0147  0.1157
15394W        W19794   5.987   7.360   4.357  0.0825 -0.0351 -0.0383
15395W        W19795  24.433   3.610   1.132  0.1270 -0.2434 -0.1116
15396W        W19796  27.808   5.685  10.483  0.0881  0.1511  0.2772
15397W        W19797  30.523   3.331  17.841  0.1839  0.0327  0.0400
15398W        W19798   7.509   3.044   5.982 -0.0785  0.0945  0.2346
15399W        W19799  18.995   2.342   8.480 -0.2355  0.1807  0.4436
15400W        W19800   0.567   6.626  19.553  0.4538  0.0655  0.1552
15401W        W19801   4.374   1.310  18.836  0.1168 -0.3148 -0.2289
15402W        W19802   1.530   4.955   8.107  0.1562 -0.1023  0.1732
15403W        W19803   5.654   4.806  20.373  0.2571 -0.0119  0.1290
15404W        W19804  27.314   1.959   4.984  0.0544  0.1322  0.0038
15405W        W19805  12.759   1.815  18.449  0.0702 -0.0970  0.1460
15406W        W19806  10.244   0.778  16.248  0.3021 -0.1185 -0.1912
15407W        W19807  11.477   1.709  18.738  0.3114  0.0419 -0.1962
15408W        W19808  15.163   2.231   5.342 -0.1484 -0.0806  0.0008
15409W        W19809   8.201   0.614  25.545 -0.2257 -0.0699  0.0407
15410W        W19810  30.448   0.996  16.946  0.1360 -0.0856  0.0298
15411W        W19811   7.304   0.682   8.707  0.1958  0.4341 -0.1346
15412W        W19812   2.385   6.667  18.029 -0.0160  0.1180  0.4247
15413W        W19813  30.398   0.881  24.700  0.2058  0.5363  0.1177
15414W        W19814   9.519   4.280   7.279  0.1180  0.0872  0.1909
15415W        W19815  26.175   3.389   7.483 -0.0138 -0.1166  0.0892
15416W        W19816  10.352   1.431   9.363  0.0740 -0.1980  0.0871
15417W        W19817  30.241   3.401   9.522 -0.0259 -0.2502 -0.0067
15418W        W19818  10.730   3.433  25.694 -0.1357 -0.2344 -0.1466
15419W        W19819  28.060   6.199  14.989  0.2178 -0.1774 -0.2673
15420W        W19820  28.812   0.651  18.201  0.0282  0.1087  0.0538
15421W        W19821   3.053   0.744  25.136  0.0729 -0.1221  0.1250
15422W        W19822   2.159   4.178  19.348  0.0674  0.0441  0.1620
15423W        W19823   4.982   1.899   8.234  0.0966 -0.0818 -0.1293
15424W        W19824  16.960   4.770  25.403 -0.3693 -0.1170 -0.1057
15425W        W19825  26.677   7.200  17.274  0.4071  0.2170 -0.1764
15426W        W19826  20.918   6.665  22.580  0.2040  0.1951  0.0759
15427W        W19827  23.862   5.479  23.057  0.2603 -0.1192 -0.3682
15428W        W19828   9.132   7.689  21.489  0.2191  0.2146  0.0467
15429W        W19829  12.111   6.085  19.297  0.1764 -0.1406 -0.0805
15430W        W19830  29.837   1.268   3.508 -0.0598  0.0993  0.0919
15431W        W19831  16.494   1.366  16.715 -0.2589 -0.1704 -0.0184
15432W        W19832  10.997   3.979   6.448 -0.0416 -0.0480  0.0125
15433W        W19833   7.057   3.751  25.746 -0.2173 -0.0446 -0.1144
15434W        W19834  30.719   7.802   6.853 -0.0005  0.1630  0.0261
15435W        W19835  19.395   3.382  22.483  0.1477  0.0618  0.0959
15436W        W19836   1.780   6.739   7.623 -0.1972  0.2553  0.0285
15437W        W19837   0.029   4.254  23.864  0.0465  0.1908 -0.1574
15438W        W19838   7.638   3.386   6.940 -0.3196 -0.0216 -0.1744
15439W        W19839   6.051   0.741  23.238  0.2432  0.2254  0.2299
15440W        W19840  16.515   2.391  25.397  0.0341  0.2568  0.0170
15441W        W19841  15.405   7.100  25.918 -0.1001 -0.1774  0.2179
15442W        W19842  21.750   7.859  24.349 -0.0823  0.0141 -0.0230
15443W        W19843  19.667   6.333  25.095 -0.2678  0.0765  0.3427
15444W        W19844  25.189   5.853   5.900 -0.0608  0.0822  0.0307
15445W        W19845   8.685   2.448   1.060 -0.1075 -0.3100  0.2247
15446W        W19846  22.521   6.595   4.686 -0.2090 -0.0931 -0.1857
15447W        W19847  23.193   7.830  19.329  0.0631 -0.3320  0.1041
15448W        W19848  16.636   3.058  17.770 -0.1056  0.0042 -0.0120
15449W        W19849   7.414   1.070   4.996 -0.2478  0.0123  0.0619
15450W        W19850  30.634   5.632  19.471  0.1144 -0.0585  0.1350
15451W        W19851   7.713   7.806  20.053 -0.0131 -0.2162  0.0810
15452W        W19852  17.606   0.873   3.017 -0.1012 -0.2340  0.1409
15453W        W19853   4.044   1.150  25.939 -0.0630  0.1773  0.2015
15454W        W19854  14.134   7.126   7.570  0.2242  0.3936  0.1727
15455W        W19855  15.332   2.125   5.806  0.1837 -0.2112 -0.0257
15456W        W19856  11.825   1.336  24.133  0.1442 -0.0434  0.4042
15457W        W19857  16.781   3.703  15.269 -0.0292  0.1695 -0.2973
15458W        W19858   6.157   3.273  22.839 -0.1184  0.3139 -0.1926
15459W        W19859  19.622   7.377   3.928 -0.1885 -0.0024 -0.0823
15460W        W19860  14.312   6.195   9.519  0.1407 -0.0774  0.0987
15461W        W19861  23.811   0.325   3.781 -0.2096  0.4443 -0.5134
15462W        W19862  20.602   6.323  15.918 -0.0426  0.5009 -0.0244
15463W        W19863   2.345   1.922   0.591 -0.2137 -0.3246  0.4203
15464W        W19864  11.044   1.384  22.026 -0.0241 -0.2400 -0.1594
15465W        W19865  15.813   2.494  25.796  0.1844  0.0549  0.0941
15466W        W19866  25.515   6.642  21.106 -0.0158  0.1474  0.1270
15467W        W19867  16.018   1.743   1.706 -0.0242  0.0956  0.0531
15468W        W19868  24.403   5.778   1.888  0.2503 -0.0075 -0.1991
15469W        W19869   8.142   2.369  15.473 -0.3236 -0.2379  0.0051
15470W        W19870  13.443   5.529  24.596 -0.0454 -0.2202  0.1168
15471W        W19871  29.324   6.051   1.350  0.1601  0.0525 -0.3001
15472W        W19872  13.598   6.090  23.190  0.0557  0.0462  0.1860
15473W        W19873   8.565   0.394  18.200 -0.2978  0.3258  0.3643
15474W        W19874   7.804   0.655  15.099 -0.0246 -0.1302 -0.0016
15475W        W19875  15.826   1.922   9.412  0.1633 -0.1834  0.1081
15476W        W19876  12.804   4.287  15.409 -0.1373 -0.0213 -0.2711
15477W        W19877   7.234   3.383  20.470 -0.0636  0.1456  0.0399
15478W        W19878   9.115   3.337  10.528  0.1193 -0.1858 -0.0723
15479W        W19879   3.989   0.331  21.036 -0.0616 -0.1653  0.0349
15480W        W19880  19.694   0.042  10.264  0.0489 -0.0026  0.1626
15481W        W19881   8.940   1.767  23.053  0.3068  0.1400  0.1109
15482W        W19882  22.039   6.924   1.446 -0.3050 -0.2221  0.0980
15483W        W19883  22.101   1.341  18.451 -0.0413 -0.1090 -0.0676
15484W        W19884  28.394   7.630   8.306 -0.1765 -0.2191  0.1237
15485W        W19885   9.350   3.904   0.071  0.0877 -0.2148 -0.0821
15486W        W19886   9.108   2.459  17.450 -0.0448 -0.2390 -0.1815
15487W        W19887  13.935   2.445  17.905 -0.0847  0.2152 -0.3446
15488W        W19888  27.338   7.585  23.699  0.0952  0.0069 -0.0963
15489W        W19889  30.947   6.823  15.005  0.3835 -0.0213 -0.3144
15490W        W19890  27.271   5.085  18.224  0.1316  0.1446  0.1138
15491W        W19891  12.322   4.821  19.246  0.1816 -0.0967 -0.2973
15492W        W19892  19.517   7.829   3.604  0.1285  0.1665 -0.0767
15493W        W19893  22.885   0.831   0.092 -0.0586 -0.4748  0.0347
15494W        W19894  27.126   2.483   0.272  0.0749 -0.0330 -0.2904
15495W        W19895  19.820   5.085  10.814  0.1476 -0.1210  0.1000
15496W        W19896  26.773   1.372   3.737 -0.1902  0.0599  0.0006
15497W        W19897  14.508   0.566   8.888 -0.1402 -0.4051  0.2689
15498W        W19898  10.598   6.664   0.816 -0.1070  0.0618  0.2106
15499W        W19899   3.550   0.723  24.888  0.1546 -0.0391 -0.3799
15500W        W19900   2.531   3.644  25.944 -0.0269 -0.2234 -0.0464
15501W        W19901  15.626   4.827   1.349  0.0051 -0.5975 -0.1709
15502W        W19902  22.126   0.948   8.530 -0.0220 -0.0831  0.0406
15503W        W19903  24.417   7.527  20.051  0.2140  0.1133 -0.2489
15504W        W19904   2.343   6.312  20.515  0.0455 -0.0848  0.1733
15505W        W19905  28.884   2.079  22.753 -0.0612 -0.0689 -0.1120
15506W        W19906  14.200   6.735  11.497  0.2188 -0.1003  0.1972
15507W        W19907  19.909   3.642  10.966 -0.2019  0.0721  0.2337
15508W        W19908  18.919   5.614   3.795  0.0686  0.1601  0.1051
15509W        W19909   6.306   1.613  19.692  0.0502  0.1483  0.0064
15510W        W19910  17.860   7.229   8.056 -0.1049  0.1652  0.5727
15511W        W19911  13.510   3.997   6.224 -0.2409  0.3491 -0.0593
15512W        W19912  24.068   6.225   8.073  0.0514  0.3636  0.0872
15513W        W19913   4.993   0.950  16.570  0.0894 -0.0243  0.1584
15514W        W19914  14.029   5.389   3.284 -0.0057 -0.2092 -0.1300
15515W        W19915   9.951   4.372  19.524  0.2262  0.1116  0.0349
15516W        W19916  16.902   0.157  21.505  0.0857 -0.1369 -0.0320
15517W        W19917   1.824   7.235  19.602 -0.1796  0.0715 -0.2796
15518W        W19918  22.358   1.983  15.115 -0.0806 -0.0580 -0.0480
15519W        W19919   8.829   7.311   8.537 -0.0644  0.0829 -0.2645
15520W        W19920  26.935   5.133  15.632  0.0130  0.1009  0.2434
15521W        W19921   7.865   6.808  10.516  0.1835 -0.1053  0.0502
15522W        W19922  20.916   1.056  21.284 -0.2267 -0.0317 -0.0656
15523W        W19923  19.297   1.753  17.421 -0.0588 -0.0088 -0.3509
15524W        W19924  13.881   5.266  19.387 -0.2032 -0.1519  0.2069
15525W        W19925   4.597   0.225   6.617 -0.3098 -0.1117 -0.2148
15526W        W19926   8.681   0.045  16.082  0.0245 -0.1336 -0.2903
15527W        W19927   1.642   6.962  25.469  0.0412 -0.0212  0.0068
15528W        W19928   2.995   2.657  21.463 -0.1787  0.0788  0.1904
15529W        W19929  12.485   2.364  17.845 -0.0181 -0.0879 -0.0140
15530W        W19930   8.301   7.368   6.212  0.2352  0.4114  0.1430
15531W        W19931  14.603   6.065  15.819 -0.1086 -0.2841 -0.1170
15532W        W19932  22.077   6.465  20.213  0.1237  0.1325  0.1156
15533W        W19933   7.721   7.345  21.294  0.1932  0.2128 -0.3175
15534W        W19934  12.530   2.897  17.193 -0.3577  0.0735 -0.3516
15535W        W19935  18.231   2.758   4.981 -0.1311  0.0534  0.0960
15536W        W19936  21.437   0.598  10.768  0.0625  0.0898  0.2304
15537W        W19937  29.721   2.613  22.354 -0.1268 -0.0736 -0.1493
15538W        W19938  13.875   3.368   1.154 -0.1649 -0.1398  0.1634
15539W        W19939  27.353   5.908  16.096 -0.1651 -0.1296  0.3547
15540W        W19940  28.504   3.531  23.127 -0.4070 -0.3549 -0.3745
15541W        W19941  13.098   1.244  25.342 -0.1834 -0.3989 -0.0159
15542W        W19942  12.570   0.247   6.477  0.0860 -0.4462 -0.1144
15543W        W19943  18.081   4.170   9.221  0.4416 -0.0226 -0.0653
15544W        W19944  27.124   7.843   4.303  0.0564 -0.2868 -0.0249
15545W        W19945  10.739   3.247  20.811  0.0267  0.2002  0.2520
15546W        W19946  19.724   5.237  15.482  0.1544  0.0250 -0.1154
15547W        W19947  12.095   0.395  21.993  0.2235  0.0781  0.0085
15548W        W19948  26.366   2.760   2.169 -0.1571  0.0405  0.0436
15549W        W19949   6.407   3.627   3.493 -0.0495 -0.3354  0.2378
15550W        W19950  16.332   2.516   8.431 -0.2898  0.4585 -0.0910
15551W        W19951  30.989   2.039  16.301  0.2002  0.0079  0.0984
15552W        W19952  15.881   6.819  15.417  0.0449  0.2667  0.0247
15553W        W19953  10.383   7.758  20.820  0.0848 -0.1409  0.3525
15554W        W19954   8.942   7.201  22.423  0.0566 -0.2226 -0.1273
15555W        W19955  15.105   2.866   6.999 -0.0155  0.1393 -0.2343
15556W        W19956  26.807   3.209   5.912 -0.0419 -0.0869  0.0827
15557W        W19957  14.890   2.316   6.025 -0.0692 -0.0705 -0.0414
15558W        W19958  28.664   6.337   2.471  0.0188  0.2238  0.0546
15559W        W19959  27.779   1.079  20.681 -0.1259  0.1125  0.0509
15560W        W19960  24.618   7.483  16.340  0.2045 -0.1546  0.0705
15561W        W19961  21.327   0.592  23.245  0.0006 -0.1230 -0.2620
15562W        W19962   7.363   0.064   0.304  0.1107  0.0813 -0.0778
15563W        W19963  21.142   3.836  16.645 -0.0546 -0.1581 -0.1371
15564W        W19964   0.250   4.113  16.141 -0.1269  0.4806 -0.1360
15565W        W19965  13.041   5.131  16.046  0.0082 -0.0737  0.1702
15566W        W19966   8.885   3.076  21.128 -0.0223  0.3624  0.0499
15567W        W19967  14.077   1.639   9.808 -0.1145  0.0926  0.4833
15568W        W19968  30.046   5.007  15.385 -0.1163 -0.1250 -0.2029
15569W        W19969  10.770   3.062   4.827  0.1347  0.2962  0.0223
15570W        W19970   4.696   0.142  15.142 -0.2411  0.1878 -0.0159
15571W        W19971   3.998   1.779  21.378 -0.1452  0.0336 -0.1138
15572W        W19972  27.388   7.562   6.362  0.0454  0.1375 -0.1529
15573W        W19973  24.618   2.774   2.777  0.0628  0.1360  0.2156
15574W        W19974   5.329   2.689   0.805 -0.1501 -0.0649 -0.0235
15575W        W19975  26.664   1.209  16.850  0.1190  0.1809  0.0593
15576W        W19976  17.553   3.449  24.417  0.0525  0.3293 -0.0697
15577W        W19977  14.007   4.194   8.207 -0.1538 -0.1342  0.2817
15578W        W19978  21.555   2.104  10.856  0.1872  0.1320  0.1984
15579W        W19979  30.240   7.030   4.497 -0.2168  0.0010 -0.1300
15580W        W19980   8.969   2.236  23.151 -0.0504  0.1683 -0.0740
15581W        W19981  10.928   4.433  25.712  0.0282  0.0114  0.1500
15582W        W19982  15.164   4.562  16.701 -0.0149 -0.2641 -0.0887
15583W        W19983  13.982   3.472  18.810 -0.0848 -0.2799 -0.0918
15584W        W19984  29.749   6.133   6.223 -0.1265 -0.0220 -0.1388
15585W        W19985  16.011   1.388   5.595 -0.2326 -0.0980  0.1651
15586W        W19986  27.586   4.547   6.425 -0.0146  0.0216  0.2465
15587W        W19987  16.502   3.618  23.111 -0.1542 -0.0008  0.0696
15588W        W19988  17.933   7.048  22.639  0.1106 -0.0840  0.0266
15589W        W19989  27.951   5.762  21.466 -0.0363  0.1153  0.1527
15590W        W19990  24.869   0.881   4.271 -0.1955  0.1231 -0.0030
15591W        W19991  22.724   7.051  20.252  0.2486  0.0363  0.1840
15592W        W19992   1.959   0.400   9.756 -0.3060  0.0806 -0.1373
15593W        W19993   9.174   0.926   4.370  0.0586 -0.1191  0.5974
15594W        W19994  30.329   0.533  10.376 -0.0158 -0.0202  0.2221
15595W        W19995  20.045   7.265   6.683  0.1546 -0.4300 -0.0142
15596W        W19996  24.230   0.410   9.181  0.1031  0.3117  0.1946
15597W        W19997  21.225   5.125   6.499 -0.3405 -0.3057 -0.0206
15598W        W19998   9.055   3.331  22.855  0.1262 -0.1100  0.2968
15599W        W19999   8.924   5.175  20.171 -0.1487  0.2105 -0.1878
15600W        W20000   5.430   4.831   3.229 -0.1280  0.4565  0.2075
15601W        W20001  12.515   4.072   0.818  0.0662  0.0426  0.0287
15602W        W20002  19.312   1.151   4.949 -0.0139 -0.1889 -0.1405
15603W        W20003  26.719   0.633  16.273 -0.0467 -0.0200 -0.0148
15604W        W20004   6.470   7.543  22.188 -0.1367  0.0055 -0.1218
15605W        W20005  31.282   1.602  15.807  0.1845 -0.0197  0.1427
15606W        W20006   7.010   1.201   4.760  0.0419  0.2685 -0.0199
15607W        W20007  16.003   6.178   3.346  0.0380  0.0942  0.1642
15608W        W20008   2.536   5.945   0.742 -0.1663  0.3008 -0.0306
15609W        W20009  13.263   0.459  20.200  0.1875 -0.0810 -0.0485
15610W        W20010   0.974   7.472  23.798 -0.2170 -0.0238 -0.2165
15611W        W20011  26.694   7.829  18.860 -0.3665 -0.2910  0.1372
15612W        W20012  26.285   1.521  15.081 -0.0970  0.0060 -0.0022
15613W        W20013  27.105   2.678  23.637  0.4880  0.3180  0.0046
15614W        W20014  31.322   1.801   2.204 -0.2727  0.1857  0.4332
15615W        W20015  18.142   7.561  19.217  0.1100  0.3650 -0.0689
15616W        W20016   3.498   0.501   6.894 -0.0347  0.1874 -0.2058
15617W        W20017   3.729   7.783   7.332  0.3549 -0.0660 -0.1209
15618W        W20018  21.452   5.393  19.853 -0.1361 -0.2377 -0.1242
15619W        W20019  14.194   7.228   2.495 -0.1801 -0.1076 -0.0093
15620W        W20020   9.855   1.473  22.377 -0.2494 -0.2137 -0.0069
15621W        W20021  15.703   0.826  20.852  0.1050  0.1203 -0.0220
15622W        W20022  21.380   5.715  17.711  0.0294 -0.0909 -0.0259
15623W        W20023  17.898   5.688  10.806  0.1845 -0.3387  0.0247
15624W        W20024  29.864   4.355   6.481  0.0828 -0.4028 -0.2493
15625W        W20025   5.134   7.589  22.629 -0.1716 -0.1490 -0.0210
15626W        W20026  10.291   1.400   1.741 -0.0343  0.0049  0.1379
15627W        W20027  28.682   3.494   3.788 -0.0316 -0.0545  0.0626
15628W        W20028  19.296   6.019  22.688  0.6040  0.0158  0.4964
15629W        W20029  15.998   5.725  17.630 -0.1748 -0.0363 -0.0083
15630W        W20030   8.754   2.838  16.020 -0.0549 -0.0500 -0.1398
15631W        W20031  29.453   5.524   9.922 -0.1377  0.0023  0.1132
15632W        W20032  30.664   0.112   4.751  0.1413  0.2819  0.1020
15633W        W20033   2.897   5.190  17.674 -0.1105 -0.1520 -0.1854
15634W        W20034  17.399   5.768  11.325 -0.0363 -0.2012 -0.2426
15635W        W20035  14.751   2.883  17.707 -0.2139 -0.1194 -0.0320
15636W        W20036   2.877   7.061   8.605  0.0978  0.0900  0.2895
15637W        W20037  21.965   3.770  16.087 -0.0015  0.1844  0.0987
15638W        W20038   7.394   5.007   4.377 -0.2092  0.3156  0.2916
15639W        W20039   5.217   6.771   1.942  0.3331 -0.1964 -0.1345
15640W        W20040  25.972   0.563   8.068  0.0334 -0.2139  0.0515
15641W        W20041   0.032   3.283  24.653 -0.1251  0.0313 -0.0254
15642W        W20042   6.615   3.580   5.918 -0.1865  0.1461 -0.0643
15643W        W20043  13.376   6.535  10.408 -0.0567 -0.1231 -0.0225
15644W        W20044  26.660   2.343  22.213 -0.1070 -0.0287  0.0616
15645W        W20045  23.284   5.618  25.178  0.0836 -0.0382  0.0198
15646W        W20046  27.039   6.225  20.327  0.0106  0.1193  0.0701
15647W        W20047  18.842   3.826  21.678  0.2275  0.0159  0.1854
15648W        W20048   5.737   1.440   7.700 -0.1506  0.1816 -0.1090
15649W        W20049  14.014   2.915  19.610 -0.2267 -0.0023 -0.1401
15650W        W20050  24.002   1.644  17.665 -0.0703  0.0755  0.0606
15651W        W20051   9.207   1.925  11.152 -0.0404 -0.1147 -0.0645
15652W        W20052   0.886   2.768   6.086 -0.2556  0.1714 -0.0136
15653W        W20053  16.468   5.207  10.606  0.1002  0.1815 -0.2533
15654W        W20054  22.791   1.935   4.425  0.0692  0.0729  0.1642
15655W        W20055  23.224   0.634  17.877  0.0381  0.2688  0.0602
15656W        W20056  11.125   3.450   5.495 -0.0943  0.0204 -0.0150
15657W        W20057  25.906   4.441  16.897  0.1088  0.1515 -0.3181
15658W        W20058  11.556   7.035   1.235 -0.3270 -0.1849  0.3561
15659W        W20059   6.266   7.165  18.983 -0.0178 -0.2653  0.0538
15660W        W20060   7.504   4.896   7.981 -0.0321 -0.1539 -0.0907
15661W        W20061   8.235   1.128  22.845 -0.3090 -0.2198  0.1963
15662W        W20062  11.936   6.310   8.417  0.0503 -0.0405  0.2604
15663W        W20063   4.950   4.029  20.119  0.0488  0.1910  0.1071
15664W        W20064  19.530   6.783   5.994  0.1097 -0.1206  0.0921
15665W        W20065  28.647   0.052  21.610 -0.0361  0.0932  0.1624
15666W        W20066  15.898   3.234  15.096  0.3166 -0.0164 -0.0621
15667W        W20067  14.103   3.746  23.420  0.1656  0.1324 -0.0387
15668W        W20068  14.561   2.523   8.316  0.1106  0.1925 -0.0452
15669W        W20069  11.301   0.559   6.977 -0.2922 -0.1925  0.2920
15670W        W20070  20.417   3.550   3.763  0.0008 -0.1170  0.2350
15671W        W20071   0.787   5.923  19.320  0.4325  0.1045 -0.2899
15672W        W20072  11.536   5.389   5.753  0.0831  0.3412  0.0903
15673W        W20073  29.617   4.056   1.622  0.0361 -0.3707 -0.0621
15674W        W20074  29.433   7.047  17.841  0.1458 -0.2016  0.0632
15675W        W20075  22.004   0.609  20.298  0.0097 -0.2011 -0.0160
15676W        W20076  29.100   0.118  25.397 -0.0796  0.0324  0.4477
15677W        W20077  16.593   5.056  20.299 -0.0040 -0.1534 -0.0261
15678W        W20078  12.895   5.696   5.018 -0.0569  0.1547 -0.2206
15679W        W20079  31.340   4.704   6.427 -0.0781  0.1774 -0.1457
15680W        W20080   7.058   7.409   4.724 -0.2198  0.0213 -0.0551
15681W        W20081  11.787   7.783  15.894 -0.1098 -0.4070  0.0166
15682W        W20082   1.269   6.615  17.654  0.1305  0.3046  0.2158
15683W        W20083  21.023   5.038   5.616  0.0793  0.0877  0.0481
15684W        W20084  22.772   5.076  20.756 -0.1026  0.0274 -0.1382
15685W        W20085  28.276   2.994  17.879  0.0082 -0.3280 -0.2087
15686W        W20086   4.445   3.398  10.305 -0.1719 -0.0867  0.0673
15687W        W20087   2.444   0.337  18.093 -0.1214  0.1168  0.1799
15688W        W20088  20.890   0.185   3.403 -0.0198 -0.2905 -0.1491
15689W        W20089  14.343   5.851   4.003  0.2123 -0.0962  0.0273
15690W        W20090  28.223   6.839   5.828  0.0381  0.2751  0.3017
15691W        W20091  20.942   4.709  18.197  0.0468  0.1062 -0.0642
15692W        W20092  18.391   6.653  10.823  0.0876  0.1137  0.3190
15693W        W20093  26.968   0.484   3.126 -0.2305 -0.2879 -0.2087
15694W        W20094  13.387   0.187  21.378 -0.2252  0.0382  0.0137
15695W        W20095  23.361   2.396  22.862 -0.1146  0.3623  0.0368
15696W        W20096   4.170   3.638  14.314 -0.0603  0.0925  0.2690
15697W        W20097  18.060   4.501  20.875  0.1054  0.1247  0.0370
15698W        W20098  26.589   0.779  17.055 -0.2099  0.1086  0.1708
15699W        W20099  14.583   6.153  25.714 -0.3638  0.0148  0.2608
15700W        W20100  26.232   1.202   6.067  0.4344  0.1856  0.0901
15701W        W20101  23.336   4.358  17.678 -0.1584 -0.3034  0.0161
15702W        W20102   8.696   1.982  11.040  0.1008 -0.0646 -0.3020
15703W        W20103  12.654   2.575  16.596 -0.2767  0.0024  0.1990
15704W        W20104  15.637   7.516  24.625 -0.2434 -0.0223  0.1294
15705W        W20105   8.120   1.467  19.588  0.0178  0.0226  0.0500
15706W        W20106   3.949   1.804   5.579  0.2636 -0.0539 -0.3321
15707W        W20107  27.035   2.300  18.216 -0.1771 -0.2877 -0.3715
15708W        W20108  26.109   0.496  10.212 -0.2044 -0.2986  0.1569
15709W        W20109  21.791   2.559   0.096  0.1072  0.1372  0.3831
15710W        W20110  13.021   4.159  25.194  0.0753 -0.1739 -0.3291
15711W        W20111   5.323   4.871   8.374 -0.2819  0.0444  0.1832
15712W        W20112   6.314   6.056   5.712 -0.3778  0.0341  0.2322
15713W        W20113  13.422   6.674   2.252 -0.0595  0.4043 -0.1578
15714W        W20114   5.792   1.698   9.397  0.0344 -0.0962  0.1755
15715W        W20115  26.854   3.510  17.597 -0.3008  0.0339 -0.3043
15716W        W20116   3.974   3.775  15.320  0.0377  0.1220 -0.2212
15717W        W20117   1.534   1.213  19.915 -0.2321 -0.0038  0.2159
15718W        W20118  13.419   6.435   3.702  0.1344  0.1252  0.1089
15719W        W20119  13.280   4.362  10.571  0.0615  0.0505 -0.1924
15720W        W20120  29.485   2.228  20.691  0.0064 -0.1096  0.2316
15721W        W20121   1.519   2.339  23.104  0.0510  0.0303  0.2669
15722W        W20122  10.125   5.385  18.081 -0.1612  0.3768  0.1461
15723W        W20123  20.259   6.226  22.285  0.0566 -0.0089  0.2226
15724W        W20124  16.417   6.254  16.236  0.0974  0.0709 -0.0035
15725W        W20125  11.380   5.268  10.424 -0.1167 -0.1606 -0.1844
15726W        W20126   1.029   7.713   7.052  0.0577 -0.2735  0.1995
15727W        W20127   9.778   7.713  25.020  0.2300 -0.1093  0.0323
15728W        W20128  15.292   7.813   4.490 -0.1713  0.1852 -0.0399
15729W        W20129   7.805   3.106  19.856 -0.0475  0.1466 -0.0268
15730W        W20130   3.591   3.082  17.959  0.3313 -0.0989 -0.1738
15731W        W20131   7.753   3.122   0.041  0.1869 -0.2103  0.0281
15732W        W20132   7.013   6.015  23.013  0.3215  0.2255 -0.3384
15733W        W20133   1.007   1.422  19.220  0.0762  0.5786 -0.0121
15734W        W20134  30.179   5.872   0.809  0.1939 -0.1866  0.0136
15735W        W20135  19.541   1.191   7.045 -0.1002 -0.0815 -0.0917
15736W        W20136  11.901   3.295  24.196  0.4520  0.0571  0.0373
15737W        W20137  29.435   7.487  24.758 -0.2810  0.1733 -0.0849
15738W        W20138   0.683   3.751   3.050 -0.3008  0.1439  0.0054
15739W        W20139  23.816   6.739  11.474  0.0976 -0.1565  0.0710
15740W        W20140   5.910   7.343   1.014  0.1623  0.3172  0.0043
15741W        W20141   4.111   5.351  16.051  0.1101 -0.3520  0.0175
15742W        W20142   3.553   5.128  19.862 -0.2771 -0.0503 -0.0591
15743W        W20143  24.767   5.433   1.851 -0.1044  0.0738  0.0605
15744W        W20144  26.175   4.903  16.944 -0.0216  0.1893  0.1290
15745W        W20145  23.502   2.858  25.397  0.0292  0.0786 -0.2693
15746W        W20146   1.670   5.020  24.450  0.0507  0.0326  0.0635
15747W        W20147  11.121   0.759  22.579  0.2032  0.2139 -0.0361
15748W        W20148  15.858   1.850  20.087  0.0680  0.0908 -0.0642
15749W        W20149  10.941   0.928  21.430  0.0723 -0.1497  0.1271
15750W        W20150   3.101   0.139  22.025  0.2944  0.0133  0.0241
15751W        W20151  24.245   2.529   1.534 -0.3382  0.1591  0.0164
15752W        W20152  28.767   0.385  17.789  0.1856 -0.1708 -0.2549
15753W        W20153  24.682   3.028  19.026  0.0908  0.2295 -0.2281
15754W        W20154  21.107   2.281  19.944 -0.0280 -0.2651  0.0278
15755W        W20155  28.068   1.291   9.143  0.2813 -0.0915 -0.2773
15756W        W20156  28.385   5.770   6.192 -0.0122  0.0591  0.1448
15757W        W20157   3.617   1.959  19.496 -0.3404  0.1119  0.1218
15758W        W20158  21.989   6.691  17.286 -0.1847  0.4526  0.1651
15759W        W20159  11.482   0.654  24.950  0.0198  0.0005  0.1879
15760W        W20160  15.353   5.242   2.902  0.0483  0.1588 -0.2386
15761W        W20161   1.840   0.443   0.088 -0.2197 -0.0836  0.0315
15762W        W20162  21.555   2.983   7.284  0.1639  0.1986  0.1641
15763W        W20163  14.385   2.068   2.107 -0.1631 -0.0770  0.2730
15764W        W20164  27.809   7.120   1.018  0.2531 -0.0563 -0.0005
15765W        W20165  18.509   2.217  20.450 -0.0876 -0.4024  0.0844
15766W        W20166   9.144   5.293  22.440 -0.2711  0.3651  0.0821
15767W        W20167  31.370   5.323   3.747  0.2519 -0.1143  0.1006
15768W        W20168   4.729   1.371   3.397  0.0133  0.1360 -0.1102
15769W        W20169  25.222   4.735  16.437 -0.1099  0.0270  0.0917
15770W        W20170  28.402   5.425   8.896  0.4157 -0.1665 -0.1339
15771W        W20171  22.442   2.442   2.502  0.2328 -0.1291 -0.1192
15772W        W20172   1.903   3.747   2.795  0.2468  0.5588  0.1125
15773W        W20173  25.817   0.225  19.708 -0.1117 -0.2083 -0.1092
15774W        W20174   3.653   3.552  16.030 -0.1206 -0.0782  0.0208
15775W        W20175   8.465   6.043  17.876  0.1374  0.2068 -0.0590
15776W        W20176  19.419   6.709   2.470  0.4789  0.0141 -0.0398
15777W        W20177   5.989   7.516   8.891  0.2130 -0.3513 -0.1694
15778W        W20178  19.577   6.639  10.825  0.3721 -0.1021  0.0803
15779W        W20179  27.482   1.503  18.313  0.0897  0.2213  0.1399
15780W        W20180   1.159   0.386   3.335  0.0251 -0.0857 -0.0827
15781W        W20181   0.330   7.238  18.438 -0.1082  0.0711  0.0372
15782W        W20182   6.536   5.684   4.887 -0.1132  0.1554 -0.3137
15783W        W20183   9.321   2.839  22.472 -0.0705 -0.4030 -0.1174
15784W        W20184   8.569   5.532   1.436  0.2029 -0.0519  0.0583
15785W        W20185  10.552   0.619   8.212 -0.2002  0.1472 -0.1045
15786W        W20186   9.348   7.814  17.332  0.0205  0.0753  0.2096
15787W        W20187  13.978   0.025  18.229 -0.2239  0.0254 -0.0594
15788W        W20188   2.565   0.528   7.970 -0.0324  0.0993 -0.4797
15789W        W20189   6.735   1.464   7.118  0.0805  0.1197 -0.4767
15790W        W20190   3.337   2.494   6.764 -0.2486  0.3213 -0.2101
15791W        W20191   1.676   3.820  22.170  0.1748  0.0433 -0.2357
15792W        W20192  14.664   5.713  16.175  0.2087 -0.0645  0.1227
15793W        W20193  12.279   2.575  22.604 -0.1029  0.1116 -0.0479
15794W        W20194  17.000   3.000   3.719  0.0839 -0.2188  0.1415
15795W        W20195  17.890   1.049  18.191 -0.3497  0.1442 -0.0477
15796W        W20196   2.931   4.374   3.145 -0.1450  0.2080  0.2511
15797W        W20197  30.897   5.382  17.750  0.0284  0.0730 -0.0016
15798W        W20198  16.185   5.173   8.331  0.2278 -0.2083  0.0357
15799W        W20199  14.627   1.061   0.731 -0.5313 -0.1138  0.1012
15800W        W20200  25.953   3.402   8.185 -0.2089 -0.1244  0.1862
15801W        W20201  28.767   3.709  21.574 -0.0543  0.5088  0.2024
15802W        W20202  29.540   1.846  23.936 -0.1155  0.1645 -0.0549
15803W        W20203   8.798   5.316  10.910  0.1552  0.1127  0.1448
15804W        W20204  17.592   1.762   6.968 -0.2307  0.0413 -0.0758
15805W        W20205   8.922   1.064  19.000  0.0889 -0.0036  0.3818
15806W        W20206  21.230   1.258  19.974 -0.4181 -0.0381  0.0913
15807W        W20207   5.109   4.030  21.631 -0.0678 -0.1349  0.1745
15808W        W20208  20.387   4.378   7.396 -0.1185 -0.1501 -0.1313
15809W        W20209  22.320   1.917  21.531 -0.0613  0.0781 -0.2179
15810W        W20210   1.188   0.626  22.978 -0.1218 -0.0835  0.0561
15811W        W20211   1.400   5.088  17.822 -0.0780  0.3183  0.1740
15812W        W20212  30.057   3.583   0.405 -0.0109  0.2390 -0.3784
15813W        W20213   3.538   2.895  22.752  0.1810  0.0775 -0.1466
15814W        W20214   5.541   6.496   4.231  0.0677 -0.0265 -0.1958
15815W        W20215  30.424   4.079   4.499 -0.0218  0.1200  0.2087
15816W        W20216  21.779   5.424  20.443  0.2035 -0.2995  0.1719
15817W        W20217  26.958   7.134  22.093 -0.1182  0.0046  0.0382
15818W        W20218   7.575   5.233  23.128  0.1739  0.0396  0.1344
15819W        W20219  20.563   1.895   6.831  0.0390  0.0547 -0.2396
15820W        W20220   4.824   1.388   8.238 -0.0566  0.1816 -0.0267
15821W        W20221   1.432   6.414  18.058  0.1071 -0.4345  0.1369
15822W        W20222  17.686   7.695   2.217  0.0548 -0.0835 -0.0882
15823W        W20223   1.816   0.308   1.744 -0.0160  0.0497  0.0908
15824W        W20224  20.255   1.551  17.044 -0.2292  0.1845  0.1210
15825W        W20225  22.434   0.736   5.053 -0.2147  0.1223 -0.1795
15826W        W20226   1.826   4.331  25.045  0.0650 -0.4816  0.1284
15827W        W20227  23.742   5.051  20.448  0.2004 -0.0041  0.0052
15828W        W20228   4.355   2.707  24.957  0.2395  0.2553 -0.1096
15829W        W20229  15.953   4.097   4.694 -0.0011 -0.1537  0.0944
15830W        W20230  11.602   5.543   8.374 -0.0966 -0.1338  0.2492
15831W        W20231  15.129   2.970  16.413  0.1008 -0.0689 -0.0495
15832W        W20232   2.110   6.598  23.258 -0.3602 -0.1592 -0.0725
15833W        W20233   5.158   0.787  16.950 -0.2684 -0.0158  0.3303
15834W        W20234  16.838   7.345   2.567  0.1807 -0.0811 -0.1645
15835W        W20235   2.368   2.803  14.737 -0.2028 -0.1305  0.2210
15836W        W20236  14.036   4.712  20.621 -0.1317 -0.0956 -0.0125
15837W        W20237  16.527   1.452  17.737  0.4843 -0.1272 -0.1013
15838W        W20238  25.393   1.167   4.162 -0.0002  0.1661  0.2037
15839W        W20239  26.576   4.688   6.821  0.0814  0.2497 -0.0662
15840W        W20240   3.545   0.624  22.938  0.1546  0.1745  0.0777
15841W        W20241  21.413   7.269   8.647  0.0078  0.1871 -0.4110
15842W        W20242  21.820   0.170  20.440 -0.1222 -0.0224 -0.0178
15843W        W20243   4.215   5.209  14.979  0.1936  0.2744 -0.2275
15844W        W20244   2.793   4.405   0.626  0.0013 -0.3535  0.1704
15845W        W20245   3.913   1.311  20.313 -0.0489  0.3072  0.1534
15846W        W20246  17.629   2.531  15.733  0.0789 -0.0862 -0.1581
15847W        W20247  14.750   6.744   4.276  0.0113  0.0260  0.0682
15848W        W20248  10.234   6.912   4.336  0.0871 -0.0452 -0.2259
15849W        W20249  17.744   7.287  11.792 -0.0752  0.0784  0.2312
15850W        W20250  29.080   1.829   6.250 -0.2833 -0.0892 -0.2894
15851W        W20251  11.410   4.968  20.683  0.0319 -0.0851  0.1527
15852W        W20252   4.272   1.446  10.723  0.1586 -0.1584  0.2002
15853W        W20253   5.608   7.375  22.690  0.1496  0.3644 -0.1845
15854W        W20254  17.239   7.538   3.408 -0.1573 -0.1875  0.2069
15855W        W20255   3.965   2.825   9.382  0.2592 -0.4200  0.3002
15856W        W20256  18.623   5.906  10.315  0.0263  0.1002  0.2688
15857W        W20257   0.692   3.624   0.791 -0.1758 -0.0558  0.2742
15858W        W20258   0.680   1.352   8.021  0.0908 -0.0528 -0.1088
15859W        W20259  17.436   0.406   6.512 -0.1606 -0.1005  0.0047
15860W        W20260   6.099   7.437   9.377 -0.1691  0.0749 -0.2282
15861W        W20261   1.043   7.813   1.097 -0.0369  0.2940 -0.0401
15862W        W20262  29.697   7.517   1.153  0.2261 -0.2166  0.0323
15863W        W20263  16.850   0.881  24.766  0.1241  0.1611 -0.1047
15864W        W20264  20.130   0.820   0.322  0.1813 -0.1764  0.1527
15865W        W20265  20.744   0.252  18.069 -0.1897  0.1893  0.1219
15866W        W20266   9.560   2.391  25.949  0.0154  0.1840  0.1511
15867W        W20267  16.363   4.452  21.438  0.3817 -0.0550 -0.2763
15868W        W20268  17.158   2.364  24.024 -0.0038 -0.3645 -0.2132
15869W        W20269   1.541   6.624  10.276  0.0144 -0.2766  0.0185
15870W        W20270  29.545   0.631   7.344 -0.0059  0.0411  0.4180
15871W        W20271  12.572   6.367  10.823 -0.1354 -0.0835  0.0051
15872W        W20272   4.313   2.642  23.128  0.3135  0.2023 -0.0597
15873W        W20273  26.119   0.593  20.861 -0.0373  0.3638 -0.3032
15874W        W20274   9.190   3.245  18.643  0.2399  0.0596 -0.2325
15875W        W20275  28.042   0.248  18.203  0.2025  0.3628 -0.1070
15876W        W20276  12.504   2.918   8.027  0.0559 -0.0339  0.1261
15877W        W20277   2.426   1.255   8.703 -0.2132  0.1487  0.0099
15878W        W20278  30.291   6.903  16.088 -0.1869 -0.0163  0.3634
15879W        W20279  20.676   7.688  24.198 -0.1654 -0.0355 -0.2687
15880W        W20280   4.447   2.811  25.849 -0.0114 -0.3406  0.0893
15881W        W20281  13.588   4.249   1.217 -0.0295  0.1945 -0.2277
15882W        W20282  16.817   6.955   0.446 -0.0253  0.0001  0.3074
15883W        W20283  24.230   3.335  17.555 -0.2584 -0.1418  0.1304
15884W        W20284  26.176   1.286  15.757  0.2429 -0.1402 -0.2585
15885W        W20285   4.339   3.017  24.550 -0.2387 -0.3388 -0.1680
15886W        W20286  25.016   4.624   7.573 -0.1074 -0.1635  0.0739
15887W        W20287   8.165   1.591   3.800  0.3328  0.0061  0.0946
15888W        W20288  10.337   3.583  10.848 -0.0026 -0.2254 -0.0002
15889W        W20289  21.483   4.565   9.447  0.0857  0.0516  0.2508
15890W        W20290  27.688   6.769  22.398 -0.3094 -0.1374 -0.0415
15891W        W20291  23.226   1.549  16.097  0.0556  0.1921 -0.0705
15892W        W20292  30.061   7.237  25.825  0.0730 -0.1588 -0.3734
15893W        W20293  18.557   5.712  20.220 -0.1002 -0.1257 -0.0955
15894W        W20294   3.200   4.731  24.850  0.0695  0.0749 -0.1505
15895W        W20295  11.429   3.124  11.069 -0.0840  0.2501  0.1750
15896W        W20296  23.005   5.406  25.748  0.1484 -0.1695  0.0559
15897W        W20297   2.704   1.067   9.979  0.2146  0.0511 -0.1008
15898W        W20298   5.927   0.958   6.339 -0.0184  0.0027  0.0995
15899W        W20299  13.628   2.024  11.242  0.2595  0.0948 -0.1566
15900W        W20300  20.567   0.180  16.776  0.1981 -0.0923 -0.0394
15901W        W20301   0.943   0.464  17.611  0.1916  0.0698 -0.3776
15902W        W20302   5.261   5.171  22.287  0.0197 -0.0642  0.1465
15903W        W20303   4.420   5.192  22.322  0.1472 -0.0265 -0.1285
15904W        W20304   6.518   6.692  10.028  0.1918  0.1308  0.1314
15905W        W20305  16.125   5.264  21.862  0.1912  0.1187 -0.2414
15906W        W20306   1.095   7.284  17.758  0.0919  0.0308  0.0837
15907W        W20307  27.806   5.967  16.917 -0.1977 -0.2747 -0.0525
15908W        W20308  27.452   3.153  15.155  0.1097  0.1306 -0.0388
15909W        W20309  13.047   4.891  24.433  0.1275 -0.1329 -0.1927
15910W        W20310  29.052   1.500  18.027 -0.0331 -0.1932 -0.1251
15911W        W20311  27.784   3.799  15.899 -0.0786  0.0954  0.0472
15912W        W20312   6.088   7.677   0.614  0.2567 -0.1193  0.2697
15913W        W20313   0.290   0.477  16.988  0.2780 -0.3767 -0.1968
15914W        W20314  14.726   6.838   8.782  0.0035  0.1583  0.0274
15915W        W20315  23.940   0.539  17.716  0.0120 -0.2401  0.0177
15916W        W20316   6.226   0.854   9.098  0.0355 -0.0888 -0.2092
15917W        W20317  30.811   0.943   2.081 -0.0545  0.1247  0.1251
15918W        W20318  14.935   7.552   6.125  0.2237 -0.2243 -0.0741
15919W        W20319   6.351   3.934  16.099 -0.0662 -0.3225 -0.1623
15920W        W20320   5.913   6.734  19.019 -0.0223  0.2363  0.1079
15921W        W20321   6.015   2.551   7.423 -0.1258 -0.0678  0.1783
15922W        W20322  17.880   7.798   5.650  0.4708 -0.4766  0.1243
15923W        W20323   5.530   1.211   9.466 -0.1078 -0.2425  0.1330
15924W        W20324   9.710   6.704   9.533 -0.1687  0.1073  0.0897
15925W        W20325   7.391   6.981   1.359  0.0845  0.1105  0.0840
15926W        W20326  20.011   7.115  17.464  0.0097  0.3993 -0.0825
15927W        W20327  16.280   3.775   9.942 -0.2085  0.0303  0.0109
15928W        W20328  20.893   4.149  20.191  0.2286  0.0310 -0.1155
15929W        W20329  16.718   1.671  20.009  0.1613  0.2721  0.0200
15930W        W20330  16.058   5.870  22.986 -0.1087 -0.3147 -0.0467
15931W        W20331  10.569   3.832  20.879 -0.1795  0.1679 -0.3300
15932W        W20332  21.715   2.300   1.713  0.1581  0.0971  0.0713
15933W        W20333   8.497   2.158  10.033  0.2449 -0.0657 -0.1005
15934W        W20334  21.910   0.914  18.472 -0.0760  0.3604  0.1265
15935W        W20335  17.262   0.026  16.743  0.2011 -0.2030 -0.2408
15936W        W20336  19.626   2.481  22.806  0.1907  0.1966  0.0008
15937W        W20337  15.347   3.375   1.027  0.3311  0.0980  0.1279
15938W        W20338  24.604   6.507  15.359 -0.3181 -0.1388 -0.4653
15939W        W20339  13.787   7.253  15.996  0.0914 -0.3817 -0.3880
15940W        W20340  27.309   6.741  22.097  0.1205  0.2178 -0.1976
15941W        W20341  14.783   3.609  20.544 -0.0670 -0.2774 -0.1178
15942W        W20342  13.153   5.330   4.201  0.0512  0.3082  0.2577
15943W        W20343   9.228   5.174  11.154  0.2927 -0.0429 -0.1828
15944W        W20344  27.193   4.262  24.152  0.0523  0.0781  0.4554
15945W        W20345  17.201   6.795  14.854 -0.0370 -0.0179  0.2500
15946W        W20346   9.154   2.606  21.090  0.0225  0.1893 -0.2905
15947W        W20347  13.967   5.246  23.930 -0.4254  0.0786  0.2496
15948W        W20348   2.970   6.115   1.572 -0.0023  0.3131  0.0139
15949W        W20349   5.284   6.183   2.619  0.0733 -0.0746  0.1596
15950W        W20350   3.962   7.292   1.594  0.2741 -0.2690 -0.3236
15951W        W20351   3.937   1.060  23.800  0.0428  0.1994  0.1143
15952W        W20352  19.330   3.358   0.461  0.3831  0.1500  0.2445
15953W        W20353   7.835   0.881   5.600 -0.0085 -0.0361 -0.1385
15954W        W20354  17.566   2.731  25.684 -0.1969  0.5334 -0.1822
15955W        W20355  23.443   7.230   7.298  0.0179  0.0609 -0.1307
15956W        W20356  14.287   6.307  25.321  0.1623 -0.0219 -0.0915
15957W        W20357   0.103   2.126   4.606 -0.1963 -0.2233 -0.0577
15958W        W20358   6.120   3.605  15.687  0.0622 -0.1470  0.1948
15959W        W20359  27.556   5.283   6.034  0.3549 -0.2791 -0.1320
15960W        W20360   3.398   3.439   6.408  0.1454  0.2344  0.0645
15961W        W20361   6.292   5.559   8.148 -0.1379  0.1338  0.0239
15962W        W20362   6.439   6.572   8.342  0.0947  0.0620  0.1119
15963W        W20363   9.496   3.287   0.705  0.0493  0.1930 -0.1066
15964W        W20364   8.115   7.856  22.352 -0.0329 -0.3190  0.0568
15965W        W20365   0.197   3.645   1.117 -0.0549  0.1418  0.0506
15966W        W20366  26.413   4.024  18.814  0.0418  0.1994 -0.0224
15967W        W20367  14.201   6.296  20.873 -0.1122  0.0831  0.1515
15968W        W20368   7.110   6.932   1.771  0.4281  0.2488  0.1789
15969W        W20369   5.735   2.113  18.281  0.4968 -0.1898 -0.1823
15970W        W20370  18.642   2.057  10.432  0.0120  0.2675  0.1307
15971W        W20371  15.203   6.045  21.807  0.0719  0.2642 -0.0970
15972W        W20372  18.998   2.726  15.827  0.0357 -0.1458 -0.1086
15973W        W20373   2.350   3.591  22.981  0.2395 -0.3020 -0.1977
15974W        W20374   8.129   4.763  10.350  0.0899 -0.0912  0.4147
15975W        W20375  18.431   0.368  22.272 -0.4354 -0.2700 -0.1489
15976W        W20376  16.418   4.944  16.974  0.1834  0.0447 -0.0341
15977W        W20377   3.554   1.032   3.905  0.2262 -0.1323  0.0340
15978W        W20378   8.566   7.083   4.007 -0.2832 -0.2098  0.2742
15979W        W20379  23.351   7.117   1.763 -0.1310  0.2095 -0.2083
15980W        W20380  11.160   2.576  17.736  0.3808  0.0028  0.1679
15981W        W20381  19.029   3.866  18.490  0.1468  0.0050 -0.3192
15982W        W20382   0.054   4.480  18.427 -0.0498 -0.0062  0.0461
15983W        W20383   6.180   7.021   9.096  0.0987  0.1175  0.2074
15984W        W20384  16.051   3.798   0.636 -0.1412 -0.0666 -0.2832
15985W        W20385   4.718   1.615   2.143  0.1007  0.2340 -0.4787
15986W        W20386  12.215   5.746   2.426 -0.1094  0.1331 -0.0559
15987W        W20387  11.128   4.553   4.202  0.0262 -0.0941 -0.0659
15988W        W20388  28.872   4.579   6.142 -0.0874 -0.2569  0.0987
15989W        W20389  15.509   0.044  19.208 -0.2474  0.1178  0.1605
15990W        W20390   6.711   1.823   9.273 -0.1528 -0.0633  0.0874
15991W        W20391   8.125   7.085  24.280 -0.0788  0.1319 -0.0165
15992W        W20392  17.958   4.548  23.788 -0.1456  0.0900  0.0528
15993W        W20393  19.370   7.656  23.241 -0.0849  0.4489 -0.1545
15994W        W20394  25.459   0.804   0.944 -0.2334  0.0865  0.1747
15995W        W20395   6.080   0.104   2.191 -0.2937  0.0444  0.3964
15996W        W20396   9.927   3.859  22.459  0.1835  0.2498  0.2643
15997W        W20397   4.013   1.495  10.252 -0.3333  0.3725 -0.1983
15998W        W20398  23.440   1.170  10.258 -0.1502  0.0262 -0.0576
15999W        W20399  30.551   3.809  21.749 -0.0413  0.2243  0.2514
16000W        W20400  28.381   4.559   3.218  0.0823 -0.0849 -0.1262
16001W        W20401  22.967   4.393   2.236 -0.0197  0.0395 -0.1603
16002W        W20402  26.697   6.163   3.849 -0.0147  0.0592 -0.3186
16003W        W20403  19.134   2.633   6.807  0.2743  0.2355  0.0597
16004W        W20404  14.803   0.030   7.876 -0.0104 -0.1509 -0.1104
16005W        W20405  26.027   5.878  20.539 -0.2595 -0.1265 -0.0942
16006W        W20406  13.961   4.534  19.266 -0.4221  0.0980  0.1944
16007W        W20407  28.494   3.314   2.365 -0.0453 -0.0370 -0.4650
16008W        W20408  23.461   2.567  19.017  0.0309 -0.1350 -0.0634
16009W        W20409  10.951   6.155   8.509  0.0284  0.0059  0.0879
16010W        W20410  16.700   6.600  19.922 -0.1949 -0.0240  0.2300
16011W        W20411  19.995   1.585   7.612  0.2740  0.0930 -0.2200
16012W        W20412   9.916   5.201   4.734  0.0324  0.0201  0.3375
16013W        W20413  10.992   6.209  25.815 -0.3647 -0.0448 -0.0664
16014W        W20414  15.952   3.063  19.279  0.0921  0.3601 -0.0243
16015W        W20415  25.742   0.501  24.867  0.1152 -0.1925  0.3003
16016W        W20416  27.671   1.283   4.660 -0.2280 -0.0816 -0.1350
16017W        W20417  11.968   5.110   5.920 -0.1840 -0.0708 -0.0567
16018W        W20418   8.809   7.243  25.132  0.4852  0.1887  0.4240
16019W        W20419   6.163   1.671  25.789  0.2188  0.1273 -0.1633
16020W        W20420  18.883   6.417   5.638 -0.1098 -0.4930 -0.1516
16021W        W20421  12.206   5.804   7.355 -0.0568  0.1787 -0.3764
16022W        W20422   0.807   5.890   6.563 -0.0864 -0.0504 -0.0616
16023W        W20423  30.318   1.216  20.878 -0.2015  0.0899  0.0158
16024W        W20424  27.203   2.492   3.244 -0.0843 -0.0773 -0.0452
16025W        W20425   6.236   0.249   6.846 -0.0953 -0.1177  0.1274
16026W        W20426  28.172   7.206   9.728 -0.1054 -0.1326  0.1213
16027W        W20427  20.636   5.309  16.032  0.4765 -0.1094  0.1869
16028W        W20428  20.166   5.673  10.051  0.0234  0.1947  0.0477
16029W        W20429  10.812   0.441  22.925  0.2733  0.2106  0.2086
16030W        W20430   0.554   7.705  18.507 -0.2287  0.0143 -0.0459
16031W        W20431  21.162   2.796  21.718 -0.1738 -0.1160  0.0764
16032W        W20432  23.757   2.347  19.850 -0.1555  0.1434  0.0995
16033W        W20433   0.713   1.505   2.610  0.1229  0.0273 -0.0368
16034W        W20434  25.677   1.882  21.102 -0.1564  0.2765 -0.2965
16035W        W20435  30.377   7.401  18.006 -0.0971  0.2411 -0.3229
16036W        W20436  17.974   0.506   8.283  0.3005 -0.1329 -0.4529
16037W        W20437  22.522   1.488  23.329  0.1136 -0.0307  0.4023
16038W        W20438  27.908   0.905   4.460 -0.3595  0.0702  0.1723
16039W        W20439  15.014   5.740   9.761  0.1343 -0.1647  0.1958
16040W        W20440  22.824   3.570  20.902  0.1298 -0.2425  0.0217
16041W        W20441   9.144   0.205   5.519  0.1471  0.1126  0.0170
16042W        W20442  24.964   2.263  17.232 -0.3747 -0.0880 -0.1965
16043W        W20443  27.321   3.011   2.483 -0.2349 -0.2853 -0.1319
16044W        W20444  20.986   1.434   2.462 -0.1723  0.1492 -0.3660
16045W        W20445  10.876   5.085  18.334 -0.2474 -0.1211 -0.1507
16046W        W20446  12.963   3.845  24.364  0.4854 -0.0871 -0.0201
16047W        W20447   5.708   4.354  16.710 -0.1614  0.0689 -0.1420
16048W        W20448  16.244   1.921   2.350 -0.2400 -0.3840  0.0552
16049W        W20449   1.694   6.533   2.867 -0.1356  0.1054  0.1265
16050W        W20450  16.140   2.630  22.954  0.1286 -0.1421 -0.0887
16051W        W20451  21.297   0.642  19.502 -0.0310  0.0708  0.3037
16052W        W20452  17.004   7.799  18.421  0.0073 -0.1901  0.2380
16053W        W20453  23.010   3.086  17.270  0.0014  0.1528  0.2178
16054W        W20454   7.314   3.036  25.323  0.0165  0.0233  0.2375
16055W        W20455  11.609   4.573  23.659  0.3424 -0.2026 -0.1583
16056W        W20456  15.596   5.249   5.609  0.0169  0.2460 -0.1009
16057W        W20457  16.186   0.344   7.692  0.0542  0.0773  0.1901
16058W        W20458   3.733   6.034  24.390 -0.0635  0.0865 -0.0295
16059W        W20459  17.968   0.207  18.411  0.0351  0.0606 -0.0756
16060W        W20460   9.260   6.701  21.782  0.1316 -0.0344  0.3923
16061W        W20461   1.429   4.113   0.688  0.0047 -0.3985  0.0860
16062W        W20462  19.334   5.474  10.698 -0.1017  0.1760  0.1161
16063W        W20463  30.034   5.777   5.363  0.0281  0.1320  0.1306
16064W        W20464   1.206   6.823   5.637 -0.0351 -0.0660 -0.0738
16065W        W20465  24.498   7.289  17.350 -0.1202  0.0374 -0.1726
16066W        W20466  25.226   5.594  15.279  0.2904 -0.1824  0.0130
16067W        W20467  18.961   0.702   5.064  0.1594 -0.0171  0.1218
16068W        W20468   8.050   6.150   9.004  0.2804  0.0537  0.0557
16069W        W20469  13.597   6.991   7.815  0.1887 -0.4598 -0.0088
16070W        W20470   0.353   1.550   6.851 -0.1522 -0.1678  0.0362
16071W        W20471   0.991   5.962  23.623 -0.0462  0.0713 -0.2922
16072W        W20472  15.580   4.874  18.914  0.1008 -0.0280  0.2042
16073W        W20473  28.647   6.762   4.447 -0.0653 -0.0233 -0.0720
16074W        W20474  13.982   1.640   3.363 -0.1147 -0.0324  0.1286
16075W        W20475   8.297   6.825   9.212 -0.1522  0.0727  0.3838
16076W        W20476  22.906   1.620  19.303  0.1077 -0.4962 -0.1384
16077W        W20477  26.533   2.037  25.786  0.1854 -0.0453 -0.2497
16078W        W20478   3.568   3.516   5.367 -0.0702 -0.2583 -0.0640
16079W        W20479   6.442   3.223   5.510 -0.1772  0.1079  0.2866
16080W        W20480   0.501   1.157  14.446  0.4011 -0.0567  0.2995
16081W        W20481  28.024   4.500   8.677  0.2526  0.2427  0.0303
16082W        W20482  10.698   5.847   0.439  0.3924  0.1570  0.1129
16083W        W20483  11.819   7.528   7.723 -0.1479  0.2740  0.0911
16084W        W20484  27.755   3.572  21.560  0.0693  0.3551  0.0867
16085W        W20485   6.583   1.750   2.117  0.2451  0.2237 -0.1243
16086W        W20486  25.903   2.522  17.533 -0.3988 -0.2457 -0.0035
16087W        W20487  13.352   4.507  16.993 -0.1338 -0.1488 -0.2463
16088W        W20488  24.282   1.500  10.536  0.0372 -0.1298  0.0396
16089W        W20489  10.010   3.955   6.556 -0.1896  0.0426  0.0745
16090W        W20490  30.167   3.257   3.881 -0.3026 -0.0473 -0.4112
16091W        W20491  31.136   5.123   0.258  0.1290 -0.0221  0.0141
16092W        W20492  20.489   1.471   4.309  0.1171  0.4028 -0.1329
16093W        W20493  29.918   7.800   5.204  0.1661 -0.2200 -0.1296
16094W        W20494   0.653   5.801  15.328 -0.1172 -0.2579 -0.0149
16095W        W20495  19.928   3.682  22.271  0.1715 -0.1161 -0.3609
16096W        W20496  29.799   3.069   9.391 -0.0641  0.0593 -0.1565
16097W        W20497  10.167   4.833  23.812  0.1246  0.3639 -0.2193
16098W        W20498  11.433   4.896  23.158  0.1740 -0.1751 -0.1271
16099W        W20499  16.811   6.795   2.851  0.0011 -0.2588  0.1137
16100W        W20500  27.992   4.057  10.000 -0.0436  0.3394  0.0215
16101W        W20501  11.090   3.676  23.518 -0.0628 -0.3477 -0.1493
16102W        W20502  27.730   3.294   8.384  0.0150 -0.0874  0.1667
16103W        W20503   5.143   2.020  25.740 -0.0578 -0.0970  0.1320
16104W        W20504  22.531   5.785   5.952 -0.2545 -0.0924 -0.1438
16105W        W20505  19.967   2.524   7.764  0.0469 -0.0874 -0.1302
16106W        W20506   4.565   2.412   7.182  0.0963  0.1250  0.1566
16107W        W20507  18.502   2.665  19.085 -0.0895 -0.1360 -0.0527
16108W        W20508   1.125   5.544  17.836  0.0153  0.4321 -0.1569
16109W        W20509   6.551   2.578   7.627  0.0774 -0.2362 -0.0722
16110W        W20510   9.491   0.652   2.247  0.3081  0.1783 -0.0294
16111W        W20511   3.459   3.938   9.572  0.1636 -0.0491  0.1550
16112W        W20512   0.805   6.568  21.947 -0.0388 -0.1356 -0.3640
16113W        W20513   4.637   4.789  24.980 -0.1996 -0.0685  0.2165
16114W        W20514   2.047   1.549   6.664 -0.0242  0.3840  0.1274
16115W        W20515  26.429   6.514  10.661 -0.1447  0.1161  0.0566
16116W        W20516  12.323   3.552   9.468  0.0651  0.2684 -0.0102
16117W        W20517  27.767   4.810   7.445 -0.1216  0.0385  0.1849
16118W        W20518  19.106   0.771   9.517 -0.0682  0.0002  0.1998
16119W        W20519  21.979   6.838   3.570 -0.1177  0.1575  0.2690
16120W        W20520  30.094   7.275   7.749 -0.0233 -0.1196  0.2005
16121W        W20521   4.456   5.175   0.479 -0.0744  0.0759 -0.4385
16122W        W20522  22.108   0.623   2.368  0.1409 -0.2142 -0.0110
16123W        W20523   3.102   3.990   2.872  0.1396  0.1524 -0.1420
16124W        W20524  10.695   2.514   9.648  0.0084 -0.0084  0.2808
16125W        W20525  14.884   7.061   6.186  0.0449  0.0217  0.2170
16126W        W20526  20.651   3.051   7.108  0.0169  0.2373  0.1555
16127W        W20527  25.767   1.516  21.742 -0.2258 -0.0960 -0.0655
16128W        W20528   0.952   5.321   6.376 -0.0702 -0.1000  0.2505
16129W        W20529  10.704   4.378  24.694 -0.1635  0.0340 -0.0368
16130W        W20530  15.046   7.112   1.866 -0.0920 -0.2093  0.1876
16131W        W20531  27.249   5.994  21.873  0.0327 -0.1158  0.1068
16132W        W20532   8.706   6.697   5.960  0.0831  0.0295 -0.1529
16133W        W20533   6.397   6.663  22.416  0.1561 -0.2963  0.1947
16134W        W20534  26.158   3.166   3.385  0.1129 -0.0163  0.0457
16135W        W20535   0.563   4.926  17.317 -0.1692 -0.0609 -0.3696
16136W        W20536  12.648   5.743  18.369 -0.0880 -0.2865 -0.3428
16137W        W20537   5.459   2.940  21.950  0.2297  0.1026 -0.0333
16138W        W20538  15.527   3.163   6.876  0.1890  0.0743  0.1114
16139W        W20539   3.720   5.779  22.961  0.1076  0.0501 -0.2117
16140W        W20540  12.701   7.673  18.148  0.3613  0.2318  0.2115
16141W        W20541   4.465   5.745  18.428  0.1124 -0.1016 -0.0871
16142W        W20542  14.376   4.857   7.885 -0.0996 -0.0806  0.2772
16143W        W20543  28.499   2.044   5.384  0.3132  0.1233  0.1654
16144W        W20544   3.763   5.368  15.571  0.0060  0.2248  0.2943
16145W        W20545   7.971   2.776  24.656 -0.1298  0.0105 -0.1050
16146W        W20546  17.126   0.273  18.031  0.1001  0.1968 -0.0713
16147W        W20547  28.261   2.484  17.968 -0.0825  0.4295  0.1700
16148W        W20548   8.556   0.087   8.426  0.0197 -0.2287 -0.3627
16149W        W20549  20.016   2.023   7.856  0.0357 -0.0530  0.0754
16150W        W20550  30.728   2.762   1.593  0.1407 -0.0284  0.0211
16151W        W20551  11.015   1.826   9.896  0.0655  0.1664 -0.1146
16152W        W20552  21.640   0.803   1.533  0.0645 -0.0524  0.1033
16153W        W20553  22.831   4.679   7.343  0.0295  0.0117 -0.2453
16154W        W20554  24.732   2.885  15.085  0.1246 -0.0113  0.1171
16155W        W20555  14.553   4.877  23.229 -0.0539  0.2362 -0.0208
16156W        W20556  24.294   0.449   7.763 -0.2010  0.0204 -0.1942
16157W        W20557   6.191   2.005   1.060 -0.1379 -0.0500  0.0800
16158W        W20558  31.292   4.958   9.019  0.0049 -0.2663  0.0254
16159W        W20559  17.660   2.832  17.599  0.1261 -0.1678 -0.0417
16160W        W20560  18.890   7.600   9.669  0.0005 -0.1316 -0.1245
16161W        W20561  22.276   6.839   6.325 -0.0945  0.0520 -0.1638
16162W        W20562   1.323   0.582  25.118 -0.1976 -0.1103  0.1071
16163W        W20563   1.161   2.934   3.916  0.1071 -0.3146  0.0821
16164W        W20564  24.573   7.009   0.529  0.1429 -0.1048 -0.1028
16165W        W20565  31.004   2.825  23.725  0.1831 -0.1933 -0.2946
16166W        W20566  15.010   0.108  15.782 -0.3473 -0.1009  0.0886
16167W        W20567  16.790   5.713  23.207 -0.1662 -0.0566 -0.1865
16168W        W20568   6.989   7.709   3.036  0.1060 -0.1329 -0.2941
16169W        W20569  27.789   7.406  16.864 -0.1421  0.1656 -0.0119
16170W        W20570   7.624   1.779  22.747 -0.0696 -0.2101  0.2222
16171W        W20571  15.897   2.135   5.480 -0.1245 -0.2698 -0.0132
16172W        W20572   0.823   6.589  15.120  0.0914  0.1291 -0.1459
16173W        W20573   7.428   2.081   0.997 -0.0488  0.2998 -0.1256
16174W        W20574  24.656   1.111  24.048 -0.3273  0.0603  0.0271
16175W        W20575  28.589   4.027   3.639  0.0088 -0.2394  0.3100
16176W        W20576   5.002   2.108  22.930  0.1328 -0.0285  0.2700
16177W        W20577  21.616   7.082   7.601 -0.2794 -0.1052 -0.0309
16178W        W20578   3.663   4.617   3.971  0.2476 -0.2684  0.0829
16179W        W20579  11.298   6.755   3.171 -0.1517 -0.1914  0.2836
16180W        W20580  18.510   6.804   3.804 -0.2242  0.1706  0.1728
16181W        W20581   2.075   4.199   7.225  0.0593 -0.1872 -0.0279
16182W        W20582  14.098   2.002   8.326  0.0015 -0.0408 -0.2271
16183W        W20583  25.642   6.802   8.956 -0.1006  0.2718 -0.1324
16184W        W20584  25.006   6.980  17.103  0.1090  0.0523  0.0313
16185W        W20585  21.144   3.762   8.853 -0.0030  0.4231  0.1229
16186W        W20586  30.083   5.090  18.690 -0.1859  0.1372 -0.0371
16187W        W20587  17.473   3.457  17.301 -0.0777  0.4337 -0.1426
16188W        W20588  16.612   1.797   4.852 -0.0264 -0.0889  0.2840
16189W        W20589  22.116   3.377   0.447 -0.1459 -0.0287  0.3484
16190W        W20590  19.813   3.519   3.662  0.3122 -0.1745  0.1306
16191W        W20591  26.477   5.214  16.395  0.2734  0.0354 -0.0215
16192W        W20592  15.338   1.764   2.465  0.0915 -0.3466  0.1093
16193W        W20593  31.145   7.362  18.726 -0.5016 -0.3038  0.0989
16194W        W20594  21.906   4.513   1.332 -0.0250  0.1328  0.1181
16195W        W20595   1.762   7.483   9.174  0.0946 -0.3500  0.2181
16196W        W20596  13.959   4.472  16.506 -0.1625 -0.0485  0.4136
16197W        W20597  17.752   1.191   1.586 -0.4596  0.1237  0.1149
16198W        W20598  28.136   5.304   9.731  0.2701 -0.1605  0.0819
16199W        W20599  28.680   0.515  21.388  0.1540  0.1435 -0.2568
16200W        W20600  23.528   3.858   5.804  0.1872  0.0500  0.0979
16201W        W20601  11.975   4.851   1.271  0.0129 -0.1197 -0.1066
16202W        W20602   8.606   6.842   7.657  0.1838 -0.2110  0.0531
16203W        W20603   8.250   4.363   1.472  0.1170  0.1715  0.1807
16204W        W20604  31.305   6.666  20.956 -0.0579  0.1455  0.0010
16205W        W20605   8.758   2.185   1.492  0.1045  0.2970 -0.0674
16206W        W20606   3.279   2.608  19.316  0.1377 -0.1076 -0.0939
16207W        W20607  28.103   0.553  17.015 -0.1741  0.2238  0.0520
16208W        W20608   2.779   2.353   4.244 -0.3176  0.2044  0.1168
16209W        W20609  18.025   6.291  20.567 -0.0766 -0.0095 -0.0090
16210W        W20610  21.788   0.935   4.261 -0.0717 -0.1120  0.0451
16211W        W20611   9.063   6.687  17.007 -0.0235  0.2677  0.0549
16212W        W20612   8.469   3.015  17.341 -0.1402 -0.0988 -0.2313
16213W        W20613  14.346   4.794   6.126 -0.3667 -0.2357  0.0424
16214W        W20614  24.170   0.325   5.222  0.0000 -0.2026 -0.1280
16215W        W20615   3.552   7.004   7.299  0.1098  0.1901 -0.0985
16216W        W20616  16.957   5.885  19.292  0.1652  0.1007 -0.0063
16217W        W20617   3.664   2.256   5.933  0.1924 -0.1269  0.1021
16218W        W20618   0.787   5.146  21.332 -0.1262  0.3241  0.2795
16219W        W20619   9.268   0.006   2.288  0.1165  0.3491 -0.1797
16220W        W20620   4.910   4.230   8.929  0.0894 -0.1096  0.0177
16221W        W20621   3.767   2.874   7.561  0.0957  0.0908  0.2367
16222W        W20622  20.966   2.980  10.601 -0.0395 -0.0537  0.1476
16223W        W20623  22.112   0.386  18.995 -0.0062  0.1372  0.1525
16224W        W20624  20.256   5.606   5.989  0.5396 -0.1416  0.0373
16225W        W20625  27.968   0.099   9.707  0.1267  0.0295 -0.0184
16226W        W20626  18.698   3.935   1.229 -0.1466  0.4727 -0.1445
16227W        W20627  21.089   5.761  10.642 -0.1856 -0.4495 -0.0279
16228W        W20628  11.880   6.764  14.505  0.0846  0.0857 -0.0103
16229W        W20629  25.624   2.213   1.703 -0.1373  0.0487 -0.2844
16230W        W20630  21.728   3.910   5.391  0.0486 -0.2404  0.1126
16231W        W20631  10.567   3.473  24.574  0.2885 -0.0885  0.3288
16232W        W20632  21.352   6.929  18.002 -0.2197  0.0273 -0.0838
16233W        W20633   7.827   0.118   3.450  0.0119  0.0734 -0.0715
16234W        W20634   4.221   2.940  25.391 -0.0078 -0.0777  0.0778
16235W        W20635  18.061   4.952  24.273 -0.1592  0.0415 -0.1279
16236W        W20636  20.453   2.484   8.443  0.0372 -0.0413  0.0558
16237W        W20637   0.233   4.356  15.505  0.1838 -0.0191  0.1148
16238W        W20638   0.301   4.392   2.361  0.1190 -0.0781 -0.1968
16239W        W20639  21.415   7.498  25.073  0.0490 -0.1662 -0.0333
16240W        W20640  15.883   5.233  16.867  0.0474  0.3191  0.2439
16241W        W20641  12.641   0.648   2.594  0.1034  0.0062  0.1463
16242W        W20642  24.906   2.559  25.412  0.1910  0.0911 -0.0221
16243W        W20643   1.081   7.237   0.599  0.1913  0.0902 -0.0436
16244W        W20644   2.779   1.011  18.887  0.1284  0.0593 -0.0009
16245W        W20645   4.775   0.441   0.817  0.0609 -0.2621 -0.0907
16246W        W20646   0.039   6.077  17.199  0.1164 -0.0296 -0.0221
16247W        W20647  16.718   4.239   2.160  0.2660 -0.2800 -0.1296
16248W        W20648   5.507   1.210   5.641  0.1197  0.0196  0.3096
16249W        W20649  17.468   2.387  23.485 -0.1439 -0.0540  0.1387
16250W        W20650  18.670   2.955  10.625 -0.2369 -0.1322  0.1492
16251W        W20651   8.698   2.891   9.297  0.1294 -0.3944 -0.0627
16252W        W20652  10.037   0.671  15.183  0.1495 -0.0236  0.2074
16253W        W20653   5.648   1.861  22.044  0.0125  0.0789 -0.1067
16254W        W20654  14.777   6.160  23.205 -0.0576 -0.2695 -0.1009
16255W        W20655  27.826   5.203  16.520 -0.2098  0.2173 -0.0134
16256W        W20656  17.614   0.117  10.129  0.2820  0.3360  0.1503
16257W        W20657   2.535   4.663  17.526  0.0438  0.1693 -0.0540
16258W        W20658  30.043   6.394  23.875  0.1262 -0.1638 -0.1455
16259W        W20659   1.941   2.381  25.329 -0.1564 -0.0545 -0.0041
16260W        W20660  24.428   1.321   9.040 -0.2353  0.1805 -0.0404
16261W        W20661  21.049   4.434   1.312 -0.1641 -0.0512  0.0687
16262W        W20662  28.324   3.081  21.892  0.4222 -0.2004  0.1488
16263W        W20663  29.877   5.027  19.647 -0.1925 -0.3554 -0.2863
16264W        W20664  15.417   2.553  16.239  0.1423  0.1180 -0.1259
16265W        W20665   3.286   3.129  24.245 -0.0549 -0.0414 -0.2280
16266W        W20666  20.566   0.059   1.631  0.2375  0.0778 -0.1545
16267W        W20667   1.697   5.200  14.909  0.1135  0.0447  0.1232
16268W        W20668  23.000   3.153  24.924 -0.3212 -0.1745 -0.1495
16269W        W20669  27.201   7.367   3.601 -0.0005 -0.1252  0.2894
16270W        W20670  30.838   5.573  21.286  0.2375 -0.0695  0.3427
16271W        W20671  20.611   0.093  22.967 -0.0363 -0.0747  0.2478
16272W        W20672  15.507   6.378   3.345  0.2147  0.2261  0.0061
16273W        W20673  29.539   7.117  14.940 -0.3215 -0.0007  0.0314
16274W        W20674  30.831   4.441  25.756  0.2045 -0.3641  0.1137
16275W        W20675  13.686   0.301   1.714 -0.1244 -0.0430 -0.1430
16276W        W20676   5.193   0.606   5.021 -0.0146 -0.0398 -0.2492
16277W        W20677  12.235   3.646  16.499  0.3880 -0.4644 -0.2181
16278W        W20678  14.594   7.620  16.237  0.0985  0.2104 -0.0436
16279W        W20679  19.484   5.405  24.754 -0.2082 -0.3084  0.0659
16280W        W20680   6.782   3.194  24.036 -0.1488  0.2067 -0.0046
16281W        W20681   3.406   1.685  26.065  0.0052  0.0140  0.4342
16282W        W20682  13.537   7.040  24.941 -0.1261  0.0958 -0.0784
16283W        W20683   2.079   5.139  21.459  0.0107 -0.3306 -0.2051
16284W        W20684  27.548   4.028  15.526  0.0388 -0.1019  0.2393
16285W        W20685  31.206   0.908   8.381  0.0094 -0.2076  0.0158
16286W        W20686  12.967   1.202  19.412  0.3111 -0.0716  0.0125
16287W        W20687  20.947   0.732   9.647  0.4699  0.1656 -0.1041
16288W        W20688  29.236   2.862   3.960  0.0963  0.0370  0.0582
16289W        W20689  31.215   5.849   3.669  0.1536 -0.0529 -0.1215
16290W        W20690  20.976   0.441  22.118  0.1513 -0.0756 -0.1882
16291W        W20691  30.341   5.461  21.338  0.1473  0.1216 -0.2682
16292W        W20692  28.114   1.710  16.436  0.0008  0.1317  0.1718
16293W        W20693   4.346   3.843  10.436 -0.2635  0.2706 -0.0097
16294W        W20694  18.143   5.872  21.428 -0.0322 -0.0154  0.2502
16295W        W20695  18.759   7.594   3.904  0.3377 -0.0988  0.0388
16296W        W20696  28.373   4.005  24.473 -0.2142 -0.0366 -0.1920
16297W        W20697  15.020   5.599   2.727  0.1255  0.0852  0.0144
16298W        W20698  13.135   2.447   2.912 -0.1972 -0.0425 -0.1220
16299W        W20699  17.452   0.793   2.474 -0.2133  0.1378 -0.0029
16300W        W20700  10.434   3.049   8.925  0.1787 -0.0887  0.0848
16301W        W20701  31.347   5.525  15.525 -0.3207 -0.1252 -0.0644
16302W        W20702   8.747   5.273  17.224 -0.2490 -0.4171  0.3555
16303W        W20703   6.035   4.813  11.276  0.1086  0.0329 -0.1981
16304W        W20704   2.144   5.886   7.878 -0.2572 -0.1500 -0.0522
16305W        W20705  19.078   1.751  23.641 -0.4640 -0.1365 -0.0849
16306W        W20706  13.447   7.628   3.239  0.0319  0.0185 -0.3336
16307W        W20707   6.383   4.790  25.164 -0.3031  0.1420 -0.1405
16308W        W20708  11.386   4.821  21.297 -0.0562  0.1831 -0.2184
16309W        W20709  25.772   2.777  21.062  0.1325  0.0111 -0.0724
16310W        W20710  31.204   0.417  17.097 -0.0496  0.1362 -0.1005
16311W        W20711  16.441   3.770  22.411 -0.0558  0.0859  0.2106
16312W        W20712   1.016   5.035  23.899 -0.0010  0.1656  0.2665
16313W        W20713  16.321   0.033  23.780  0.0552  0.4135  0.0366
16314W        W20714  16.660   3.248   0.233  0.0511  0.3302 -0.0829
16315W        W20715   8.363   1.677   6.895 -0.1125 -0.0866  0.1239
16316W        W20716  13.026   3.222   5.036 -0.0516  0.0390 -0.3648
16317W        W20717  14.445   5.046   2.561  0.1767 -0.2217  0.0132
16318W        W20718  19.793   1.570  25.822 -0.1550  0.0990 -0.1331
16319W        W20719  16.173   0.285  22.939  0.0659  0.3089 -0.1097
16320W        W20720  30.562   5.880  22.768  0.2167  0.2668  0.3822
16321W        W20721   1.319   5.241  22.424 -0.3793  0.2525  0.0720
16322W        W20722  22.739   5.491   1.976  0.1424  0.1726  0.1982
16323W        W20723  14.306   0.203   0.858  0.1951  0.2323 -0.1416
16324W        W20724  11.496   2.378   7.414  0.0579  0.1465  0.2022
16325W        W20725  17.923   3.223   8.523  0.0217 -0.1294 -0.3754
16326W        W20726  18.128   3.288   8.041 -0.0347  0.2736 -0.1876
16327W        W20727   6.175   2.107  16.940  0.0667 -0.4054 -0.0199
16328W        W20728  10.370   1.188   3.814 -0.1795 -0.2025  0.0021
16329W        W20729   3.710   4.575   6.437  0.1475  0.3096  0.2763
16330W        W20730  31.408   2.755   5.377  0.0619 -0.1945 -0.2527
16331W        W20731  13.787   3.098   3.042 -0.1760  0.0336 -0.1781
16332W        W20732  23.503   0.019  21.699 -0.2675 -0.0497 -0.0003
16333W        W20733   2.980   7.287  15.176  0.0784  0.0435 -0.0695
16334W        W20734   2.067   0.314  16.116 -0.2443  0.1962 -0.0172
16335W        W20735   5.920   3.804  20.067 -0.0463  0.0586 -0.1811
16336W        W20736  19.019   0.040  17.890  0.1614 -0.1115  0.3639
16337W        W20737  28.721   5.088   6.673  0.3054  0.0473  0.1750
16338W        W20738  12.880   1.538   9.766  0.2321  0.1242 -0.0872
16339W        W20739  11.318   0.600   9.798 -0.1161 -0.0411 -0.0034
16340W        W20740   4.661   7.335  18.677  0.0524  0.2281 -0.0525
16341W        W20741   9.453   6.276   4.156 -0.0969 -0.2229 -0.0621
16342W        W20742  10.891   5.762  26.046 -0.2116 -0.3389 -0.0124
16343W        W20743  19.172   0.409   0.187 -0.0360  0.2605 -0.2848
16344W        W20744   8.603   1.802   9.319  0.2907 -0.1219  0.3431
16345W        W20745  17.971   0.741  18.671  0.2127  0.0214  0.0303
16346W        W20746  10.641   1.359   7.234  0.2038 -0.3349  0.3421
16347W        W20747   1.936   3.441  14.489 -0.3057 -0.2311  0.2890
16348W        W20748  27.347   0.838  24.407  0.1173  0.0725 -0.0068
16349W        W20749  20.237   1.767   9.062  0.2411  0.1343  0.1327
16350W        W20750  22.915   1.567  16.443  0.1794  0.4027 -0.3542
16351W        W20751  12.862   6.940   5.915  0.2451 -0.2696 -0.1063
16352W        W20752  21.261   3.204  23.379  0.1164  0.2414  0.0572
16353W        W20753  21.603   7.119  17.168 -0.3491  0.0655 -0.0171
16354W        W20754   8.984   5.347   4.341 -0.1922 -0.2750 -0.0959
16355W        W20755  28.157   5.185   4.336  0.0437  0.0548  0.1280
16356W        W20756  25.191   3.827  16.512 -0.2016  0.2170 -0.2400
16357W        W20757  23.965   1.207   4.999 -0.3144  0.0720  0.0335
16358W        W20758   3.678   6.240   8.988  0.0945  0.0348  0.2008
16359W        W20759  22.541   7.554  22.603  0.0119 -0.0379  0.1435
16360W        W20760  27.764   0.633   4.882 -0.1186  0.0214  0.1691
16361W        W20761  30.663   6.614  15.895  0.2942 -0.0270  0.0594
16362W        W20762   2.662   1.978  24.686 -0.0207  0.0312 -0.0066
16363W        W20763  30.432   5.188  20.845  0.0031 -0.1612 -0.1185
16364W        W20764  15.047   0.176  10.498 -0.1643 -0.2366 -0.0122
16365W        W20765   7.708   2.067  22.200 -0.4581  0.1733  0.2204
16366W        W20766  24.458   0.655   4.392  0.0427  0.0388 -0.2087
16367W        W20767  30.464   0.428  17.802  0.3555 -0.1779 -0.0722
16368W        W20768   9.326   2.171   3.411  0.1725 -0.2288  0.0377
16369W        W20769  10.400   4.979  17.915 -0.2534  0.0324 -0.1071
16370W        W20770  21.014   7.567  16.206 -0.2534 -0.1922  0.1623
16371W        W20771  16.814   2.773  10.594  0.0762 -0.1199 -0.0197
16372W        W20772  10.941   2.152   2.323  0.0708  0.0384 -0.1049
16373W        W20773  20.742   0.130  23.609  0.0478  0.0674 -0.2750
16374W        W20774  19.432   0.192   1.188 -0.1723 -0.0720 -0.2432
16375W        W20775   1.321   3.011  22.510  0.3290 -0.0990 -0.0093
16376W        W20776  13.349   0.341  25.327  0.0318 -0.2293 -0.1549
16377W        W20777  31.211   7.356  19.591  0.0052 -0.0806 -0.1500
16378W        W20778  15.659   7.339  18.225 -0.3561 -0.1548 -0.0734
16379W        W20779  10.245   0.657  15.663  0.2709  0.1996 -0.4034
16380W        W20780   2.328   0.510  22.023 -0.0132  0.3711  0.2326
16381W        W20781  12.346   0.057   4.728  0.2833 -0.1411 -0.1161
16382W        W20782  21.156   3.627  23.009  0.1255 -0.0613 -0.2039
16383W        W20783  27.891   2.364   3.931 -0.0202  0.0798  0.0611
16384W        W20784  14.203   4.786  19.796  0.1118 -0.3271 -0.0175
16385W        W20785  26.752   0.118   2.920 -0.4080  0.2723 -0.0918
16386W        W20786  22.253   5.888  22.714  0.0711  0.2145  0.1041
16387W        W20787  14.357   4.652  23.957 -0.1464  0.0589 -0.0547
16388W        W20788   6.046   5.384  16.873 -0.2660 -0.0847 -0.2036
16389W        W20789  10.603   5.955   2.137  0.1997  0.1149  0.0502
16390W        W20790  19.937   0.481  23.941 -0.0785 -0.2502 -0.1989
16391W        W20791   6.620   5.282   0.329 -0.0490 -0.3269 -0.0345
16392W        W20792  22.584   4.538  19.901 -0.1310 -0.0415 -0.0944
16393W        W20793  23.751   4.148   0.986 -0.0087  0.0202  0.0753
16394W        W20794   2.067   6.211  16.202  0.0147 -0.0306  0.1184
16395W        W20795  28.189   4.580   8.193  0.1432 -0.0032 -0.0385
16396W        W20796  28.069   3.992  19.319 -0.1945 -0.0852  0.1268
16397W        W20797   4.160   4.266   7.265 -0.2161 -0.0804 -0.2334
16398W        W20798   5.834   0.584   1.336 -0.1781 -0.1331 -0.1069
16399W        W20799  30.714   3.964  19.471 -0.1426 -0.1290  0.2294
16400W        W20800  25.194   1.767  21.006  0.1991 -0.0556 -0.1627
16401W        W20801  21.051   0.412   4.176  0.1165  0.0014  0.0332
16402W        W20802  25.899   0.771   3.083 -0.0703 -0.3419  0.1912
16403W        W20803  30.918   0.858   7.013 -0.1276 -0.1733 -0.3680
16404W        W20804  11.511   7.186   4.789 -0.1476  0.0298 -0.3184
16405W        W20805  16.928   2.144  24.684  0.1927  0.0955  0.2754
16406W        W20806  31.385   7.358   1.810  0.0973  0.1304  0.2376
16407W        W20807  20.722   6.747  21.632  0.0711  0.1121 -0.0118
16408W        W20808  22.157   4.435  20.840 -0.2340  0.0672  0.0364
16409W        W20809  13.680   7.151  18.477 -0.3319 -0.2562  0.2044
16410W        W20810  28.231   3.446  21.618  0.2361  0.0531 -0.2131
16411W        W20811  13.728   6.669  16.793  0.0998 -0.1335  0.0347
16412W        W20812   0.704   6.240   7.621  0.0846 -0.1483  0.0799
16413W        W20813   4.624   1.264   8.679  0.0028 -0.2951  0.1377
16414W        W20814  27.607   5.111   8.416 -0.0745  0.1527  0.1028
16415W        W20815  23.738   7.727   3.242 -0.0098  0.0894 -0.0102
16416W        W20816  27.127   3.422   0.066  0.0811  0.0055  0.1437
16417W        W20817  28.544   0.372  17.164 -0.0725 -0.1190 -0.0431
16418W        W20818  20.105   0.178  19.806 -0.3272  0.2355 -0.0116
16419W        W20819  17.900   3.405   7.274  0.2131  0.3367 -0.2323
16420W        W20820  15.136   0.985   3.919 -0.0296  0.2412  0.1349
16421W        W20821  10.196   6.278   7.317 -0.0529 -0.0225 -0.1705
16422W        W20822   4.746   0.067   2.019  0.1485 -0.0569 -0.0928
16423W        W20823  27.609   0.117   8.266 -0.1575  0.1995 -0.1793
16424W        W20824  23.098   2.082  16.211  0.1062  0.0716  0.0616
16425W        W20825   9.900   1.763   1.237 -0.0122  0.0486 -0.1323
16426W        W20826  12.077   3.838  20.422  0.1025  0.1317 -0.5127
16427W        W20827   8.225   6.859  23.343  0.0516 -0.1273 -0.1062
16428W        W20828  24.222   7.677  16.566 -0.1549  0.0483  0.4381
16429W        W20829  31.265   6.027   7.437 -0.1763  0.3084 -0.0909
16430W        W20830   4.101   5.175  25.759 -0.0102  0.1866 -0.0607
16431W        W20831   7.882   1.865   3.475  0.1766  0.0981 -0.4202
16432W        W20832  12.638   3.710  19.666 -0.0933 -0.1779  0.1730
16433W        W20833  11.319   6.957  21.359  0.4109  0.1110  0.0913
16434W        W20834  20.410   4.152  25.292  0.1690  0.0329  0.0059
16435W        W20835   4.987   5.904  21.087  0.0115 -0.1059  0.1418
16436W        W20836  21.269   7.172  23.548  0.2782  0.1135  0.1125
16437W        W20837   5.553   1.412  22.809 -0.0032 -0.4101 -0.0751
16438W        W20838   7.955   6.517  23.685 -0.0939  0.0630 -0.0939
16439W        W20839  15.680   5.226   9.660  0.3395 -0.0735  0.5674
16440W        W20840   8.923   2.570  22.419  0.4973  0.0250  0.1440
16441W        W20841   2.821   5.864   7.236 -0.1957 -0.0312  0.0999
16442W        W20842   1.668   7.785   5.866 -0.1216  0.3412 -0.1538
16443W        W20843  20.864   2.681   6.063 -0.0512 -0.1140 -0.1013
16444W        W20844  14.469   0.294  25.715  0.2638 -0.0453  0.0087
16445W        W20845   5.701   4.911  22.333  0.2974  0.2494  0.0633
16446W        W20846  30.429   4.868   9.570 -0.0597  0.0707  0.1863
16447W        W20847   0.001   7.162  16.425 -0.0356 -0.2920  0.0160
16448W        W20848  22.129   1.211  23.529 -0.1638  0.2137 -0.3355
16449W        W20849   2.252   6.402  22.455  0.2688 -0.2466  0.2105
16450W        W20850   7.157   1.684   0.047  0.1542  0.3258 -0.0280
16451W        W20851  24.770   1.811   5.904 -0.1136 -0.1651 -0.0660
16452W        W20852  28.496   4.193   2.795 -0.0417  0.0879  0.0251
16453W        W20853  28.445   2.417   5.717  0.0729 -0.0338  0.1690
16454W        W20854   2.649   2.032  22.050 -0.3443 -0.0133  0.4147
16455W        W20855   7.791   1.326   2.424 -0.2752  0.1042  0.2020
16456W        W20856  21.752   3.507   9.539  0.1685 -0.2935  0.1180
16457W        W20857   1.070   0.164  23.089  0.1484  0.2437  0.0198
16458W        W20858  30.371   4.486   0.145  0.3026 -0.1482 -0.0315
16459W        W20859  16.959   0.752   1.511  0.0594  0.0052 -0.1935
16460W        W20860  30.226   1.328   3.848  0.2455  0.3334 -0.0747
16461W        W20861  30.986   2.921  15.299 -0.3601  0.0667 -0.0144
16462W        W20862   3.360   4.531   5.988 -0.0037 -0.0726 -0.1874
16463W        W20863  13.876   6.819  15.731 -0.3444  0.1237  0.2635
16464W        W20864  10.051   5.961  25.992 -0.0652 -0.2022 -0.3047
16465W        W20865  21.046   6.293  19.138 -0.1476 -0.0083 -0.2792
16466W        W20866   0.153   1.212   1.370  0.1825  0.0473 -0.3712
16467W        W20867   9.094   1.749  22.169 -0.0307  0.1229  0.1194
16468W        W20868  15.819   3.224  24.501 -0.3187  0.1090  0.0590
16469W        W20869  20.174   4.414  19.553  0.2408  0.0630  0.0961
16470W        W20870   1.137   5.795  15.515  0.1252  0.1518 -0.0894
16471W        W20871  14.664   4.631  24.766  0.0162 -0.0513  0.1857
16472W        W20872  29.479   7.193  23.905 -0.2133  0.0390 -0.2764
16473W        W20873   9.496   1.986  16.360  0.3022  0.0620 -0.0524
16474W        W20874  12.240   3.575   6.226 -0.1208 -0.1759  0.0764
16475W        W20875  30.772   6.773  24.126  0.0444  0.0376 -0.0339
16476W        W20876  12.525   3.481   5.018  0.0337  0.0140  0.3279
16477W        W20877  22.347   6.752  20.587  0.0791 -0.0388  0.4218
16478W        W20878  10.790   4.448  10.609 -0.3582 -0.1902  0.0546
16479W        W20879   8.557   4.171  22.820 -0.0496 -0.1420 -0.0013
16480W        W20880  25.782   4.410   5.581  0.1475  0.0498  0.1192
16481W        W20881  17.332   6.273   4.882  0.1636  0.0783 -0.0217
16482W        W20882   6.458   4.736   9.449 -0.2909 -0.1341 -0.0578
16483W        W20883  30.609   4.853  22.537  0.0861  0.0974  0.1485
16484W        W20884  17.723   0.496  10.933 -0.3889  0.1703 -0.2706
16485W        W20885  16.208   5.878  19.559 -0.1437 -0.2669 -0.0280
16486W        W20886  21.206   4.541   0.800  0.1157 -0.1934  0.1982
16487W        W20887   1.478   5.597  15.263  0.4380  0.0323 -0.1927
16488W        W20888   0.337   5.902  25.152 -0.2533  0.0344 -0.1590
16489W        W20889  19.123   7.175   8.771 -0.0318  0.3143  0.1041
16490W        W20890  14.339   0.172   6.529 -0.1548  0.1157  0.1838
16491W        W20891  18.243   2.867   7.066  0.0447  0.0806 -0.0845
16492W        W20892   4.911   5.137   8.512 -0.0309  0.0004 -0.0944
16493W        W20893  26.192   3.468  10.073  0.0539 -0.0088  0.0453
16494W        W20894  13.095   1.429   5.895  0.0415  0.0999 -0.2724
16495W        W20895   3.660   6.029   9.410 -0.2189  0.1020  0.0337
16496W        W20896   1.879   0.795  22.210 -0.1745 -0.2097 -0.2446
16497W        W20897  11.883   3.229  10.711  0.0340 -0.0749  0.1431
16498W        W20898  26.869   0.613  15.490  0.0715  0.0682  0.1057
16499W        W20899  25.275   7.816  16.748 -0.1317  0.1377 -0.1100
16500W        W20900  13.256   1.235  23.462 -0.0696  0.3617 -0.3643
16501W        W20901  27.561   3.193   1.863  0.0278 -0.0581  0.0199
16502W        W20902   2.505   0.095   4.161 -0.2831 -0.0937 -0.1656
16503W        W20903  16.260   3.222  24.760  0.0322  0.2296 -0.2200
16504W        W20904   7.875   3.780   0.120 -0.0204 -0.2128  0.2360
16505W        W20905  23.083   7.235   5.890 -0.1529 -0.1355 -0.3091
16506W        W20906   4.567   5.062  15.294  0.1329 -0.0773  0.0500
16507W        W20907  20.269   0.155  26.015  0.0249  0.0032  0.1193
16508W        W20908  27.505   1.284  25.906  0.2874 -0.2134 -0.4988
16509W        W20909  17.392   1.418  10.230  0.0029  0.2421  0.1836
16510W        W20910   8.704   6.665  15.092  0.0935 -0.0424  0.2178
16511W        W20911  12.212   3.503  25.650  0.1114  0.0505 -0.4465
16512W        W20912  17.963   1.665  20.439 -0.3285  0.3422  0.0217
16513W        W20913  17.686   4.294  21.818 -0.0960 -0.1050 -0.1479
16514W        W20914   9.701   0.946   5.492  0.2383  0.0976  0.0973
16515W        W20915  29.517   5.885   0.907  0.1019  0.0146  0.1175
16516W        W20916  25.627   5.041  21.371 -0.0572  0.0794  0.2671
16517W        W20917  10.870   3.903   2.816  0.1557 -0.1847  0.0715
16518W        W20918   8.945   2.499  20.606 -0.0693  0.2556  0.1416
16519W        W20919   8.917   7.417  20.853  0.1798  0.1800  0.0315
16520W        W20920  30.944   0.014   7.352 -0.0263 -0.4197 -0.2229
16521W        W20921  20.511   6.142  24.156 -0.0910 -0.1186  0.3968
16522W        W20922  26.500   4.520  11.046  0.0899  0.0605 -0.0239
16523W        W20923  18.779   2.440  10.866  0.0444  0.0944  0.3083
16524W        W20924  25.981   0.807  15.757 -0.0177 -0.1710  0.0843
16525W        W20925  17.099   2.344  15.097  0.0000  0.1128 -0.2541
16526W        W20926  30.620   1.987  24.101 -0.1807 -0.0336 -0.0333
16527W        W20927   7.101   5.667  24.343  0.0166  0.1990 -0.0390
16528W        W20928  26.187   0.900   7.792  0.2144  0.2420 -0.3212
16529W        W20929  14.575   1.620   1.965  0.1176  0.0318 -0.5068
16530W        W20930  18.751   2.829   3.416  0.0499 -0.2182  0.0025
16531W        W20931   7.402   1.403   4.498  0.0742  0.0509 -0.2087
16532W        W20932  26.398   7.502  17.952 -0.1689 -0.0747  0.0926
16533W        W20933  15.155   5.640  17.962 -0.0560 -0.1031  0.3015
16534W        W20934  26.221   2.978   4.370 -0.1485 -0.0187  0.2355
16535W        W20935   7.616   0.130   9.988 -0.0016  0.0323  0.1993
16536W        W20936   0.859   4.630   7.201 -0.0556  0.1437 -0.2693
16537W        W20937  16.464   4.918   4.674  0.0734 -0.0392  0.3095
16538W        W20938  21.975   1.594  23.868  0.0315  0.0963 -0.3512
16539W        W20939   8.289   2.126   8.038 -0.1034  0.0608 -0.2631
16540W        W20940  21.147   6.539   7.628  0.2428  0.1122 -0.2719
16541W        W20941  29.954   6.137  20.854  0.1506  0.0666 -0.0626
16542W        W20942  31.015   4.564  17.431  0.0197 -0.1162 -0.0059
16543W        W20943  10.632   0.840  15.882  0.2800 -0.0042 -0.2045
16544W        W20944   2.420   5.667  22.121 -0.0367  0.1935 -0.0463
16545W        W20945  13.277   3.969   0.205  0.3373 -0.1231 -0.1155
16546W        W20946  21.138   3.059   0.677 -0.0335 -0.0559 -0.0200
16547W        W20947  14.773   7.839  11.037  0.0290  0.0244  0.0089
16548W        W20948  14.284   5.720   5.688  0.1613  0.2308  0.0141
16549W        W20949   1.386   2.340   0.526  0.1688 -0.3207 -0.1187
16550W        W20950  17.101   5.465  19.528  0.0146  0.0889  0.0437
16551W        W20951  21.222   7.198   9.712 -0.0443  0.0781 -0.1003
16552W        W20952   3.361   5.251   1.619  0.1861 -0.3452  0.1629
16553W        W20953   3.976   0.291  23.921 -0.0331  0.2720  0.1239
16554W        W20954   3.892   3.675   9.714  0.2309  0.1272 -0.0324
16555W        W20955  11.417   5.375  22.998  0.1995 -0.5280  0.0402
16556W        W20956  23.186   7.367  20.933  0.2333 -0.0309  0.3231
16557W        W20957  24.115   4.237  23.954 -0.1972  0.1196  0.2342
16558W        W20958  15.290   6.062   5.350  0.0578 -0.0162  0.0155
16559W        W20959  13.348   0.215  25.761 -0.0865 -0.0755 -0.2127
16560W        W20960  19.207   6.902  21.363 -0.1034 -0.1312  0.2298
16561W        W20961   4.124   5.264  16.846  0.2032 -0.4317  0.0705
16562W        W20962   1.874   6.284  20.621  0.0209 -0.0904  0.0640
16563W        W20963   2.209   3.626  19.983  0.1206  0.1733  0.0730
16564W        W20964  21.149   7.084  25.343  0.0823  0.2056 -0.0858
16565W        W20965   9.563   2.197   6.500  0.1382 -0.0479  0.1320
16566W        W20966  21.783   7.446  25.861 -0.5130  0.0457  0.2309
16567W        W20967   0.302   6.164   9.900 -0.0186  0.1497 -0.0892
16568W        W20968  29.605   5.938  24.788  0.1342 -0.0574  0.0641
16569W        W20969  10.376   2.180  24.477  0.0481 -0.1993 -0.1211
16570W        W20970  29.629   7.422   9.081  0.0077  0.1956  0.0812
16571W        W20971   9.599   0.687   4.150 -0.1114 -0.0547  0.1649
16572W        W20972   9.024   6.342   0.795  0.3996  0.1059 -0.0460
16573W        W20973  15.788   1.276  19.472 -0.2124 -0.1004  0.0610
16574W        W20974  25.385   3.899  20.197 -0.3832  0.0053  0.1760
16575W        W20975   7.474   5.625  10.567 -0.2559 -0.1499  0.4663
16576W        W20976  28.054   6.076  23.545  0.1809  0.2055 -0.1527
16577W        W20977  23.354   4.447  16.233 -0.3182  0.2610  0.0970
16578W        W20978  30.863   5.210  14.860 -0.2255  0.2384  0.2921
16579W        W20979  13.355   2.192  17.749 -0.0956  0.1218 -0.1284
16580W        W20980  18.033   5.383  19.395 -0.0163  0.4298 -0.0275
16581W        W20981  12.435   5.236   5.771  0.0177  0.0655  0.1029
16582W        W20982  29.622   4.324  18.462  0.1431 -0.2997  0.0719
16583W        W20983   0.899   3.457   2.397 -0.3619  0.2071  0.0608
16584W        W20984  11.266   0.010  10.426  0.3841  0.1373  0.0805
16585W        W20985  10.938   2.249   5.119  0.0624  0.1861 -0.1515
16586W        W20986   4.490   3.590   5.590 -0.0761 -0.2099 -0.0127
16587W        W20987  12.971   1.116   2.565  0.3475  0.3787 -0.1797
16588W        W20988  29.465   5.289   9.396 -0.0088 -0.2470  0.2062
16589W        W20989  11.165   5.590  23.448  0.2706  0.3447  0.0206
16590W        W20990  29.833   2.900  24.543  0.0190  0.0052  0.0705
16591W        W20991   5.817   0.221   3.061 -0.2114 -0.0950  0.3417
16592W        W20992  11.395   7.807  17.397 -0.0843 -0.1065  0.3315
16593W        W20993   6.453   4.328  25.552  0.1279 -0.2553 -0.4072
16594W        W20994  25.765   6.198   7.929  0.1047 -0.2329  0.3589
16595W        W20995  16.818   4.530  23.071  0.0278 -0.3078  0.3319
16596W        W20996  29.749   2.473   7.519  0.1092 -0.2081  0.0582
16597W        W20997   0.744   4.695   5.566 -0.1710 -0.2603 -0.2825
16598W        W20998  28.765   2.995  24.988 -0.2259  0.0001 -0.0682
16599W        W20999   6.635   2.021   6.015  0.1052  0.1265  0.0583
16600W        W21000   9.313   2.235  25.475 -0.0782  0.1104  0.1014
16601W        W21001  15.281   2.791   3.705  0.0342  0.2163  0.0369
16602W        W21002  23.815   3.393   9.923  0.2119  0.2881  0.1384
16603W        W21003  24.581   4.193  24.140 -0.1143 -0.2010 -0.0783
16604W        W21004   1.278   2.039  15.158  0.0192 -0.2955 -0.1357
16605W        W21005  15.648   2.059  23.597  0.0519  0.1491 -0.0689
16606W        W21006  30.409   7.719   0.665  0.2328  0.2198  0.0599
16607W        W21007  25.352   5.688  17.567 -0.2474  0.0620  0.2121
16608W        W21008   5.687   7.270   9.190  0.4409  0.2972 -0.0320
16609W        W21009  27.671   3.394  24.965  0.3618 -0.4090  0.0202
16610W        W21010   2.970   7.172   3.424  0.4180 -0.0363  0.0234
16611W        W21011   1.408   1.520  20.623 -0.0729 -0.0641 -0.1923
16612W        W21012   7.872   7.343   2.826  0.1236 -0.1036 -0.2159
16613W        W21013  24.214   3.094   5.680  0.1323 -0.1155 -0.2934
16614W        W21014   2.223   7.120  25.002 -0.1717  0.1321  0.2257
16615W        W21015  16.946   6.222   4.525  0.1304 -0.3441 -0.0618
16616W        W21016  16.151   1.801  10.982 -0.0762  0.3937 -0.3059
16617W        W21017  12.697   5.539   6.727 -0.1809  0.0712 -0.4066
16618W        W21018  29.409   0.823  16.824 -0.1169  0.1035 -0.0223
16619W        W21019   9.084   5.133  25.145 -0.4303  0.2678  0.0306
16620W        W21020  22.428   3.174  21.104 -0.1486  0.0379  0.5639
16621W        W21021   4.595   1.344   1.670 -0.0008 -0.0100  0.0249
16622W        W21022  31.215   3.524  23.329 -0.0527 -0.1657  0.3382
16623W        W21023  19.496   0.189   9.016  0.0858 -0.1124  0.2038
16624W        W21024  10.411   7.150   3.833  0.0221  0.1728  0.0397
16625W        W21025   9.230   3.060   1.065  0.1446 -0.0660  0.1799
16626W        W21026  25.531   1.336  25.348 -0.0203  0.0228 -0.0288
16627W        W21027  14.484   0.833  21.641 -0.0154  0.0428 -0.3030
16628W        W21028  29.608   6.127   7.755  0.1087 -0.1291  0.0574
16629W        W21029   2.139   4.732  16.136  0.3254 -0.3339  0.1672
16630W        W21030  18.645   1.226  20.429  0.2901 -0.1986 -0.1699
16631W        W21031   4.187   5.763   1.136 -0.1533 -0.1039 -0.0676
16632W        W21032  17.161   1.251  23.130  0.1687 -0.1034  0.0479
16633W        W21033   7.329   6.580  14.695  0.0409  0.1231  0.1318
16634W        W21034   3.023   4.445   7.562  0.1324 -0.1178 -0.0105
16635W        W21035  27.732   7.241   4.642 -0.0957 -0.0397  0.2358
16636W        W21036  20.170   5.033   2.635 -0.0333  0.0259 -0.0457
16637W        W21037  17.206   2.104  21.501 -0.0068 -0.0327 -0.0530
16638W        W21038  13.459   1.590   3.258 -0.1996 -0.1190 -0.0031
16639W        W21039  17.074   5.437   8.145 -0.3214  0.0281  0.0713
16640W        W21040  10.554   2.771  10.970  0.0380 -0.0780  0.2176
16641W        W21041   2.813   1.587  22.850  0.1119  0.2707  0.0886
16642W        W21042  11.278   4.667  18.224 -0.0296  0.0305  0.2192
16643W        W21043   2.693   7.045   7.795 -0.1219  0.0684 -0.1381
16644W        W21044  14.560   0.354   9.799  0.1161  0.1349 -0.0679
16645W        W21045  18.506   2.832  24.296 -0.0571  0.0737  0.1595
16646W        W21046  13.316   4.113   7.105  0.0893  0.0104  0.1802
16647W        W21047  26.949   1.646  10.492 -0.4333 -0.1959  0.2606
16648W        W21048  20.493   5.692   5.546  0.1620  0.1094 -0.2307
16649W        W21049  24.865   7.503   6.789  0.0750  0.0344 -0.3761
16650W        W21050  29.421   0.577  20.469 -0.0221  0.2942 -0.0630
16651W        W21051  10.024   2.684  24.585  0.1589 -0.1171  0.0865
16652W        W21052  31.292   0.187  24.212  0.1151 -0.0094 -0.1550
16653W        W21053  12.357   5.766  23.200  0.0665  0.2028 -0.3963
16654W        W21054  28.472   3.020   8.211  0.1612  0.1928 -0.1300
16655W        W21055  26.055   2.305   7.561 -0.0497  0.1988 -0.0536
16656W        W21056  23.217   6.207   1.670  0.0062  0.2318 -0.2160
16657W        W21057  30.552   7.831  20.793  0.1033  0.2144  0.0938
16658W        W21058   7.407   4.494   3.734  0.4807 -0.1740 -0.2720
16659W        W21059  18.915   7.151  10.935 -0.0727  0.4163  0.0557
16660W        W21060   8.584   0.940  25.441 -0.3043  0.0106  0.1412
16661W        W21061  22.893   4.293   9.564  0.0928 -0.0257  0.1976
16662W        W21062  16.762   5.905  16.424 -0.2102  0.0387  0.1647
16663W        W21063   5.391   1.799   5.415 -0.3178 -0.0230  0.1296
16664W        W21064   1.208   3.265  16.391 -0.1269  0.3382  0.0007
16665W        W21065  17.822   6.049   1.360  0.1347  0.0718 -0.2485
16666W        W21066  26.086   2.442  10.016  0.1589  0.2608  0.3746
16667W        W21067   4.748   6.508  18.187  0.0376  0.2625  0.0171
16668W        W21068  31.212   2.332  17.168 -0.3203  0.4220 -0.1621
16669W        W21069   3.522   3.817   3.044 -0.2995 -0.0046 -0.3735
16670W        W21070  20.508   4.817   6.389 -0.4046  0.0171 -0.3388
16671W        W21071  24.965   6.648   0.577  0.1989  0.0708  0.0881
16672W        W21072  31.123   0.505  25.544  0.0903  0.0425  0.1584
16673W        W21073  31.321   2.327   2.108  0.0858  0.0306  0.0905
16674W        W21074   3.258   7.420   6.132 -0.0865 -0.3669 -0.2177
16675W        W21075  11.780   5.224  22.068  0.2893 -0.2864 -0.0301
16676W        W21076   6.650   6.943  23.102 -0.2078 -0.2103  0.1446
16677W        W21077  22.360   5.857  19.428  0.0886 -0.1559  0.1560
16678W        W21078   0.085   6.458   1.232 -0.1378 -0.0579 -0.2836
16679W        W21079  20.431   2.243  17.409 -0.1133 -0.0800 -0.1705
16680W        W21080  25.627   0.716  18.157 -0.1394  0.0537  0.2733
16681W        W21081   3.807   0.436   2.959 -0.0357 -0.0590  0.2214
16682W        W21082   4.322   0.497  15.006 -0.2293  0.0040 -0.0422
16683W        W21083  24.328   2.459  21.113  0.1556 -0.1075  0.0163
16684W        W21084  11.863   1.435  23.101  0.0074  0.2528  0.1721
16685W        W21085   1.714   4.967   5.304 -0.1429  0.0296  0.1504
16686W        W21086   1.111   0.192   2.779 -0.2685  0.3522 -0.0060
16687W        W21087  28.777   6.220   2.990 -0.1622 -0.0834 -0.1779
16688W        W21088  11.691   3.721   4.048  0.0817  0.1833 -0.1088
16689W        W21089   6.762   1.200  19.686  0.0289  0.1641  0.1359
16690W        W21090   7.591   6.981  26.033  0.1261  0.0382 -0.0868
16691W        W21091  12.264   0.928   8.170 -0.0481  0.1091  0.0157
16692W        W21092  18.123   2.183  24.024 -0.2879  0.0767  0.0537
16693W        W21093  21.684   6.596   4.958  0.2161  0.0647 -0.4314
16694W        W21094   0.837   7.476  25.299  0.0159  0.1952  0.1152
16695W        W21095  14.682   7.825  10.143  0.2755 -0.5636 -0.0505
16696W        W21096  28.275   7.837   9.269  0.3203 -0.1681  0.3231
16697W        W21097  11.800   7.267  16.978 -0.0170  0.1734  0.4154
16698W        W21098  16.104   7.199   2.003 -0.2436 -0.2408  0.2130
16699W        W21099   2.397   4.502   0.222  0.1079  0.0375 -0.1292
16700W        W21100   3.010   3.439   1.613 -0.0557  0.0748  0.1496
16701W        W21101  12.852   0.575   8.050  0.0342  0.5551 -0.2522
16702W        W21102   8.330   0.981  17.550  0.2805 -0.1299 -0.3331
16703W        W21103  15.899   3.784  23.779 -0.0773 -0.0069 -0.0002
16704W        W21104  23.012   0.307   9.091  0.5129 -0.1985  0.0599
16705W        W21105  19.061   2.385   8.989 -0.4397  0.0298 -0.2948
16706W        W21106  11.949   1.839  24.979  0.1511  0.0956 -0.1141
16707W        W21107  30.341   6.257  15.294  0.1880 -0.1275 -0.2165
16708W        W21108  17.032   5.185  25.675  0.1977 -0.1025 -0.0623
16709W        W21109   0.684   0.035   9.248  0.0312  0.1672  0.1291
16710W        W21110  11.337   3.800   0.788 -0.1545 -0.1006  0.1541
16711W        W21111  13.088   7.571  22.797 -0.0260  0.0455  0.1530
16712W        W21112   6.340   6.756  25.410 -0.0008 -0.1795  0.0691
16713W        W21113   8.345   6.546   3.416 -0.0313 -0.3075 -0.1075
16714W        W21114  18.860   3.296  23.363  0.1922  0.0087  0.0874
16715W        W21115  26.649   6.214  24.857 -0.0792  0.1156  0.2415
16716W        W21116  10.947   3.058   8.889  0.0184  0.1982 -0.1410
16717W        W21117  10.298   1.301  18.240 -0.1235  0.3774 -0.1101
16718W        W21118   1.250   6.238   7.570  0.0548  0.1932 -0.0274
16719W        W21119   9.619   0.373  10.348 -0.2173  0.1677 -0.2365
16720W        W21120   2.885   5.612   6.754 -0.1520  0.0136  0.1292
16721W        W21121   6.533   1.463   9.827  0.1375  0.0803 -0.1451
16722W        W21122   4.610   6.611  19.146 -0.0251 -0.1326  0.0421
16723W        W21123  28.394   2.850   9.174 -0.2231  0.0999 -0.4614
16724W        W21124  26.756   0.780  10.168 -0.1932 -0.2861  0.0178
16725W        W21125   5.991   0.920   8.616 -0.1087 -0.5745  0.0309
16726W        W21126   1.299   6.527  21.985  0.1207 -0.0239  0.1627
16727W        W21127   1.482   2.642  18.868 -0.0123  0.1531  0.3231
16728W        W21128  24.101   5.862  23.685 -0.0388  0.0303  0.0179
16729W        W21129   4.316   6.781  21.492 -0.0317  0.0426  0.1904
16730W        W21130  29.774   5.375  10.617 -0.1488 -0.0339  0.0868
16731W        W21131  23.357   5.262  20.016  0.0341 -0.2057  0.0897
16732W        W21132  28.033   7.387   4.127 -0.0950 -0.1123  0.0595
16733W        W21133   5.667   5.537  17.122  0.3544  0.1371 -0.1957
16734W        W21134  23.076   1.224  22.500 -0.0836  0.2231  0.2506
16735W        W21135  19.295   0.115  20.137 -0.2264 -0.0136 -0.1231
16736W        W21136   5.612   2.318  15.926  0.0115 -0.0345  0.0732
16737W        W21137  16.798   5.303   9.721  0.1981 -0.0306  0.0203
16738W        W21138   5.471   0.335   4.568 -0.0967  0.0782  0.0286
16739W        W21139  11.583   5.959   5.174 -0.2659  0.2273  0.0713
16740W        W21140  15.187   7.799  24.742 -0.0763 -0.0614 -0.0800
16741W        W21141   1.306   5.024  20.851 -0.0141  0.0305 -0.1150
16742W        W21142   1.488   1.362   8.024  0.1152 -0.2254  0.2268
16743W        W21143   3.567   0.935  17.956 -0.0551  0.0870  0.0959
16744W        W21144   7.654   4.478  20.966  0.0979 -0.2365 -0.1343
16745W        W21145   4.113   0.430   5.737 -0.3433  0.0213  0.0870
16746W        W21146  12.327   4.112   1.778 -0.3117  0.2162  0.0437
16747W        W21147  13.308   0.247   7.033 -0.1611  0.1306 -0.1518
16748W        W21148  30.342   6.086  22.373 -0.0391  0.1089 -0.0352
16749W        W21149   7.015   3.504  25.321  0.1322 -0.0006  0.0167
16750W        W21150  20.192   2.928   2.521  0.2121  0.1057  0.1675
16751W        W21151  14.587   3.798  20.944  0.0869 -0.2593 -0.3710
16752W        W21152  13.362   2.550  18.960 -0.3439  0.0725 -0.1733
16753W        W21153  30.147   2.701  20.416  0.1014  0.1996  0.2446
16754W        W21154  19.367   3.474  17.009  0.1829 -0.1206 -0.1230
16755W        W21155   7.715   1.845  18.558 -0.0336 -0.3465 -0.1109
16756W        W21156  25.359   6.079  18.875  0.1889  0.0758  0.2839
16757W        W21157  17.266   0.868   7.419 -0.5004  0.1248  0.0816
16758W        W21158  18.388   0.836  25.268 -0.1088 -0.2824  0.1515
16759W        W21159  30.894   3.221   3.474  0.1600 -0.0891 -0.0696
16760W        W21160  22.126   2.639   0.474 -0.0104  0.1104  0.0420
16761W        W21161  24.653   2.368   5.590  0.0895 -0.2123 -0.0436
16762W        W21162  13.316   3.516   1.615 -0.0462  0.0908 -0.0993
16763W        W21163  30.569   5.997  21.438 -0.1647  0.0712 -0.2531
16764W        W21164   4.294   7.553   4.867 -0.0055 -0.1557  0.1400
16765W        W21165   6.022   4.728   4.191  0.0250 -0.1340  0.2624
16766W        W21166  12.920   7.196  10.506 -0.0226 -0.0045  0.0850
16767W        W21167  30.119   6.072   5.901  0.1026  0.0858  0.0068
16768W        W21168   9.110   0.539   4.034 -0.0820 -0.4405 -0.0313
16769W        W21169  17.066   0.382   1.185  0.0438  0.2039  0.1267
16770W        W21170  14.982   1.183  10.838 -0.1151 -0.1453  0.1588
16771W        W21171  22.037   0.095   1.072 -0.3578 -0.2425  0.1948
16772W        W21172  18.877   4.443  10.848  0.1168  0.0493 -0.0093
16773W        W21173  18.630   0.698  18.055  0.0236  0.2027 -0.1679
16774W        W21174  10.374   7.636  14.693  0.1385 -0.2560 -0.1772
16775W        W21175   4.167   3.886  20.715 -0.0411 -0.1132  0.2050
16776W        W21176   8.016   1.077   4.027 -0.0621 -0.0291 -0.1440
16777W        W21177   3.010   4.252  18.165 -0.2066 -0.0797  0.0984
16778W        W21178  28.414   6.737   8.238 -0.0896 -0.2473  0.0757
16779W        W21179  13.836   3.946   7.011 -0.1263  0.2774 -0.0046
16780W        W21180   7.754   2.285  17.188 -0.0334  0.0736  0.1787
16781W        W21181  23.232   4.579  25.070  0.1656  0.1866  0.0860
16782W        W21182  23.906   5.717  20.665 -0.0688 -0.1967  0.4469
16783W        W21183   7.024   5.766   2.776  0.0455 -0.0181 -0.0232
16784W        W21184  29.652   4.173   4.043  0.2525  0.0629 -0.0009
16785W        W21185  11.923   3.043   9.519 -0.1628 -0.1271  0.0882
16786W        W21186   4.646   1.921   9.658  0.3101  0.0781 -0.1176
16787W        W21187  11.367   5.805   2.153  0.1525  0.0300  0.4633
16788W        W21188  16.864   4.204  15.516  0.0854 -0.0398 -0.1777
16789W        W21189  28.465   3.579  22.043 -0.0340  0.1218 -0.0478
16790W        W21190  16.988   0.425  10.661  0.1204 -0.0432 -0.2963
16791W        W21191  19.921   4.980   7.531 -0.0304  0.1653  0.3503
16792W        W21192   6.741   2.175  18.787  0.0693  0.4370 -0.1607
16793W        W21193   7.487   2.834   6.434 -0.1472  0.0409 -0.0912
16794W        W21194  27.590   1.239  15.540 -0.0876 -0.0827 -0.1504
16795W        W21195  13.793   5.807   0.557  0.0339 -0.1598  0.0725
16796W        W21196   3.363   2.177  16.424  0.2138  0.3737 -0.1216
16797W        W21197  21.051   0.720  24.267  0.2456 -0.2006  0.1637
16798W        W21198   0.749   1.263  20.021 -0.2663 -0.2113  0.1948
16799W        W21199  27.151   4.247  16.684  0.2055  0.1599 -0.2617
16800W        W21200  13.015   0.252  19.388 -0.2329  0.0874 -0.2304
16801W        W21201  11.671   1.104   6.309  0.2236  0.1207  0.1569
16802W        W21202  10.921   2.234  25.867  0.1529 -0.2813 -0.0586
16803W        W21203   6.845   2.752  22.922 -0.0683  0.2483 -0.3545
16804W        W21204  27.341   2.701  21.573  0.0689 -0.0264 -0.2522
16805W        W21205  13.757   1.472  10.184  0.1599 -0.1868  0.0831
16806W        W21206  14.070   3.297  23.799 -0.0751  0.0090  0.2058
16807W        W21207  18.178   0.344  24.451 -0.0418 -0.2622 -0.4366
16808W        W21208  30.140   1.435   1.148  0.0903 -0.1148 -0.1154
16809W        W21209  11.604   4.943   4.963 -0.2461 -0.0938 -0.0988
16810W        W21210   7.975   1.553   8.135 -0.2124 -0.2908  0.2350
16811W        W21211  18.150   7.668  17.432  0.0666 -0.0691 -0.0969
16812W        W21212  19.458   6.446   1.254  0.0106  0.2372  0.1199
16813W        W21213  14.380   1.316   3.130 -0.0511  0.0580 -0.1341
16814W        W21214  28.722   0.568  15.362  0.2190 -0.2248 -0.1536
16815W        W21215  21.315   2.838   8.650 -0.0122  0.0243 -0.0828
16816W        W21216  26.154   1.416  25.192 -0.1912 -0.0902  0.0114
16817W        W21217   2.822   6.067   3.119 -0.0342 -0.2873 -0.0192
16818W        W21218   9.980   4.201   7.527 -0.2730 -0.2119 -0.0622
16819W        W21219   7.525   2.769  19.072 -0.0193  0.1632 -0.1084
16820W        W21220  16.116   4.551   0.663 -0.0940  0.0204  0.0803
16821W        W21221   2.117   5.885  19.799 -0.4124  0.1232 -0.1954
16822W        W21222   2.435   0.029  25.394  0.0518  0.1386  0.3607
16823W        W21223   1.427   1.515  21.145 -0.2462  0.1448 -0.1606
16824W        W21224  12.775   6.120   1.365 -0.1070  0.2054  0.1381
16825W        W21225  11.124   0.784   3.877 -0.0210  0.0359 -0.0642
16826W        W21226   7.402   4.030   6.155 -0.0180 -0.0166 -0.1001
16827W        W21227  13.125   0.420  15.928 -0.1747 -0.2442 -0.0410
16828W        W21228  18.770   7.765  24.754 -0.1016 -0.2137 -0.1782
16829W        W21229  19.724   1.980  20.921  0.0926 -0.0253 -0.0573
16830W        W21230   9.144   4.590   9.805 -0.1883  0.2496 -0.1599
16831W        W21231  24.800   5.608   5.053 -0.1496  0.3394 -0.1954
16832W        W21232  25.413   4.041   5.630 -0.2120 -0.0009 -0.0656
16833W        W21233  17.679   7.497  24.452  0.0721 -0.1120  0.0111
16834W        W21234  17.466   4.739  22.013 -0.0991 -0.2617  0.0737
16835W        W21235  16.021   0.814   3.349  0.1844 -0.2096  0.1148
16836W        W21236  25.250   6.021  22.957  0.2034 -0.3225  0.0656
16837W        W21237  13.521   2.339  16.340  0.1238  0.1864 -0.1268
16838W        W21238  10.381   3.260  19.392  0.1011 -0.0945  0.1042
16839W        W21239  14.252   2.491  16.515 -0.1309  0.2783  0.1828
16840W        W21240   6.120   0.800  24.072  0.3299 -0.0578  0.2813
16841W        W21241  23.960   5.354  17.658  0.0931  0.2349 -0.2550
16842W        W21242   5.627   0.769   2.422 -0.1426  0.3193  0.0272
16843W        W21243  19.826   1.617   3.738 -0.0833  0.1894 -0.1363
16844W        W21244  19.915   4.629   9.245 -0.0978 -0.0524  0.0893
16845W        W21245  17.589   2.949  24.429  0.3484 -0.1463  0.0049
16846W        W21246  29.973   6.133  25.160 -0.0166  0.1197  0.1877
16847W        W21247  27.044   1.469   3.304  0.1048  0.0245 -0.2767
16848W        W21248  13.811   1.019  17.680  0.0483  0.0715  0.0602
16849W        W21249   7.304   2.167  15.481 -0.1756  0.2052 -0.0308
16850W        W21250   6.522   4.481   4.035  0.4470 -0.0728 -0.0487
16851W        W21251  18.908   1.532  22.078  0.0740  0.0402  0.1750
16852W        W21252  10.108   7.445  22.295 -0.4289 -0.0769  0.0085
16853W        W21253  12.568   5.699  15.643 -0.0937 -0.1561  0.1311
16854W        W21254   7.795   3.361   3.745 -0.3259  0.4554  0.1613
16855W        W21255  22.198   2.792   5.289 -0.3213 -0.0389 -0.2107
16856W        W21256  29.480   1.730   5.747  0.3787  0.2349  0.1606
16857W        W21257  31.284   7.452  20.517 -0.1026  0.1455  0.3814
16858W        W21258  14.338   4.979  21.182  0.1383 -0.1331  0.2033
16859W        W21259   1.501   1.950  17.650 -0.0066 -0.3309 -0.0599
16860W        W21260  27.516   3.638  19.539 -0.2900  0.1188  0.1208
16861W        W21261   1.603   7.804  21.889  0.0636  0.0440  0.2424
16862W        W21262  28.779   6.601   3.445 -0.1165 -0.2354  0.0938
16863W        W21263  24.860   7.855  10.093  0.2609 -0.1763 -0.0266
16864W        W21264  29.964   5.114  21.279 -0.0999 -0.0975  0.1614
16865W        W21265  14.481   3.772  16.234 -0.1345  0.0831  0.2013
16866W        W21266   6.898   0.293  19.731  0.2340  0.0665  0.0334
16867W        W21267  22.325   3.253   5.670  0.1609  0.5037 -0.0210
16868W        W21268  16.194   2.276  22.489 -0.0615 -0.0776 -0.0897
16869W        W21269  18.100   2.962   0.595 -0.1616  0.2638  0.1617
16870W        W21270   4.039   7.446   9.142  0.0142  0.0432  0.1902
16871W        W21271   9.913   2.280  18.234 -0.0043  0.2580 -0.0595
16872W        W21272  23.599   7.432  10.538 -0.0742  0.0909 -0.0995
16873W        W21273  22.863   1.919  23.634 -0.0334  0.0184  0.3834
16874W        W21274   3.155   1.401  23.373  0.0653 -0.0708 -0.0817
16875W        W21275  20.532   6.833  18.250  0.1967  0.0752 -0.3137
16876W        W21276  19.206   4.173  25.975 -0.2146  0.0270 -0.3047
16877W        W21277   6.465   2.996  16.402  0.1337 -0.2913 -0.1744
16878W        W21278  16.350   3.396  21.853 -0.1228 -0.0040  0.0558
16879W        W21279  15.224   3.873   4.634 -0.2435 -0.1609 -0.0355
16880W        W21280  22.741   5.225   2.369  0.3507 -0.0749 -0.0403
16881W        W21281  28.151   4.243   1.298  0.0469  0.2150 -0.2294
16882W        W21282  14.752   5.359  16.566  0.0708 -0.1131 -0.3152
16883W        W21283  19.161   6.421  21.572  0.1813  0.1423 -0.2756
16884W        W21284  28.859   0.233  19.509  0.0395  0.0745 -0.2087
16885W        W21285  12.416   6.266  20.274 -0.1343  0.1826  0.0217
16886W        W21286  16.420   7.655  15.987 -0.2109 -0.4879  0.1666
16887W        W21287  27.749   5.611  24.382 -0.0404 -0.2868  0.0884
16888W        W21288   7.084   7.694   8.246 -0.0569  0.0181  0.2126
16889W        W21289   1.480   0.338   5.753 -0.0225  0.1039  0.1524
16890W        W21290   7.409   1.892  25.586 -0.2023 -0.1649 -0.0640
16891W        W21291  22.805   6.108   6.309  0.0322  0.0870  0.1908
16892W        W21292  10.834   6.206   3.372  0.5036 -0.0213 -0.2081
16893W        W21293  22.647   5.480   3.734  0.3637 -0.2047 -0.1512
16894W        W21294  23.871   3.676   4.415 -0.1975  0.1312  0.1018
16895W        W21295  23.612   5.144  17.355 -0.0812  0.0340 -0.1678
16896W        W21296   2.145   5.766  24.128  0.0296  0.1416 -0.0043
16897W        W21297   1.197   5.346   9.725 -0.1719  0.3303  0.1890
16898W        W21298  29.690   2.757   2.717 -0.0549  0.4895 -0.2038
16899W        W21299  27.551   3.700   5.898 -0.0881  0.0883 -0.3279
16900W        W21300  22.561   4.473  18.167  0.3273 -0.0714  0.1781
16901W        W21301   5.483   1.936   3.787  0.1828  0.0395  0.2940
16902W        W21302  12.228   2.917  24.040  0.2983 -0.0312 -0.1931
16903W        W21303  17.939   1.177  15.740  0.0323  0.1901 -0.1848
16904W        W21304  23.735   7.517  18.025  0.0586  0.0728 -0.1546
16905W        W21305  19.326   4.384  23.907  0.0596 -0.1971 -0.4899
16906W        W21306  14.329   3.401   0.394  0.0695  0.1987  0.1704
16907W        W21307  18.161   2.929  25.454  0.2033 -0.0809 -0.1667
16908W        W21308  23.652   4.222  25.672 -0.0622  0.2016  0.0356
16909W        W21309   6.890   1.851  23.210 -0.0117  0.1653 -0.1823
16910W        W21310  15.744   6.886   0.638  0.0574 -0.0341 -0.0749
16911W        W21311  14.037   1.879   0.761 -0.0494 -0.0475 -0.1957
16912W        W21312  14.986   2.249  16.055 -0.1250 -0.4360  0.2285
16913W        W21313   8.531   5.076  23.941 -0.1580  0.2063 -0.3502
16914W        W21314   3.612   5.105  18.862  0.0097  0.1136 -0.1737
16915W        W21315  28.686   0.236  16.105  0.1292 -0.0113 -0.0477
16916W        W21316   5.114   0.288   6.637  0.0752 -0.0947 -0.2924
16917W        W21317  29.181   5.959   5.591  0.1230 -0.0779 -0.1900
16918W        W21318  10.363   0.416  20.662 -0.0542  0.0304 -0.0988
16919W        W21319  15.910   1.534   2.177 -0.0737  0.2411  0.0663
16920W        W21320   0.634   7.476  16.316  0.1812 -0.1317  0.0174
16921W        W21321  21.844   2.743   6.072  0.0087 -0.1243 -0.0123
16922W        W21322  21.225   3.237   1.205 -0.2125  0.0829 -0.0437
16923W        W21323  25.618   7.547  16.089  0.1231 -0.0643 -0.1339
16924W        W21324  30.043   6.282  14.361  0.0320  0.0403 -0.3033
16925W        W21325  23.056   7.128  25.284 -0.2123 -0.0190  0.0705
16926W        W21326   9.581   4.484  25.724  0.1234  0.3467 -0.2121
16927W        W21327   6.783   1.703   1.682  0.1333  0.0557  0.1133
16928W        W21328  24.045   7.858  19.925  0.5278  0.0130 -0.1604
16929W        W21329  24.157   1.490   0.361 -0.0096  0.4360  0.1234
16930W        W21330  11.094   6.684  19.743 -0.0218 -0.0753 -0.1723
16931W        W21331   0.148   3.595  14.856  0.1080  0.0390  0.4771
16932W        W21332  15.221   1.697  10.057  0.0725  0.1458 -0.0943
16933W        W21333   6.370   2.043   0.061 -0.0481  0.2473  0.1055
16934W        W21334  30.224   5.382   7.046  0.0269 -0.0133  0.1338
16935W        W21335  19.037   0.114  19.430  0.1548 -0.0479  0.3055
16936W        W21336   3.613   2.728   4.270 -0.1713  0.0067 -0.1611
16937W        W21337   5.154   3.099   1.122 -0.2991 -0.0385 -0.1737
16938W        W21338  15.422   4.983  20.371  0.0808 -0.1045  0.2897
16939W        W21339   8.854   2.599   1.758 -0.0201  0.1556  0.0495
16940W        W21340  26.965   3.413  23.050  0.1279 -0.1381  0.0394
16941W        W21341  25.668   1.015  19.042 -0.0614  0.2272  0.0748
16942W        W21342  13.416   4.165  20.195 -0.0260  0.0524 -0.1244
16943W        W21343   5.379   4.266   9.197 -0.3508  0.2996  0.2351
16944W        W21344  26.789   0.438   4.325  0.1718  0.1286 -0.2500
16945W        W21345  27.436   2.931  24.249 -0.3304  0.0946 -0.2808
16946W        W21346   8.446   0.778   8.986 -0.1222  0.2351  0.0097
16947W        W21347   0.795   7.568   1.984  0.1719 -0.2758 -0.1223
16948W        W21348  17.820   3.691  20.679 -0.1883  0.0540 -0.1102
16949W        W21349  24.878   4.768  22.413  0.1607  0.1312  0.0232
16950W        W21350   3.539   5.549   9.632  0.0811 -0.0503  0.0067
16951W        W21351   7.205   4.338   6.948  0.2492  0.3219  0.1804
16952W        W21352  16.007   1.474  19.077 -0.1842  0.0212 -0.1255
16953W        W21353  13.814   3.141  21.787  0.0309 -0.0782 -0.2288
16954W        W21354  21.820   0.332  10.563 -0.0001  0.1417 -0.1617
16955W        W21355  15.888   1.203   3.836 -0.0941  0.0883 -0.1096
16956W        W21356  17.672   7.538   4.026  0.1766 -0.1833  0.2599
16957W        W21357   1.645   0.303  22.285 -0.3112  0.1309 -0.0185
16958W        W21358   7.141   7.694  20.932 -0.1030  0.0679  0.2966
16959W        W21359   8.269   7.761  24.253  0.0659  0.2371 -0.1664
16960W        W21360  23.252   2.551  23.985 -0.1879  0.1953  0.0047
16961W        W21361   2.899   1.117  10.425  0.1103 -0.2265 -0.0278
16962W        W21362  19.795   4.057  24.844  0.1769  0.1386  0.0976
16963W        W21363   5.767   6.497  20.079  0.1615  0.1886  0.2863
16964W        W21364  29.423   6.911  17.242 -0.0266  0.3992  0.0245
16965W        W21365  23.619   4.650   6.276  0.1303  0.1523  0.0474
16966W        W21366   6.918   5.400   7.103 -0.0989  0.0485  0.2946
16967W        W21367  26.154   4.294   6.814 -0.0546  0.1805  0.2453
16968W        W21368  22.638   2.820   8.536 -0.0860 -0.2186 -0.2056
16969W        W21369  28.709   4.484   8.135 -0.0463 -0.1503 -0.1740
16970W        W21370   7.173   5.047  17.677 -0.0336  0.1570 -0.1129
16971W        W21371  26.656   1.111  19.830  0.0417  0.0440 -0.0865
16972W        W21372  25.431   4.574   1.094  0.2386 -0.1740 -0.1055
16973W        W21373  18.501   0.564   4.951  0.0680  0.2179 -0.1955
16974W        W21374  26.288   1.537  23.953  0.2954 -0.1945 -0.2600
16975W        W21375  17.902   7.661   7.381  0.2955 -0.1151  0.1904
16976W        W21376   0.499   0.439  14.399  0.0323 -0.0868 -0.0355
16977W        W21377   7.646   2.389   5.249  0.3043 -0.0672  0.0754
16978W        W21378   5.415   0.419  18.228  0.2004 -0.2164  0.1384
16979W        W21379  31.110   5.412  19.312 -0.0545 -0.0719 -0.0069
16980W        W21380   2.457   2.445   7.342 -0.0917  0.1130 -0.0809
16981W        W21381  16.495   4.196  23.242  0.0181 -0.1068 -0.4004
16982W        W21382  29.225   1.309   2.493  0.0640  0.2666  0.0286
16983W        W21383  23.571   5.054  21.592  0.4002 -0.1865 -0.1516
16984W        W21384  22.272   7.155   0.190  0.0435  0.2113  0.0027
16985W        W21385  25.856   5.415   5.438 -0.0896 -0.0309 -0.3173
16986W        W21386   2.098   6.765  25.318 -0.0454 -0.2428  0.0507
16987W        W21387  25.930   1.092   2.510 -0.0347 -0.1645 -0.1969
16988W        W21388  15.010   0.145  24.309 -0.1313  0.1172 -0.1786
16989W        W21389   1.522   5.232  10.786  0.1475  0.1410 -0.0626
16990W        W21390  30.161   2.610  23.205  0.2626 -0.2060 -0.0092
16991W        W21391   5.668   2.630   8.713 -0.1939  0.0303  0.1793
16992W        W21392   0.901   2.781  14.662 -0.0460 -0.0435 -0.1730
16993W        W21393  30.150   0.089  19.778  0.1840 -0.1337 -0.2226
16994W        W21394  30.511   1.202  15.067 -0.5608 -0.1773 -0.0349
16995W        W21395  20.565   6.346  20.643 -0.0837 -0.1311 -0.2000
16996W        W21396   5.321   7.440  20.310 -0.2310  0.0509 -0.0003
16997W        W21397  13.784   2.751  17.506  0.0731 -0.1595 -0.0112
16998W        W21398   7.123   2.696  25.704 -0.1167 -0.2233 -0.0907
16999W        W21399  29.672   7.079  10.540 -0.0444 -0.0448  0.0029
17000W        W21400  25.238   5.483   4.884  0.3395 -0.1294  0.1004
17001W        W21401   7.721   2.241   7.071  0.0438 -0.0127  0.1089
17002W        W21402   6.731   6.194   9.389 -0.2617  0.0099 -0.0012
17003W        W21403  18.481   2.094  19.314 -0.0308  0.2381  0.0196
17004W        W21404   0.925   4.065  18.519  0.0470  0.1394 -0.0416
17005W        W21405  31.152   3.960   4.801  0.0198 -0.1343  0.0270
17006W        W21406  19.529   4.763  25.559  0.1051  0.0454 -0.0030
17007W        W21407  27.416   3.958   3.560 -0.3589 -0.1596  0.3302
17008W        W21408  20.656   2.790   1.626 -0.1654 -0.0862 -0.3692
17009W        W21409  29.537   4.747   8.528  0.0259 -0.0405 -0.3293
17010W        W21410  30.229   1.728  19.590  0.0670  0.1248  0.0391
17011W        W21411  22.193   7.267   3.303  0.3156 -0.2336 -0.0028
17012W        W21412   3.409   0.196  15.646 -0.2455  0.1637  0.1849
17013W        W21413   7.358   5.113   7.513 -0.1621 -0.0518 -0.1029
17014W        W21414  25.774   0.160  17.359 -0.1089  0.1142  0.1902
17015W        W21415  13.479   7.297   8.767 -0.0644 -0.2610  0.1429
17016W        W21416  14.077   0.514   1.500  0.0172 -0.2130  0.0973
17017W        W21417   1.817   6.540  22.279  0.1269  0.2107  0.0050
17018W        W21418  14.672   3.292  17.082 -0.0501  0.2188  0.1294
17019W        W21419   6.002   5.908   6.087  0.0159  0.2766  0.1749
17020W        W21420  18.554   2.531   9.053  0.0137 -0.2009  0.0518
17021W        W21421   9.364   4.318   3.075  0.1499  0.4146  0.1591
17022W        W21422  30.865   6.483   3.139 -0.1614 -0.0949 -0.2534
17023W        W21423   4.321   4.138  25.586 -0.1403  0.0125 -0.0366
17024W        W21424  11.004   5.449   2.008  0.0701 -0.3249 -0.3591
17025W        W21425  20.027   6.693   0.602  0.2686  0.1811 -0.0865
17026W        W21426  13.359   2.215   1.974  0.0743  0.1901  0.0190
17027W        W21427   0.563   1.686   8.415 -0.0307 -0.0991 -0.0297
17028W        W21428  27.187   1.821  18.556 -0.0769  0.1455 -0.0302
17029W        W21429   9.811   2.237   8.074  0.1966 -0.0444 -0.1961
17030W        W21430   5.559   3.573   8.414 -0.0006 -0.1820 -0.1630
17031W        W21431  18.969   2.358  21.040  0.2187  0.0060 -0.3589
17032W        W21432   8.628   6.361  17.419 -0.2028 -0.1512 -0.2379
17033W        W21433  28.026   6.516  23.772 -0.0368 -0.1200  0.2469
17034W        W21434  30.706   5.690  22.306 -0.0482  0.0608 -0.2141
17035W        W21435  10.790   7.154  20.389  0.0221  0.2028  0.3149
17036W        W21436   1.516   4.106  19.173  0.0469  0.1793 -0.0611
17037W        W21437  24.217   3.357  20.731  0.2121  0.0794  0.0015
17038W        W21438  27.569   3.171   5.092  0.2945  0.1021 -0.1246
17039W        W21439   4.042   3.648  16.767  0.2526 -0.0203  0.2067
17040W        W21440  27.189   2.521  24.520  0.0013  0.0459 -0.3607
17041W        W21441  27.467   0.019  18.657 -0.1277 -0.0416  0.2479
17042W        W21442  25.053   2.557  23.070  0.0365  0.0821  0.0396
17043W        W21443   0.155   0.215   5.687 -0.0213 -0.0420  0.3713
17044W        W21444  26.919   4.079  10.920 -0.2602  0.0054 -0.0030
17045W        W21445  21.736   1.601  17.141 -0.0871  0.1937 -0.0156
17046W        W21446   7.722   1.410  14.423  0.1002 -0.4353 -0.0046
17047W        W21447  17.877   6.084  24.878  0.0539 -0.0052 -0.0682
17048W        W21448   1.998   6.797   2.397  0.1656 -0.0928  0.2334
17049W        W21449  26.538   5.606   3.157 -0.3048  0.2302  0.2633
17050W        W21450  19.602   4.504   4.819  0.0112  0.0267 -0.1610
17051W        W21451  18.852   5.404   5.533 -0.2447  0.3211 -0.1648
17052W        W21452  19.430   3.961  16.099 -0.0492 -0.0697 -0.0543
17053W        W21453   2.170   0.496  23.511  0.1923  0.2446 -0.0687
17054W        W21454  14.985   0.608   2.086  0.1108  0.0989 -0.5756
17055W        W21455   5.997   6.423   8.268  0.1146 -0.0504  0.2458
17056W        W21456   6.046   5.802   4.125  0.1151 -0.1656  0.3073
17057W        W21457   5.475   4.862   5.592  0.2133 -0.0606 -0.2020
17058W        W21458  17.418   0.595  25.280  0.1294 -0.0810 -0.0181
17059W        W21459  17.427   5.557   5.109 -0.3520  0.1750  0.2145
17060W        W21460  29.931   5.325   3.092 -0.1548 -0.0072  0.2344
17061W        W21461  31.016   1.915   5.902 -0.0193  0.0900 -0.1280
17062W        W21462   3.079   2.847  15.381  0.4431  0.1541 -0.2319
17063W        W21463  26.780   4.562   8.676 -0.0390 -0.0230  0.0052
17064W        W21464  29.155   7.528   4.472 -0.1865  0.0548  0.1814
17065W        W21465  24.507   3.236   7.552  0.1356 -0.1549 -0.1011
17066W        W21466  31.202   5.985   9.735  0.0698 -0.0803 -0.1036
17067W        W21467   7.785   3.846  22.146  0.2985  0.2039 -0.1314
17068W        W21468  11.891   4.509  23.116  0.0194  0.1412 -0.0813
17069W        W21469  26.791   2.757  17.850  0.0855 -0.1561  0.0885
17070W        W21470   3.122   5.338  21.256  0.4502  0.0997 -0.2214
17071W        W21471  12.405   4.100   7.059  0.2042 -0.1085  0.0392
17072W        W21472  12.626   0.650  21.095 -0.2127  0.0377  0.0131
17073W        W21473   7.826   6.058  22.745  0.3485  0.2092 -0.4858
17074W        W21474   0.200   1.181  19.262 -0.1329  0.0695  0.1679
17075W        W21475   1.625   0.688  16.872 -0.1060 -0.2377 -0.1680
17076W        W21476   8.518   2.354  23.828  0.0096 -0.0470 -0.1805
17077W        W21477  20.008   0.922   9.217  0.0621  0.1338  0.1434
17078W        W21478  30.831   7.655  22.438 -0.4112 -0.2545  0.3119
17079W        W21479  12.706   6.840   8.832 -0.3111 -0.0744 -0.0361
17080W        W21480  11.726   3.508  15.831 -0.0999 -0.2373 -0.1429
17081W        W21481  24.738   0.916  18.954  0.0117  0.0560 -0.3337
17082W        W21482   6.154   4.457  24.647 -0.0651 -0.3220 -0.1757
17083W        W21483  11.558   4.892  21.765 -0.3140 -0.2261 -0.2051
17084W        W21484  16.060   0.583  16.879  0.0150  0.2490 -0.1476
17085W        W21485  25.900   6.332   1.509  0.2950 -0.3789  0.0167
17086W        W21486   4.306   0.649  23.791  0.1099 -0.0296 -0.0476
17087W        W21487   3.239   6.304   5.364 -0.0800 -0.0637  0.0465
17088W        W21488  26.110   4.689  19.087  0.5814  0.2843  0.2499
17089W        W21489  27.486   7.559   7.828 -0.0354  0.0033  0.0915
17090W        W21490  31.017   5.156  23.359  0.0338  0.2740 -0.0423
17091W        W21491  24.183   1.902   2.618 -0.1262 -0.1207  0.0272
17092W        W21492   9.957   5.162   5.303  0.2376  0.0376  0.1362
17093W        W21493  26.913   2.217  25.219  0.2597 -0.0056  0.1162
17094W        W21494   4.066   0.485   9.480  0.2051 -0.4182 -0.1897
17095W        W21495  16.921   1.800  20.472 -0.1905  0.2175  0.0266
17096W        W21496  19.867   4.908  23.347  0.1455  0.0618  0.1672
17097W        W21497  15.955   7.386  19.522  0.1495 -0.0405  0.1054
17098W        W21498  20.602   2.679   5.613 -0.0875 -0.1434 -0.0572
17099W        W21499  14.988   1.867   2.795 -0.1253 -0.0767 -0.1758
17100W        W21500   8.898   4.758   9.329 -0.0685  0.2489 -0.0326
17101W        W21501  23.408   0.464  23.959 -0.0665  0.0421  0.0238
17102W        W21502   0.977   6.147  17.838 -0.1936  0.2791  0.2225
17103W        W21503   5.982   1.165  22.702 -0.0644  0.1919 -0.0692
17104W        W21504  10.212   6.427  24.769  0.1112  0.2127 -0.1267
17105W        W21505  25.056   3.961   4.725  0.1946  0.1722 -0.0827
17106W        W21506  17.816   1.991  18.134 -0.0535 -0.3149 -0.1072
17107W        W21507   9.890   7.731   4.005  0.1221 -0.1557 -0.1250
17108W        W21508   9.226   7.820  20.526  0.2409 -0.0093 -0.0491
17109W        W21509  19.141   2.892   9.036  0.3569  0.1382 -0.4457
17110W        W21510  23.212   6.455  15.555 -0.0127 -0.0751 -0.1587
17111W        W21511  27.620   2.768   9.870  0.0302  0.4062  0.0824
17112W        W21512  28.570   5.816  25.810 -0.0366  0.1664  0.0044
17113W        W21513  16.111   0.555   1.224 -0.3483  0.0196  0.3932
17114W        W21514  10.398   6.315  16.386 -0.5622 -0.1821  0.2849
17115W        W21515  14.383   0.333   5.661  0.1276 -0.0052  0.1901
17116W        W21516   4.294   4.152  16.667  0.0555  0.2783  0.1619
17117W        W21517  31.242   2.913  14.449  0.0227 -0.1032  0.0276
17118W        W21518  17.993   5.352  23.404  0.1414 -0.3980 -0.1586
17119W        W21519  29.547   6.973   6.656 -0.0238  0.1292 -0.1903
17120W        W21520   6.820   6.713  22.163  0.0879 -0.1457  0.2711
17121W        W21521  26.354   6.124  17.425 -0.0752  0.0893 -0.0034
17122W        W21522  28.755   0.572  19.967  0.1772  0.0969 -0.2271
17123W        W21523  13.746   3.108  15.831 -0.1746  0.0389  0.0784
17124W        W21524   1.010   4.642  16.072 -0.2212 -0.1101 -0.2489
17125W        W21525   2.831   2.073  23.411 -0.3301  0.0857 -0.3322
17126W        W21526   5.014   6.430  23.919 -0.1970 -0.1917  0.3927
17127W        W21527   5.091   0.606   2.804 -0.2560 -0.0052 -0.1556
17128W        W21528  11.570   2.827   7.708 -0.0775  0.1292  0.1357
17129W        W21529  24.057   5.910  10.632 -0.0578  0.1873  0.1233
17130W        W21530  29.715   5.491   3.473 -0.0803 -0.1628 -0.0121
17131W        W21531   2.865   0.219  19.037 -0.2574  0.0269 -0.1463
17132W        W21532  16.614   1.096   0.119  0.0506  0.0539  0.0716
17133W        W21533  26.348   0.493  24.073  0.0342 -0.0356  0.0726
17134W        W21534  17.421   3.672   1.145  0.0308 -0.0035 -0.1506
17135W        W21535  14.430   2.765  20.545  0.1388 -0.0669  0.4962
17136W        W21536  10.152   5.703  23.356 -0.0390 -0.0422  0.2723
17137W        W21537  19.587   3.023  10.731 -0.1040 -0.2441  0.1758
17138W        W21538  20.769   2.368   1.874  0.1677  0.0951  0.4937
17139W        W21539  16.817   5.277  10.244  0.0859 -0.2541 -0.0518
17140W        W21540   1.081   7.769   3.218 -0.3296  0.0792 -0.2520
17141W        W21541  21.762   1.416   7.527 -0.2071 -0.1538 -0.2758
17142W        W21542   5.522   2.009  19.272  0.2473  0.2465 -0.2098
17143W        W21543   3.440   6.508   2.278  0.0660 -0.0781 -0.0638
17144W        W21544  13.819   6.871   6.650 -0.0500 -0.2192  0.3528
17145W        W21545  12.081   7.501  23.131 -0.1776  0.1125 -0.1540
17146W        W21546  11.935   7.416  19.331  0.0019 -0.2752 -0.1054
17147W        W21547  22.915   5.881   3.666 -0.1143  0.2448 -0.2120
17148W        W21548  10.916   6.087  17.311  0.1874 -0.0413 -0.0817
17149W        W21549  10.884   6.535  22.385 -0.0257 -0.1954  0.1210
17150W        W21550  22.198   0.291   3.331 -0.3142 -0.0715 -0.4484
17151W        W21551  17.220   3.727  10.278  0.0960 -0.0759  0.4080
17152W        W21552  16.201   2.008   7.201 -0.2581 -0.1383  0.2600
17153W        W21553  30.638   2.596  10.622  0.0389 -0.3965  0.1480
17154W        W21554  19.411   3.817  22.217  0.0980 -0.1586 -0.1152
17155W        W21555  11.494   6.579  21.624 -0.0851  0.2011 -0.0631
17156W        W21556  19.309   4.054  22.991 -0.0332 -0.1196 -0.0327
17157W        W21557  23.204   2.821   2.856 -0.2721 -0.0272  0.1439
17158W        W21558  28.537   1.264  17.972  0.4928  0.0494 -0.0783
17159W        W21559   0.074   1.577   5.106 -0.0356 -0.2469  0.0390
17160W        W21560   5.794   0.490   8.442 -0.0479  0.2171 -0.1242
17161W        W21561  23.044   1.719  24.531  0.1178 -0.1582 -0.0622
17162W        W21562   3.757   2.475   7.964  0.0726 -0.1467  0.0245
17163W        W21563  18.851   3.617  24.507  0.0232 -0.0742 -0.0464
17164W        W21564  27.717   6.191  21.154 -0.0979  0.1513 -0.0029
17165W        W21565  18.488   6.668   9.548 -0.3462  0.1073 -0.1937
17166W        W21566  15.065   2.801   2.722  0.1077 -0.1716  0.1890
17167W        W21567  17.910   7.333   1.046 -0.0104 -0.3257  0.2304
17168W        W21568  10.922   5.542   2.920 -0.1481 -0.1600 -0.1315
17169W        W21569  11.789   4.512   2.528 -0.1752 -0.0618 -0.2842
17170W        W21570  28.501   1.941  16.121 -0.0314 -0.3313  0.1348
17171W        W21571  27.096   2.404   6.257 -0.1009 -0.1169 -0.2733
17172W        W21572   9.647   6.817  11.498 -0.0881  0.0026  0.1602
17173W        W21573   6.100   6.064  16.189 -0.1976  0.1617  0.2073
17174W        W21574   1.989   1.800  16.674 -0.1841 -0.0125 -0.1261
17175W        W21575  25.024   7.424  17.464  0.2086  0.0902 -0.1299
17176W        W21576   2.834   6.755  18.436 -0.0619  0.1514 -0.2485
17177W        W21577  31.145   2.373   1.581  0.2518 -0.1847 -0.0320
17178W        W21578   7.206   5.400  22.434  0.0345 -0.0070 -0.1350
17179W        W21579  29.127   0.248   2.457  0.2682  0.0643 -0.0726
17180W        W21580   7.315   0.859  23.025 -0.0182 -0.1360 -0.1122
17181W        W21581  31.298   5.896   3.187  0.0650 -0.0814  0.4878
17182W        W21582  11.193   3.023  20.950 -0.2187  0.3880 -0.1277
17183W        W21583  15.422   5.551   9.965 -0.2452  0.2662  0.2121
17184W        W21584  24.085   6.233  17.813 -0.1637  0.3492  0.0663
17185W        W21585  18.380   6.532   6.594 -0.0267 -0.4082 -0.0266
17186W        W21586   9.689   0.725  22.854  0.0290  0.1591 -0.1153
17187W        W21587   3.410   1.372  20.048 -0.0458  0.0893  0.2949
17188W        W21588  18.250   7.631   9.413  0.0750  0.1064 -0.0380
17189W        W21589  25.848   3.950  14.811 -0.0322  0.0828 -0.0703
17190W        W21590  23.515   2.071  10.325  0.3756  0.0723  0.0835
17191W        W21591  26.593   4.072   8.620 -0.1337 -0.1848  0.0605
17192W        W21592   3.902   6.287  18.624  0.1495  0.0352 -0.1730
17193W        W21593  24.539   2.140  20.040  0.0704  0.1771  0.2000
17194W        W21594   6.861   6.470   8.009 -0.1055  0.0547 -0.2632
17195W        W21595   1.421   2.067  25.862  0.0153 -0.1378 -0.0792
17196W        W21596   2.058   1.446  19.403 -0.0430  0.1122  0.1487
17197W        W21597   0.340   6.069   6.506  0.1592  0.2683  0.1331
17198W        W21598   7.471   2.398  10.444 -0.1103  0.0792  0.2341
17199W        W21599  13.178   7.391  19.716 -0.3075 -0.0274 -0.2915
17200W        W21600   9.106   3.472   0.289  0.2071 -0.1073  0.0093
17201W        W21601  28.398   0.159   4.945 -0.1369  0.1442  0.1028
17202W        W21602   4.580   4.999   6.765 -0.0880  0.0669 -0.2252
17203W        W21603  16.619   3.144   9.089 -0.1935 -0.0499  0.1262
17204W        W21604  17.800   1.644   4.283  0.0697 -0.1448  0.0006
17205W        W21605  12.729   4.286   7.972  0.1139  0.0584 -0.0717
17206W        W21606  28.950   0.649  17.398 -0.0925  0.0575 -0.0694
17207W        W21607  26.691   2.281  20.112  0.0681 -0.2300  0.0216
17208W        W21608   1.987   5.387  19.142  0.2238 -0.1426  0.0874
17209W        W21609  12.476   7.459   7.046  0.1096  0.0386 -0.0364
17210W        W21610  31.184   4.188   7.069 -0.2191  0.1886  0.0958
17211W        W21611  16.986   3.166   5.810  0.3336  0.2914 -0.3273
17212W        W21612   5.644   5.884  15.161  0.2299 -0.0709 -0.1264
17213W        W21613  22.198   7.588  16.661 -0.0191  0.0201 -0.1634
17214W        W21614  29.885   3.424  20.770  0.1472 -0.0954 -0.2807
17215W        W21615   5.684   4.360  22.635 -0.1006  0.0096  0.0200
17216W        W21616  15.080   4.314   8.231  0.5229 -0.0318  0.0886
17217W        W21617  19.291   3.356  16.485 -0.2627 -0.0977 -0.0264
17218W        W21618   2.815   0.172   5.149 -0.3663  0.0524  0.1161
17219W        W21619  26.366   7.820   9.501  0.1134  0.0619  0.1765
17220W        W21620  19.871   1.320  18.838  0.1699  0.2134  0.2255
17221W        W21621  30.876   5.832   2.443  0.0328  0.0551  0.1097
17222W        W21622  19.493   0.133   2.417 -0.2636  0.0813  0.2514
17223W        W21623  14.072   1.534   1.891  0.0848 -0.0375 -0.3271
17224W        W21624  12.695   3.217   4.361  0.3511 -0.2241 -0.0586
17225W        W21625  28.826   1.021   9.261  0.0463 -0.1931  0.0911
17226W        W21626   4.355   2.829  17.575  0.2014 -0.1399  0.0571
17227W        W21627   0.191   1.482  18.572  0.0322 -0.1059 -0.2674
17228W        W21628  23.352   0.899  25.325  0.1082  0.0299 -0.2563
17229W        W21629   2.434   7.361  23.162  0.1257 -0.1454 -0.2126
17230W        W21630  18.658   0.063   1.452 -0.2294 -0.0208  0.0177
17231W        W21631  15.975   3.437  15.620 -0.0401 -0.0745 -0.5909
17232W        W21632  15.069   5.944  25.394  0.1055  0.5468  0.0719
17233W        W21633   4.604   0.899   6.117  0.0487 -0.1094 -0.0529
17234W        W21634   4.547   3.098  15.006  0.0472 -0.0519 -0.2451
17235W        W21635   7.008   1.340  15.268  0.0754 -0.0042 -0.0659
17236W        W21636  12.486   2.357  16.133 -0.0821 -0.0836 -0.0877
17237W        W21637  29.647   6.865  24.629  0.1858 -0.2657 -0.1451
17238W        W21638  21.395   1.821  20.810 -0.1068  0.1046  0.1135
17239W        W21639  19.872   2.122  18.137  0.0607  0.1902  0.1088
17240W        W21640  23.723   1.894  25.282 -0.0764  0.1026 -0.0084
17241W        W21641  13.585   0.405  24.425  0.3541 -0.3727 -0.0135
17242W        W21642   9.738   5.363  18.495  0.0736 -0.3213 -0.1048
17243W        W21643   4.705   1.040  23.129 -0.0020  0.2781 -0.2689
17244W        W21644  17.972   4.440  24.361  0.2438  0.1092 -0.1742
17245W        W21645  26.827   2.387  17.485 -0.0146  0.3250 -0.1413
17246W        W21646  23.044   3.322  17.689 -0.0567 -0.3230 -0.1204
17247W        W21647   7.751   0.229  17.102  0.1290  0.0144 -0.2004
17248W        W21648   6.417   6.442  19.047 -0.1261  0.2204  0.1849
17249W        W21649   6.031   1.804  20.054 -0.4250  0.0500 -0.2234
17250W        W21650   3.651   4.693  25.099 -0.1005  0.2326 -0.0629
17251W        W21651  19.906   1.723   6.175  0.0238  0.0284  0.3908
17252W        W21652  25.253   3.955   3.851 -0.1604 -0.0790  0.0211
17253W        W21653   3.832   6.269  10.066 -0.1586  0.0998 -0.0767
17254W        W21654   7.419   6.798  21.357  0.0787  0.1138  0.0606
17255W        W21655  19.964   6.019  23.212  0.3840  0.0427 -0.3186
17256W        W21656  14.540   4.294  18.060  0.1204  0.0005 -0.1355
17257W        W21657  16.231   5.664   4.893 -0.0782 -0.2116  0.2549
17258W        W21658  16.612   0.165  17.997  0.1247 -0.0638 -0.1654
17259W        W21659  10.268   2.059  18.495  0.1605 -0.3897 -0.0572
17260W        W21660  31.421   5.270   5.865  0.1000 -0.2089 -0.1311
17261W        W21661  28.952   7.606  24.334 -0.2738 -0.0919 -0.0225
17262W        W21662  30.282   3.026  20.697 -0.0749  0.1254  0.4381
17263W        W21663  26.427   6.589   0.040  0.2458 -0.1156  0.0599
17264W        W21664   5.507   3.180  23.356  0.2400 -0.3965  0.2169
17265W        W21665  12.746   3.765  21.383 -0.1683  0.2344 -0.2355
17266W        W21666  17.768   4.889   8.238  0.0835  0.0277 -0.2880
17267W        W21667  13.899   4.602  22.401  0.0463 -0.2553 -0.0312
17268W        W21668  28.446   1.792  19.452 -0.1213  0.1214 -0.0547
17269W        W21669  19.821   4.101   1.397 -0.0434  0.1979 -0.1231
17270W        W21670  24.614   3.580  17.804 -0.1500  0.2710 -0.1339
17271W        W21671   7.421   2.038   0.488 -0.4775  0.2429  0.2007
17272W        W21672   9.016   1.890  14.733  0.2635  0.3401  0.0024
17273W        W21673   3.250   6.986   4.680 -0.1003 -0.0389  0.1429
17274W        W21674   2.749   2.292  25.679 -0.1493 -0.2876 -0.0033
17275W        W21675  15.644   3.654  24.616 -0.1737  0.1354  0.2733
17276W        W21676   7.985   5.670  17.110 -0.0384 -0.0366 -0.2063
17277W        W21677  19.218   1.336  18.226 -0.2087 -0.1251  0.2445
17278W        W21678  18.989   2.569  25.281  0.3005  0.0384 -0.2609
17279W        W21679   3.677   6.382  25.327  0.2249  0.1101 -0.2175
17280W        W21680   6.811   3.945   8.723 -0.2543  0.1334 -0.1616
17281W        W21681  13.839   3.494   4.399 -0.3010  0.0070  0.3350
17282W        W21682  10.323   1.997  25.307 -0.1800  0.0073 -0.1797
17283W        W21683  14.673   2.773  18.635  0.1595 -0.0327 -0.1139
17284W        W21684  17.713   3.009  23.472  0.1093  0.0866  0.1142
17285W        W21685  22.540   1.674   9.587 -0.1489  0.2308  0.1927
17286W        W21686  26.502   3.801  17.197  0.0773  0.1175  0.1081
17287W        W21687   4.833   2.522   0.858 -0.0733  0.2702  0.0867
17288W        W21688  26.186   7.480  16.859 -0.0596  0.1011  0.2581
17289W        W21689   0.940   1.340  16.326  0.1524 -0.1378 -0.2974
17290W        W21690  28.040   2.049   7.996  0.0348  0.0764  0.1487
17291W        W21691  14.482   3.249  20.684  0.0068  0.4391  0.0957
17292W        W21692   6.301   0.891  15.903  0.0598  0.0690  0.1257
17293W        W21693   0.429   5.770   4.325  0.0503 -0.0777  0.0570
17294W        W21694   4.436   7.388  16.927 -0.1658 -0.0974 -0.3836
17295W        W21695   7.385   5.293   7.003  0.0438 -0.0193  0.1434
17296W        W21696  30.130   2.987  25.019  0.2604 -0.1842 -0.2907
17297W        W21697  15.867   7.603  17.818 -0.1350  0.0809  0.0818
17298W        W21698  22.341   4.818  20.526  0.2415 -0.0814  0.3312
17299W        W21699  24.377   2.761  16.655  0.0397  0.3270 -0.1443
17300W        W21700   9.636   1.725   5.227  0.0752  0.1254 -0.1590
17301W        W21701  27.594   4.865  20.171 -0.0994  0.2046 -0.0471
17302W        W21702  21.710   3.329   4.632 -0.0325  0.0283  0.1358
17303W        W21703  15.205   4.146  21.920 -0.3270 -0.1628 -0.0527
17304W        W21704   1.206   7.609  25.563  0.0448 -0.0059 -0.0561
17305W        W21705   3.453   0.453   8.933  0.0532  0.0427  0.0612
17306W        W21706  17.662   0.342   2.174  0.0565 -0.1408 -0.1854
17307W        W21707  26.782   2.963  17.014 -0.2139 -0.0400  0.1299
17308W        W21708   2.335   4.260   0.738 -0.3194 -0.0363  0.1642
17309W        W21709  11.465   5.334  24.759 -0.0932  0.1794  0.0659
17310W        W21710  11.216   1.183   1.026 -0.1314  0.0353 -0.2816
17311W        W21711  11.638   6.849   4.365  0.0022  0.1127  0.2301
17312W        W21712  23.479   6.973   5.455  0.3441 -0.3800 -0.2403
17313W        W21713  29.236   5.316   7.127 -0.4130 -0.0873  0.0306
17314W        W21714   6.623   3.096   4.153 -0.0653 -0.1016 -0.1638
17315W        W21715  16.727   5.214  17.347 -0.0493 -0.0225 -0.0926
17316W        W21716   1.534   5.271   8.514  0.2392  0.1161 -0.0193
17317W        W21717  21.758   0.519  20.817  0.3649 -0.1804  0.2165
17318W        W21718   2.784   6.207  20.326  0.2068 -0.4592  0.0554
17319W        W21719  17.642   5.212   6.424 -0.2627  0.2392  0.1604
17320W        W21720  18.932   4.718  17.638  0.0842 -0.2076  0.1449
17321W        W21721  27.830   0.814  24.684 -0.0317 -0.1636  0.0381
17322W        W21722   8.217   3.516  24.785  0.2197  0.1814 -0.1800
17323W        W21723  31.124   5.477  22.737 -0.0783  0.1346  0.2950
17324W        W21724  13.404   3.024   1.316 -0.0616  0.1654 -0.0628
17325W        W21725   7.429   0.822   7.145  0.2427  0.0149  0.0850
17326W        W21726  12.837   1.850  20.268 -0.2884 -0.0776 -0.1109
17327W        W21727  15.161   4.837  19.871 -0.0276 -0.2327 -0.1813
17328W        W21728   1.500   7.478   4.444 -0.0036  0.0888 -0.3200
17329W        W21729   8.434   5.927   3.046  0.0745 -0.1426 -0.1589
17330W        W21730   6.712   0.394  22.584  0.2778 -0.0002 -0.1008
17331W        W21731  11.036   2.755  15.583 -0.0734 -0.0067 -0.0033
17332W        W21732  17.316   0.282   8.553  0.0192  0.0733  0.0999
17333W        W21733  18.350   5.647   0.888 -0.0355  0.0109  0.0632
17334W        W21734   7.229   0.592   0.376 -0.0918 -0.0075 -0.2184
17335W        W21735  15.247   5.206  25.758 -0.0816  0.1314 -0.3363
17336W        W21736  22.936   1.746   0.192 -0.2158  0.1970  0.0688
17337W        W21737   7.880   0.053  23.847  0.0627 -0.0332  0.0417
17338W        W21738  11.776   2.364   6.962  0.1159 -0.2175  0.4803
17339W        W21739  10.132   4.798  16.716  0.0121  0.1344  0.1736
17340W        W21740  16.980   5.626   1.151  0.0656  0.2081  0.1456
17341W        W21741   2.518   1.748  21.075  0.4752  0.1444  0.1020
17342W        W21742  31.069   3.319  26.028  0.2777 -0.0814 -0.0901
17343W        W21743  26.115   7.159   4.128  0.2866 -0.1706 -0.0680
17344W        W21744  20.260   4.164  22.368  0.0557  0.0470 -0.1448
17345W        W21745  22.737   5.787  25.944  0.2892 -0.1592 -0.2184
17346W        W21746  26.666   3.877   9.680 -0.1133  0.1478  0.2572
17347W        W21747  14.686   5.941  10.555 -0.1563 -0.1697  0.0806
17348W        W21748  12.409   7.433  19.052  0.1426  0.3191  0.2501
17349W        W21749  14.096   0.652  23.183 -0.2554 -0.2369 -0.3318
17350W        W21750  26.454   0.893   9.447 -0.2392  0.4746 -0.1032
17351W        W21751  28.263   4.042  22.242 -0.2214 -0.2970 -0.1654
17352W        W21752  27.186   7.696   6.793  0.1675 -0.1815 -0.2026
17353W        W21753  25.988   6.970  22.053 -0.1584  0.1816  0.1627
17354W        W21754  15.330   3.059   0.244  0.1431  0.0266 -0.1000
17355W        W21755  27.050   6.513   8.603 -0.1521  0.0677  0.2954
17356W        W21756  22.516   4.252   8.140 -0.0706 -0.0505  0.0134
17357W        W21757   0.566   2.082   6.952 -0.0265 -0.2548 -0.0668
17358W        W21758   8.613   6.260   5.820 -0.2255 -0.1397  0.3393
17359W        W21759  14.249   0.173  18.806 -0.1307  0.1705 -0.0198
17360W        W21760  14.871   7.525   6.963  0.1597  0.0202 -0.2506
17361W        W21761   5.800   5.993  20.105 -0.1682  0.0560 -0.1254
17362W        W21762  16.170   7.132  15.765  0.3074 -0.1239  0.1224
17363W        W21763  24.755   2.955   9.871 -0.1582 -0.1197 -0.2535
17364W        W21764  30.564   2.640  16.573  0.0582  0.1019  0.0965
17365W        W21765  22.518   0.945  25.325 -0.0702 -0.1478 -0.3330
17366W        W21766  24.067   3.356   5.308 -0.3931 -0.1066  0.2674
17367W        W21767   0.883   2.452  16.653  0.1364 -0.1830 -0.3205
17368W        W21768  11.437   6.902   9.020  0.0131  0.5876 -0.2008
17369W        W21769   7.345   7.342   3.965 -0.0230  0.1015 -0.1358
17370W        W21770  10.170   7.414   9.731  0.0584 -0.1562  0.2862
17371W        W21771  26.816   3.433  15.060  0.0500  0.0977  0.0683
17372W        W21772   9.600   4.264  22.215 -0.0883 -0.1021 -0.1305
17373W        W21773   3.618   4.183   3.738 -0.1932 -0.0014  0.0692
17374W        W21774  23.711   4.829  15.606 -0.2241  0.1152 -0.2020
17375W        W21775  12.821   2.900  20.427  0.0131 -0.0624  0.0630
17376W        W21776   9.107   6.406  16.610  0.1981  0.1107  0.2844
17377W        W21777  20.764   4.973   9.640 -0.2288  0.2144 -0.2050
17378W        W21778  16.177   1.225  21.681  0.2714  0.0365 -0.0139
17379W        W21779  30.888   2.510   2.034 -0.0671  0.3986  0.0309
17380W        W21780   1.762   1.110  16.214  0.1135  0.1478 -0.0836
17381W        W21781  30.296   7.832   9.718  0.0917  0.1217 -0.2773
17382W        W21782  15.059   0.202  22.913 -0.1573 -0.1614  0.3305
17383W        W21783  20.208   2.315  25.442 -0.2368  0.1930  0.1259
17384W        W21784  12.336   5.856  25.218 -0.3052 -0.2240 -0.1319
17385W        W21785  18.098   2.138   9.646  0.1175 -0.0200  0.1586
17386W        W21786  20.533   0.650  19.992  0.1176  0.1284  0.0197
17387W        W21787  13.895   3.141  23.352  0.2741  0.0542  0.1329
17388W        W21788  13.148   7.544  16.414 -0.2609  0.0820 -0.0435
17389W        W21789  17.168   0.418   3.773  0.0806 -0.1268  0.1408
17390W        W21790   8.600   5.813  22.111  0.1577 -0.2486  0.1680
17391W        W21791  13.265   6.130  19.567 -0.3592 -0.2049  0.3667
17392W        W21792   0.367   7.116   5.273 -0.0111  0.1213  0.0188
17393W        W21793  15.583   3.044   0.643  0.4060 -0.1701 -0.0967
17394W        W21794  24.975   3.337  14.892 -0.3306 -0.1708 -0.2417
17395W        W21795   2.973   2.542  19.809  0.1498  0.0222  0.0216
17396W        W21796  15.058   6.882   8.424 -0.0932  0.2110  0.1074
17397W        W21797   1.487   2.993  18.452  0.2069 -0.1873 -0.1963
17398W        W21798  25.706   0.555   5.000  0.3459  0.0259 -0.1288
17399W        W21799   0.613   3.522  25.104  0.1982 -0.0065 -0.0900
17400W        W21800  24.838   2.572   9.413 -0.0824 -0.2905 -0.2099
17401W        W21801  10.241   4.314  18.377  0.1126  0.1694 -0.1427
17402W        W21802  14.877   3.049  24.586  0.0304 -0.0090  0.2451
17403W        W21803  29.618   7.161  20.533 -0.1859 -0.4011  0.0931
17404W        W21804  10.368   6.940   9.256 -0.1868 -0.0380  0.1356
17405W        W21805   7.248   7.653  20.202  0.0557 -0.0658 -0.0481
17406W        W21806  24.811   5.183   2.901 -0.1426 -0.1615  0.0112
17407W        W21807   4.908   1.584   4.046  0.1267  0.0114 -0.0969
17408W        W21808  30.161   4.512  16.789 -0.0983 -0.0468  0.0261
17409W        W21809  18.099   5.974   4.031  0.1561 -0.1606 -0.1079
17410W        W21810  16.406   3.269   5.079  0.1838  0.2114  0.1401
17411W        W21811  20.142   0.891  25.531  0.0577 -0.0419 -0.1400
17412W        W21812  24.086   1.011  24.056  0.0341 -0.1278  0.0910
17413W        W21813   3.932   0.623  15.958  0.1411 -0.0559 -0.0766
17414W        W21814  19.809   1.997   7.400 -0.0853 -0.0380 -0.1074
17415W        W21815   0.808   1.997  14.633 -0.0594 -0.0995 -0.0185
17416W        W21816  14.945   0.545  25.650 -0.1693  0.3183  0.2281
17417W        W21817   5.883   5.486  16.378 -0.4276  0.1038  0.0130
17418W        W21818  11.118   5.916  18.951 -0.4144  0.2050  0.1206
17419W        W21819   3.524   6.558  16.091 -0.1134 -0.0418 -0.1661
17420W        W21820  11.611   4.719  22.722 -0.0985  0.0365  0.0272
17421W        W21821   4.230   5.423  22.701 -0.4174 -0.1415 -0.0134
17422W        W21822  17.174   1.157  18.869 -0.2779 -0.0482  0.0006
17423W        W21823   4.664   6.974   6.245 -0.4471 -0.2296 -0.2627
17424W        W21824  27.968   1.451   2.994  0.0229 -0.0837 -0.2213
17425W        W21825  10.217   0.999  24.082  0.0207  0.1042  0.2053
17426W        W21826  21.514   7.546   4.782 -0.1561  0.1184  0.2198
17427W        W21827  28.656   0.802  22.917 -0.0614 -0.0364  0.3467
17428W        W21828  12.621   0.461  22.695  0.1160 -0.0911  0.4730
17429W        W21829  24.842   5.420  21.723 -0.0927 -0.1437 -0.1672
17430W        W21830  12.374   0.879  10.827  0.1384 -0.0908  0.4551
17431W        W21831  13.501   0.889   2.508 -0.0238  0.1879 -0.0349
17432W        W21832  23.290   4.954  10.386  0.1181  0.0162 -0.1382
17433W        W21833  30.599   1.293   6.941 -0.3311  0.0691 -0.3069
17434W        W21834   3.891   4.675  17.331  0.4663 -0.2489  0.0831
17435W        W21835   4.776   0.209  16.024  0.0746 -0.1158 -0.2002
17436W        W21836  14.671   5.655  14.979  0.0993 -0.1398  0.1902
17437W        W21837   5.902   0.871  16.266 -0.2520 -0.0419  0.1375
17438W        W21838  27.202   0.607  22.751 -0.0697  0.1281  0.2896
17439W        W21839  27.648   5.250   4.166  0.0047 -0.0236  0.1104
17440W        W21840  26.809   0.174  22.404  0.4245  0.0190  0.2494
17441W        W21841   4.949   0.061  15.603  0.0550 -0.2596 -0.3467
17442W        W21842  17.333   6.332   0.845  0.0507 -0.0268  0.2922
17443W        W21843  21.991   1.049   2.569 -0.0305  0.3121 -0.0164
17444W        W21844   8.852   5.607   8.088 -0.2227  0.1711  0.0928
17445W        W21845   1.656   4.691  17.692  0.0346 -0.1199 -0.2090
17446W        W21846   3.057   6.401   0.738 -0.3503  0.0965 -0.1312
17447W        W21847  21.947   5.949   4.279  0.3535  0.1416 -0.2061
17448W        W21848  28.945   4.792   4.018  0.3802 -0.1903  0.3134
17449W        W21849  20.894   1.044  17.715 -0.1375  0.0838 -0.2337
17450W        W21850  12.436   5.306  19.601  0.1371 -0.2858  0.1202
17451W        W21851  11.227   4.213  18.450 -0.3260  0.2061  0.3429
17452W        W21852  13.148   2.779  10.334  0.0727 -0.1357  0.2614
17453W        W21853  16.482   4.070   9.437 -0.1609 -0.2331 -0.1800
17454W        W21854  11.932   5.432   9.969  0.1181 -0.0951  0.0268
17455W        W21855  29.879   1.456  22.682  0.1294 -0.1442 -0.0351
17456W        W21856  21.343   6.796   6.582  0.2989 -0.0516 -0.4809
17457W        W21857  15.013   6.782  23.104 -0.2156 -0.2908  0.0171
17458W        W21858   7.400   5.495  17.739 -0.1475  0.1055  0.0318
17459W        W21859  30.184   5.874   9.555  0.0683  0.0178  0.1255
17460W        W21860  19.241   3.125   1.441  0.0937  0.3048  0.0359
17461W        W21861   3.599   1.624  25.076  0.0897 -0.0852  0.0961
17462W        W21862  11.267   2.212   8.684 -0.0403  0.1123 -0.0344
17463W        W21863  28.163   4.013   8.623  0.2074  0.1161  0.2188
17464W        W21864  23.399   1.246  21.397 -0.1706 -0.0892  0.1044
17465W        W21865  19.018   2.606  23.998  0.4008  0.0430  0.1457
17466W        W21866  28.901   5.839   9.228  0.0331 -0.1729 -0.1550
17467W        W21867  19.788   2.272   3.570 -0.3485  0.2003 -0.0076
17468W        W21868  23.475   4.099   5.390  0.0816 -0.0138  0.0829
17469W        W21869  10.525   5.541  22.688 -0.0233 -0.2616  0.1364
17470W        W21870  18.657   1.685   6.751  0.2052  0.2829 -0.1451
17471W        W21871  12.450   5.721  20.961 -0.3487 -0.0818 -0.3615
17472W        W21872   1.345   3.771  17.787 -0.1549 -0.0521  0.0030
17473W        W21873   1.601   1.871  23.172  0.0582 -0.1069 -0.0203
17474W        W21874  24.340   5.210   2.805 -0.5258 -0.0283  0.1154
17475W        W21875  15.668   0.292   4.977  0.1393  0.0078  0.0025
17476W        W21876   4.267   7.744  25.021 -0.0611 -0.0354 -0.2057
17477W        W21877  29.702   4.584   8.033 -0.1966  0.1906 -0.0381
17478W        W21878  28.664   1.147   5.037  0.0925  0.0037 -0.1914
17479W        W21879  25.975   0.727  23.589 -0.2714  0.0508  0.1105
17480W        W21880  11.211   1.293  22.475  0.3002 -0.1103  0.0660
17481W        W21881  17.394   0.606   0.448  0.0760 -0.0938  0.2231
17482W        W21882  11.342   4.482  10.995  0.1337 -0.1449 -0.2499
17483W        W21883  20.338   4.453   3.991  0.1402  0.5403 -0.0733
17484W        W21884   7.675   6.010   9.597 -0.1707  0.1104  0.2929
17485W        W21885   6.260   5.082  19.645  0.0083 -0.3879  0.0243
17486W        W21886   4.742   5.843   5.300  0.2452 -0.1983 -0.4443
17487W        W21887  18.776   2.615   2.946  0.1758 -0.0700 -0.1495
17488W        W21888  28.687   1.843   3.475  0.2441  0.0058 -0.2103
17489W        W21889  24.828   2.054  17.885 -0.1393  0.0988  0.1915
17490W        W21890   6.015   6.006  25.789 -0.1313  0.0151 -0.0302
17491W        W21891  23.786   2.480  15.479 -0.3273 -0.2218 -0.0252
17492W        W21892  29.997   4.768   9.451  0.0667 -0.0464  0.1248
17493W        W21893   1.716   3.740  20.192 -0.0475 -0.2615 -0.0460
17494W        W21894   1.774   2.244   9.375 -0.1547 -0.1533 -0.1667
17495W        W21895   5.597   3.272  23.877  0.4714  0.1134 -0.1962
17496W        W21896  26.834   5.000   1.779  0.0554  0.1907  0.0646
17497W        W21897  28.746   2.481  23.152  0.3852  0.1613 -0.3994
17498W        W21898  18.014   2.527  17.605 -0.0134 -0.0407  0.2006
17499W        W21899  10.686   0.312  16.738 -0.1306  0.3645  0.3235
17500W        W21900  18.863   4.106  23.759 -0.0055  0.0910 -0.0133
17501W        W21901   8.298   6.895  18.586 -0.0142  0.4340 -0.2073
17502W        W21902  15.699   5.738  15.407  0.0763 -0.2838  0.2841
17503W        W21903  21.476   1.481  25.128 -0.1672 -0.0103  0.1924
17504W        W21904   9.408   3.192   7.777 -0.0685  0.2607 -0.1503
17505W        W21905  22.129   6.545  24.332 -0.1329 -0.1300  0.1234
17506W        W21906   4.805   3.594  19.852  0.3325  0.0350 -0.0240
17507W        W21907   2.988   7.541   8.875  0.1032  0.1714  0.2001
17508W        W21908   7.082   5.924   8.918 -0.1899 -0.1989  0.3376
17509W        W21909  11.134   5.977  25.036  0.0441 -0.0884 -0.1964
17510W        W21910  24.576   4.130   4.596  0.1263  0.1441  0.2433
17511W        W21911  12.845   4.779  11.523 -0.2667  0.0927 -0.1703
17512W        W21912  27.926   3.108   6.792 -0.1255 -0.0524  0.0612
17513W        W21913   1.141   2.597  10.283 -0.1472 -0.0936  0.1252
17514W        W21914   3.762   1.793   5.148 -0.1548  0.1883  0.0978
17515W        W21915  11.275   4.843  24.054 -0.1667 -0.2148 -0.0125
17516W        W21916  20.203   7.529   5.319  0.0724 -0.0574 -0.0446
17517W        W21917   7.361   5.529  21.062  0.0654  0.0056  0.3927
17518W        W21918  21.319   2.742   0.301  0.3538 -0.1393 -0.1189
17519W        W21919  23.843   0.432  19.760 -0.0579  0.1718  0.0061
17520W        W21920  21.509   5.138  20.776 -0.1594 -0.0288 -0.0173
17521W        W21921   3.322   2.697  20.742 -0.1384  0.3251  0.1204
17522W        W21922   6.086   2.285   4.406  0.1219  0.0761  0.3137
17523W        W21923   1.363   0.818  22.191 -0.0873 -0.0194 -0.4327
17524W        W21924  20.132   2.085   1.178 -0.1402 -0.0985 -0.0056
17525W        W21925   2.089   6.152  22.856 -0.0190 -0.1882 -0.1387
17526W        W21926   8.647   2.961  23.888  0.1830  0.0800  0.0790
17527W        W21927  26.727   3.418   6.427  0.1826  0.1430 -0.1499
17528W        W21928   9.309   3.193  19.083  0.0232  0.1206  0.0249
17529W        W21929   0.082   1.690  10.046  0.5209 -0.3019 -0.3333
17530W        W21930   1.537   7.802  24.542 -0.0074  0.1527 -0.1050
17531W        W21931   2.124   1.965  20.771 -0.0180 -0.2276  0.1526
17532W        W21932   4.090   4.161  20.211 -0.2084  0.4788 -0.0274
17533W        W21933  25.513   1.102   9.563  0.1598 -0.1436 -0.2215
17534W        W21934  27.968   1.684   4.581 -0.3477  0.0300 -0.2846
17535W        W21935   3.704   7.111  18.257  0.0011 -0.0239 -0.2414
17536W        W21936  30.703   3.033   4.715  0.0367 -0.4684  0.0923
17537W        W21937  26.902   5.694  21.540 -0.0596 -0.3520  0.0683
17538W        W21938  16.308   1.961  19.910 -0.1868  0.0526  0.2693
17539W        W21939   5.039   5.108   3.441  0.2689  0.0130  0.0844
17540W        W21940  25.950   2.980   0.452  0.0641  0.0609  0.1436
17541W        W21941  15.694   5.297   1.489  0.0238  0.2916  0.0734
17542W        W21942  18.151   1.574  23.810  0.0479 -0.1309 -0.1656
17543W        W21943  23.199   3.946   2.328 -0.0279 -0.2532 -0.1413
17544W        W21944   5.539   3.535   7.544  0.2155 -0.1198 -0.1880
17545W        W21945  14.319   6.219  24.320 -0.0303 -0.1009 -0.0135
17546W        W21946  14.598   0.394   7.600  0.0399  0.0532  0.1884
17547W        W21947  23.275   4.544  20.836  0.0524 -0.1857 -0.0726
17548W        W21948  20.841   3.985  14.946  0.0975 -0.1038 -0.1282
17549W        W21949   3.525   4.258  16.655  0.3053  0.0865 -0.1555
17550W        W21950   1.864   7.033   9.581 -0.1105  0.0605  0.1414
17551W        W21951   7.174   2.752   9.553 -0.0136  0.1160 -0.0766
17552W        W21952  14.326   4.322   6.376  0.1116 -0.0882  0.1030
17553W        W21953  15.301   2.741  20.346  0.0137 -0.2565  0.0993
17554W        W21954  28.722   6.855   8.583  0.0646  0.0007 -0.0452
17555W        W21955  19.661   1.058  22.170 -0.0748  0.0534 -0.3674
17556W        W21956   8.906   4.270   7.570 -0.1010 -0.1925 -0.0198
17557W        W21957  22.408   3.989   4.667  0.0316 -0.0375 -0.1051
17558W        W21958  23.930   0.546   2.854 -0.0365  0.3950  0.1327
17559W        W21959  16.022   5.628  21.520  0.3085 -0.3109  0.0416
17560W        W21960  15.411   2.696  18.996 -0.1861  0.2125 -0.3903
17561W        W21961   3.832   1.240  21.255  0.2166 -0.1982 -0.3771
17562W        W21962  23.195   4.075   1.832 -0.0060  0.1103  0.2649
17563W        W21963  29.848   2.024  17.735 -0.1731 -0.0011 -0.0940
17564W        W21964  15.164   6.464  11.531  0.0743 -0.3162 -0.1506
17565W        W21965  25.385   6.438  19.615 -0.1133 -0.0411  0.2985
17566W        W21966  13.641   6.953   1.780  0.0199  0.0977  0.0944
17567W        W21967  28.615   1.494   2.215  0.0319 -0.1070 -0.0847
17568W        W21968  27.852   0.271  25.888 -0.1622 -0.1515  0.2388
17569W        W21969  15.929   2.386  16.091  0.2037  0.2672 -0.0105
17570W        W21970  31.377   3.522   6.532  0.0908 -0.1794 -0.0378
17571W        W21971   8.068   5.844  23.130  0.0312  0.1123  0.1808
17572W        W21972  20.671   3.677  25.377 -0.1113  0.0340  0.0279
17573W        W21973   5.309   3.798   9.090  0.1511  0.1525 -0.2613
17574W        W21974  26.897   7.677   5.699 -0.1829 -0.2197  0.3143
17575W        W21975  10.857   2.771   2.202 -0.1422  0.0042 -0.0012
17576W        W21976  17.243   6.716  16.504  0.2048 -0.1503 -0.1314
17577W        W21977  23.987   6.264  25.455 -0.0495  0.3394  0.0405
17578W        W21978  17.837   6.448   1.631  0.0385  0.0555  0.2165
17579W        W21979  15.362   3.066  24.322  0.2689  0.0387  0.1096
17580W        W21980  28.925   3.017  17.925 -0.1806 -0.0109  0.1011
17581W        W21981  17.767   7.130  10.598 -0.1345  0.1896  0.2468
17582W        W21982  11.677   1.912  16.669  0.2408 -0.1039 -0.2811
17583W        W21983  22.025   0.926  20.679  0.2729 -0.0473  0.1130
17584W        W21984  21.355   0.205   4.808 -0.0324  0.0965  0.0222
17585W        W21985  27.335   2.025  24.431  0.0274  0.1095  0.1923
17586W        W21986  22.647   6.996   9.928  0.1435  0.1338  0.1816
17587W        W21987   7.337   0.749  24.375 -0.4042 -0.3336  0.2464
17588W        W21988  29.257   0.581  17.923 -0.1174 -0.1975 -0.1309
17589W        W21989  22.785   0.498   5.915 -0.0143  0.2201 -0.2392
17590W        W21990  16.786   6.702   4.331 -0.0961 -0.1532  0.1912
17591W        W21991   4.955   0.952   8.654 -0.0162  0.0146  0.2076
17592W        W21992   0.959   0.706  22.565  0.3148 -0.0879  0.0378
17593W        W21993  10.678   0.468   6.407 -0.5100 -0.0511  0.0188
17594W        W21994   1.121   7.563   3.669  0.1643 -0.0466  0.1309
17595W        W21995  28.346   7.831   1.160  0.0931 -0.4362 -0.3022
17596W        W21996  26.206   4.191  20.748 -0.1148 -0.1291  0.0519
17597W        W21997   6.521   4.237   6.088  0.0374  0.0733 -0.0072
17598W        W21998   0.282   4.465   1.237 -0.0899 -0.1494 -0.0793
17599W        W21999  14.440   2.367  10.953  0.2145  0.2444  0.0636
17600W        W22000  29.486   6.282  16.761 -0.1296 -0.1332 -0.0473
17601W        W22001  29.172   7.233  25.104  0.1069  0.1978  0.0114
17602W        W22002  17.891   4.520  25.485 -0.4865 -0.2848 -0.2056
17603W        W22003   5.390   0.941   0.100  0.0422 -0.0193 -0.0680
17604W        W22004  19.289   2.883   5.464 -0.2948 -0.3292  0.1003
17605W        W22005  14.907   3.417   7.124 -0.2079 -0.1068  0.1432
17606W        W22006  25.310   7.425   7.852 -0.0768  0.0937 -0.3295
17607W        W22007  10.561   3.381   4.545 -0.0708  0.1715  0.0379
17608W        W22008  24.657   1.786  23.415  0.0811  0.2981  0.2006
17609W        W22009  25.291   2.966  22.282 -0.1777 -0.0366  0.4359
17610W        W22010   5.128   0.345  25.726 -0.1531 -0.0034  0.0214
17611W        W22011  18.723   0.189  16.326 -0.1490  0.0652  0.1113
17612W        W22012   1.839   2.653   1.667 -0.1740 -0.2410 -0.2044
17613W        W22013   6.051   6.799   5.345 -0.0474  0.1288 -0.3117
17614W        W22014  30.989   0.295  22.553 -0.0012 -0.3238  0.1240
17615W        W22015  23.912   3.573  26.060  0.3164  0.1148  0.1764
17616W        W22016   3.261   5.793  21.501 -0.0803  0.0434  0.0369
17617W        W22017  19.516   4.658  16.814  0.0045  0.1980 -0.0150
17618W        W22018   7.826   2.320  19.453  0.0978  0.0098 -0.1045
17619W        W22019   4.531   3.724  22.362  0.2830 -0.0262  0.2090
17620W        W22020  10.266   0.048  20.319 -0.0253  0.0280 -0.0760
17621W        W22021  17.311   4.570   7.635  0.0464 -0.0090  0.1411
17622W        W22022   1.245   4.498   7.527  0.0666 -0.3437  0.0362
17623W        W22023  14.896   7.524   1.490  0.2103 -0.2821 -0.0638
17624W        W22024  27.538   7.599  21.971  0.0719 -0.2523 -0.0786
17625W        W22025  20.242   6.958   2.782 -0.0317  0.0185 -0.2727
17626W        W22026  26.599   0.150  10.161 -0.3419 -0.3753 -0.1922
17627W        W22027   0.791   3.184  16.013  0.0505 -0.0631 -0.1165
17628W        W22028   7.828   5.815  14.965  0.2449  0.1223  0.1736
17629W        W22029  21.848   6.329   8.292 -0.2139 -0.0023  0.1135
17630W        W22030  14.518   7.644  19.430  0.2187 -0.0022  0.1750
17631W        W22031  29.414   1.940   9.029 -0.0092 -0.1051  0.1338
17632W        W22032  23.051   3.787  21.533  0.3790 -0.0090  0.0040
17633W        W22033  23.095   1.932   1.804 -0.1835 -0.0671  0.0200
17634W        W22034  14.588   3.172  16.433  0.3063 -0.0240  0.0942
17635W        W22035   2.969   5.218  24.035 -0.1891 -0.3871  0.0326
17636W        W22036   4.862   0.651   1.770 -0.1667  0.3347 -0.0390
17637W        W22037  20.882   7.854   5.997  0.0039 -0.0454 -0.1553
17638W        W22038  27.035   1.596  24.580 -0.1140  0.3841  0.0034
17639W        W22039   2.083   0.540  14.199 -0.1787  0.0461  0.0582
17640W        W22040  12.984   2.409  23.769 -0.0315 -0.3526 -0.0833
17641W        W22041  16.853   4.200   0.120  0.4053 -0.1615 -0.0298
17642W        W22042  19.888   5.013   8.340  0.1094  0.0267  0.0631
17643W        W22043   5.812   7.214  17.481  0.0015  0.2356 -0.0399
17644W        W22044  11.942   6.068   7.051 -0.0816  0.3676  0.0144
17645W        W22045  18.333   7.719   4.207 -0.1362 -0.0175  0.2576
17646W        W22046   3.997   3.430  24.048  0.0262 -0.0660  0.0768
17647W        W22047   2.189   6.509   5.500 -0.1842 -0.0384  0.1167
17648W        W22048  20.037   6.210  10.894  0.2574  0.3591  0.2534
17649W        W22049  27.959   1.991  22.551  0.0220 -0.0493  0.1651
17650W        W22050   7.308   4.263  24.609  0.2445 -0.0976 -0.0445
17651W        W22051   6.624   5.313  10.168 -0.1077  0.1767  0.0527
17652W        W22052   5.672   6.050  15.793  0.0938  0.1975 -0.2907
17653W        W22053   4.185   3.802  10.937 -0.0993  0.0701 -0.0392
17654W        W22054  20.236   0.709   4.613 -0.0663 -0.4794  0.0015
17655W        W22055  17.142   4.990  19.305  0.0211 -0.1172 -0.1608
17656W        W22056  22.098   4.727   6.042 -0.3391 -0.1209 -0.1395
17657W        W22057  30.418   0.586   4.503 -0.1513  0.2253 -0.0335
17658W        W22058  20.049   4.005   3.738  0.1928 -0.1002  0.0667
17659W        W22059   3.613   3.636   8.094  0.1231  0.1335  0.2037
17660W        W22060  27.416   7.510   2.590  0.0098 -0.2929 -0.0778
17661W        W22061  15.017   0.022  21.837  0.0861  0.1721  0.4699
17662W        W22062   2.645   4.146   7.253 -0.2803  0.0510 -0.0181
17663W        W22063  13.960   4.025  25.930 -0.1457 -0.0239  0.0179
17664W        W22064   4.274   3.850   1.874  0.0511 -0.2041 -0.2384
17665W        W22065  21.127   3.505   8.070  0.1993  0.1864  0.0771
17666W        W22066  13.575   6.365   6.098  0.2026 -0.1058  0.4085
17667W        W22067   2.137   2.022   6.290  0.0973 -0.0463 -0.0004
17668W        W22068  25.691   5.537  19.331 -0.1161 -0.3474  0.0638
17669W        W22069  31.132   1.274   7.889 -0.0449 -0.0618 -0.1738
17670W        W22070  30.439   5.964   2.469  0.4192  0.0266 -0.1237
17671W        W22071  22.460   6.233  25.958  0.3305 -0.0224 -0.0253
17672W        W22072  18.229   7.089   0.404 -0.0466 -0.3263 -0.0019
17673W        W22073  23.965   1.965  17.317 -0.1205 -0.1048  0.0586
17674W        W22074  15.333   6.474  18.744 -0.1875 -0.0900  0.0942
17675W        W22075   3.016   6.537   9.663 -0.4366  0.2717  0.1893
17676W        W22076  26.916   2.637   1.285 -0.0225 -0.1433  0.2447
17677W        W22077  23.959   3.858  10.824 -0.1360  0.0469  0.1636
17678W        W22078   8.871   3.072  22.443  0.0264 -0.2405 -0.1733
17679W        W22079  20.691   0.637  19.392  0.1251 -0.0292 -0.2297
17680W        W22080  22.739   4.778   2.857 -0.0187 -0.1271 -0.1570
17681W        W22081  20.292   3.905  16.371  0.0207 -0.0900  0.1628
17682W        W22082   6.052   5.294  15.812  0.1802  0.1077  0.0829
17683W        W22083  14.602   1.718  15.439  0.3065 -0.2151  0.1503
17684W        W22084  28.584   0.254   5.443 -0.1667 -0.0371  0.1412
17685W        W22085   5.858   4.071   3.595  0.1790  0.0764 -0.1851
17686W        W22086  12.983   7.138   3.451 -0.1115 -0.2242  0.0590
17687W        W22087  23.153   1.564  20.025 -0.1410 -0.0114 -0.1961
17688W        W22088  20.041   4.317  16.472  0.1494  0.2901  0.2102
17689W        W22089   0.287   3.632  18.789 -0.0965  0.3560 -0.0236
17690W        W22090  16.525   3.186  10.439 -0.0794  0.2330  0.0461
17691W        W22091  30.730   2.299   2.909  0.1887 -0.0925  0.2587
17692W        W22092  27.203   6.557  17.322 -0.1840  0.3496 -0.2271
17693W        W22093  19.361   1.430  19.690 -0.3089  0.0263  0.0747
17694W        W22094  12.406   5.695   5.676 -0.0317 -0.0645  0.3172
17695W        W22095   7.507   0.212   5.118  0.1837 -0.2282  0.0837
17696W        W22096  29.522   0.449   0.565 -0.0887 -0.0571 -0.0830
17697W        W22097   6.410   7.217  18.508  0.0617 -0.0326  0.4778
17698W        W22098  17.636   2.036  19.820 -0.1060 -0.1131  0.0137
17699W        W22099  29.957   5.994   2.277 -0.0274 -0.0469 -0.2423
17700W        W22100   9.789   4.525   8.651  0.1039  0.0754 -0.2050
17701W        W22101   8.757   2.234  16.033  0.0675 -0.3865 -0.3283
17702W        W22102   6.135   2.569  20.956  0.1987 -0.0503 -0.0616
17703W        W22103  20.204   3.135  20.753 -0.1794 -0.1497 -0.0012
17704W        W22104  26.128   4.673   9.838  0.3010 -0.4662 -0.0013
17705W        W22105  22.465   2.539   6.319  0.0304  0.1253 -0.0543
17706W        W22106  29.143   2.415  23.487 -0.1963  0.1728 -0.0000
17707W        W22107   2.702   7.681   2.001  0.1493 -0.1595 -0.2994
17708W        W22108   1.449   6.927  19.509 -0.0622  0.0483  0.3136
17709W        W22109  17.832   7.181  25.708  0.1480  0.1688  0.1056
17710W        W22110   3.186   4.066   3.466 -0.0789 -0.1369 -0.1265
17711W        W22111  23.304   2.090  23.736 -0.0261 -0.0913  0.3775
17712W        W22112  13.963   1.227  19.509  0.0783 -0.0540  0.1406
17713W        W22113  27.134   3.499   1.708  0.0021 -0.0266  0.0186
17714W        W22114  26.826   1.165  16.339 -0.0711 -0.0476  0.1654
17715W        W22115   4.326   4.911  24.417 -0.1092  0.0100 -0.3078
17716W        W22116  13.339   2.271  16.892 -0.0612  0.1515  0.0324
17717W        W22117   5.103   2.099   0.675 -0.1424  0.0664  0.1152
17718W        W22118   6.724   4.349  18.781 -0.0864 -0.0534 -0.0525
17719W        W22119   0.066   7.563  24.197  0.1034 -0.4634 -0.3134
17720W        W22120   6.605   5.442  20.366 -0.0997  0.1085  0.2336
17721W        W22121  24.616   3.799  19.967  0.2064  0.5001 -0.1434
17722W        W22122   0.828   5.985  22.936 -0.2145  0.2410  0.0122
17723W        W22123  31.408   0.177  17.889 -0.0964 -0.1477 -0.1828
17724W        W22124   1.521   5.557   1.448  0.0932  0.0310 -0.0850
17725W        W22125  28.893   0.855  16.047 -0.2646  0.3781 -0.1688
17726W        W22126  10.172   3.353   1.605  0.4559 -0.0795 -0.1861
17727W        W22127   7.947   6.133  18.802 -0.2430  0.0209 -0.4578
17728W        W22128  24.460   4.252  16.246  0.1795 -0.2651 -0.2295
17729W        W22129  14.275   4.681   5.557  0.0623 -0.1168 -0.1456
17730W        W22130  20.797   5.430   5.016 -0.0276  0.3789 -0.1732
17731W        W22131   0.364   5.146  16.254  0.3629 -0.3179  0.0445
17732W        W22132  15.156   1.014   0.849  0.1987 -0.1440  0.5331
17733W        W22133   5.782   6.918   2.614 -0.0024  0.0030 -0.1422
17734W        W22134  20.265   5.711  16.998 -0.0736 -0.0660  0.0033
17735W        W22135  14.688   3.166   2.783  0.2821  0.0309 -0.3958
17736W        W22136   3.492   4.499  22.126  0.2885  0.1335 -0.0261
17737W        W22137  26.368   3.714  16.390  0.0236 -0.2785  0.2674
17738W        W22138  21.639   4.443  15.094 -0.0631 -0.3415 -0.0032
17739W        W22139  29.739   0.048  17.606  0.2540 -0.0418 -0.0089
17740W        W22140  16.694   1.273  11.622  0.0993  0.0224 -0.0101
17741W        W22141  18.965   0.761  23.030  0.1429 -0.2262  0.0731
17742W        W22142   5.073   7.216   5.146  0.1502 -0.1106 -0.1524
17743W        W22143  13.091   2.570  22.937 -0.1206 -0.0313 -0.1195
17744W        W22144  25.954   3.495   3.758  0.0844 -0.2001 -0.2243
17745W        W22145   7.170   5.472   6.597 -0.0173 -0.0854  0.2656
17746W        W22146  14.670   3.051   3.285 -0.1744 -0.1664 -0.1068
17747W        W22147  14.671   2.699   1.073  0.3406 -0.1489  0.1982
17748W        W22148  27.257   5.478   4.069  0.1551  0.1341 -0.0531
17749W        W22149  14.892   3.098  15.577  0.3471 -0.0760 -0.2652
17750W        W22150   6.243   7.212  17.747  0.2577 -0.1775  0.0434
17751W        W22151  28.775   2.470  15.226  0.1416  0.1862  0.1095
17752W        W22152  17.054   4.000   8.994  0.1400 -0.2460 -0.1909
17753W        W22153   2.372   4.200   8.101 -0.0321  0.0556  0.4528
17754W        W22154  15.563   2.737   6.122 -0.1685  0.0577 -0.1141
17755W        W22155  28.161   5.541   7.067  0.0823 -0.3707 -0.0380
17756W        W22156   6.510   3.937   0.343 -0.2597 -0.2728  0.0588
17757W        W22157  30.509   5.678   7.590  0.1549 -0.0527 -0.0534
17758W        W22158   3.553   3.713  22.200 -0.0233  0.5891  0.1182
17759W        W22159  30.895   3.725   8.845 -0.0037 -0.1386 -0.1328
17760W        W22160   8.272   2.013  19.581  0.0051 -0.2537  0.0341
17761W        W22161  26.377   2.201  24.269  0.1378 -0.1996 -0.0638
17762W        W22162   4.696   1.376   9.200 -0.0105  0.0807  0.3295
17763W        W22163   1.625   2.261   4.737  0.1215  0.0207  0.3461
17764W        W22164  26.372   1.517  19.651  0.1664  0.3067 -0.1748
17765W        W22165  22.328   3.549  22.003  0.0785 -0.1399 -0.3085
17766W        W22166  15.739   0.391   0.799  0.0743 -0.1251  0.0731
17767W        W22167  10.706   3.189   6.575 -0.1681 -0.1363 -0.1105
17768W        W22168   3.389   1.640  20.493 -0.1385 -0.1005  0.0462
17769W        W22169  27.417   5.902   9.741 -0.0034  0.0495  0.0300
17770W        W22170   7.083   1.358  16.539 -0.5304  0.2240  0.3438
17771W        W22171   9.201   2.420  16.972 -0.1255  0.1287 -0.0713
17772W        W22172   7.678   2.372  24.778 -0.1946 -0.1946  0.1618
17773W        W22173  21.970   3.213  17.589  0.0565  0.0698  0.3077
17774W        W22174   8.124   0.768  21.108  0.2110  0.3592 -0.0943
17775W        W22175  25.934   6.759  20.102 -0.0144 -0.1597 -0.2627
17776W        W22176  24.458   2.673  19.301 -0.0074  0.1075  0.3579
17777W        W22177  11.027   3.468   4.637  0.0292  0.2210  0.0151
17778W        W22178  22.224   6.310  17.699  0.0178  0.1539  0.0268
17779W        W22179  25.667   3.787  19.806  0.4430  0.2504  0.0962
17780W        W22180  10.697   2.757   5.269 -0.1889  0.1104  0.2943
17781W        W22181  26.664   7.673  24.834  0.1618  0.0797  0.0569
17782W        W22182  28.423   5.670   7.467  0.1176  0.1514 -0.1910
17783W        W22183  10.421   3.295  15.636 -0.0224  0.2508 -0.1060
17784W        W22184   2.549   6.078   8.178  0.1917 -0.3941  0.0927
17785W        W22185  23.626   7.258   9.774 -0.3966  0.3277 -0.0978
17786W        W22186  11.770   1.643   1.416 -0.2690  0.2623  0.0113
17787W        W22187   0.301   2.192  14.970  0.3964  0.0454 -0.1538
17788W        W22188  30.804   0.098   1.860 -0.1834  0.1885 -0.2671
17789W        W22189   7.740   0.073   4.509 -0.1486  0.2769 -0.0555
17790W        W22190  17.751   4.632   9.134 -0.2419  0.1007  0.0257
17791W        W22191  25.602   3.173  24.067  0.2973  0.0014 -0.1008
17792W        W22192  28.004   4.875  20.555 -0.4105 -0.0608  0.1206
17793W        W22193  28.714   5.829  17.219 -0.3564  0.3372  0.0794
17794W        W22194   1.499   7.756   0.905  0.4644  0.1565 -0.1425
17795W        W22195  16.697   6.600   0.839 -0.1675  0.2579 -0.2401
17796W        W22196   7.857   2.680  18.179 -0.0578 -0.3440 -0.2176
17797W        W22197  15.954   1.002  10.273 -0.0826 -0.2012 -0.1801
17798W        W22198  19.637   2.965   0.384  0.0746  0.0990 -0.0742
17799W        W22199  30.209   7.453  20.887 -0.2070  0.1562  0.1282
17800W        W22200  27.765   7.580  20.598 -0.1488  0.1334 -0.0432
17801W        W22201  16.267   6.776  20.182 -0.1833  0.1154 -0.1275
17802W        W22202  29.056   6.683  22.633  0.0377  0.2019 -0.4042
17803W        W22203  16.202   4.212  16.493 -0.1316 -0.0927 -0.0085
17804W        W22204  26.246   3.649  19.166 -0.1743  0.2678 -0.2493
17805W        W22205  22.920   1.327   5.732  0.0799  0.0332  0.3566
17806W        W22206   6.155   2.610  24.376 -0.2029  0.0621 -0.0794
17807W        W22207  30.448   2.119  18.175 -0.2354 -0.0562  0.0217
17808W        W22208   5.911   2.722  24.764 -0.0517  0.0635  0.0076
17809W        W22209   3.520   7.242  24.989 -0.1092  0.0207  0.1804
17810W        W22210  26.914   4.592  15.579  0.0966 -0.2144 -0.4275
17811W        W22211  20.671   3.763  16.805  0.0134  0.0040  0.0447
17812W        W22212  27.660   4.317   0.342  0.2625 -0.0585 -0.1136
17813W        W22213  15.318   5.643   7.511  0.5079 -0.0970  0.0190
17814W        W22214   5.364   3.255   4.205 -0.3959 -0.1692 -0.0198
17815W        W22215  14.513   2.839  23.816 -0.1235  0.0060 -0.1170
17816W        W22216  10.819   3.749  22.645  0.3227 -0.1643  0.1569
17817W        W22217  22.401   6.216  24.056 -0.0466 -0.4029 -0.0441
17818W        W22218  31.357   3.559   5.760  0.0091  0.1299  0.0483
17819W        W22219  17.407   6.476  23.673  0.0034  0.1147  0.0572
17820W        W22220  24.575   3.298   6.862 -0.0327 -0.1080  0.0403
17821W        W22221   8.171   2.660  25.242  0.0699  0.0541  0.0550
17822W        W22222  31.026   3.332   8.349  0.0051 -0.0136 -0.0396
17823W        W22223  30.871   0.039  25.437  0.0223  0.2355 -0.1432
17824W        W22224  12.833   3.898   5.748  0.3035  0.1809  0.0384
17825W        W22225   2.238   7.376   7.844  0.0790 -0.3218  0.0518
17826W        W22226  29.375   1.359  20.095 -0.1186  0.1363 -0.3516
17827W        W22227  18.025   6.101   6.450 -0.0000 -0.0780  0.0993
17828W        W22228   5.177   5.895   8.045 -0.3441  0.1417  0.0187
17829W        W22229  22.774   6.701  18.866 -0.0092  0.2358 -0.0163
17830W        W22230  21.717   4.873   9.779  0.0506 -0.0708 -0.1742
17831W        W22231  22.168   2.429   4.811 -0.0276  0.0846 -0.2371
17832W        W22232  12.747   5.551   3.078 -0.1534  0.2143  0.2407
17833W        W22233  25.678   3.524  23.548  0.0021  0.0576  0.2407
17834W        W22234  22.367   1.563  22.295 -0.0580 -0.0347 -0.2018
17835W        W22235  13.559   6.145   4.079  0.0151 -0.0083 -0.1540
17836W        W22236  24.996   3.713   6.806  0.0761  0.1335  0.0814
17837W        W22237   0.592   3.083   9.637 -0.0360 -0.1125  0.0217
17838W        W22238   2.093   1.181   2.448  0.2209 -0.1993  0.0548
17839W        W22239  21.116   0.564   2.301 -0.3330 -0.1428 -0.2973
17840W        W22240  22.563   0.757   9.225  0.1419  0.0079 -0.2024
17841W        W22241  13.709   6.186   5.008 -0.0838  0.2189 -0.0619
17842W        W22242  27.844   3.610  17.574  0.0358 -0.1890 -0.1577
17843W        W22243  28.383   4.226   1.795 -0.1488 -0.0972  0.0774
17844W        W22244   8.554   3.337  21.444  0.0410  0.1511 -0.0919
17845W        W22245   9.707   5.723   0.761  0.0303 -0.0598  0.2315
17846W        W22246  11.056   1.456  18.552  0.1961 -0.2112  0.2270
17847W        W22247   1.762   0.052  16.442  0.2989  0.2278  0.0308
17848W        W22248  12.031   2.663  23.664  0.2015 -0.1257 -0.1320
17849W        W22249   2.058   1.847  22.309  0.0489  0.1513  0.0963
17850W        W22250  21.167   5.399   6.022 -0.2512  0.0052  0.0977
17851W        W22251   3.721   2.597   3.385 -0.1647  0.0310  0.0561
17852W        W22252   1.073   7.784  18.379  0.2468 -0.2304 -0.0401
17853W        W22253  23.516   3.519  20.600 -0.1227 -0.0117 -0.1853
17854W        W22254  13.006   3.728   4.888  0.1760  0.1044 -0.0997
17855W        W22255  26.518   1.941  11.001  0.1585 -0.1300 -0.3230
17856W        W22256  24.477   7.181  19.353 -0.0245  0.1013 -0.0686
17857W        W22257   2.013   6.574   9.853 -0.0666 -0.1791  0.3670
17858W        W22258   1.059   7.348   5.346 -0.3177  0.1343 -0.0913
17859W        W22259  15.394   6.184  10.280  0.0061 -0.0325 -0.0603
17860W        W22260   7.398   7.007   2.225 -0.1124 -0.0947  0.1230
17861W        W22261   5.084   6.594   5.529 -0.0843  0.0742 -0.0858
17862W        W22262  30.571   4.527   6.938  0.0788 -0.0454  0.3040
17863W        W22263   9.911   3.927  18.690 -0.1966  0.2134 -0.1611
17864W        W22264  26.361   3.854  15.884  0.3938 -0.0393  0.0019
17865W        W22265  12.250   5.667   7.904  0.0822 -0.0770 -0.0317
17866W        W22266  19.110   5.126  18.364 -0.2028 -0.1310 -0.0189
17867W        W22267  23.534   2.872   1.595  0.2004 -0.1992 -0.0183
17868W        W22268  12.733   0.294   9.107  0.1593 -0.0674 -0.0355
17869W        W22269   7.692   1.106   9.629 -0.0890  0.4050 -0.1984
17870W        W22270   0.964   0.974  15.979 -0.0848 -0.0949  0.0113
17871W        W22271  30.342   7.584  22.811 -0.1511  0.2228 -0.2724
17872W        W22272  30.984   0.873  17.005 -0.0845 -0.0564  0.1121
17873W        W22273   3.419   3.579  21.691 -0.0611  0.1409  0.1696
17874W        W22274  25.872   1.288  19.828 -0.0948 -0.1758  0.1246
17875W        W22275  25.796   2.465   3.944  0.4980  0.3282  0.2116
17876W        W22276   0.912   4.267  20.377  0.1071 -0.1693 -0.0418
17877W        W22277  20.144   2.762   1.573  0.0702  0.2777  0.0003
17878W        W22278  11.192   6.938  17.339 -0.1618 -0.1991 -0.0935
17879W        W22279   8.230   6.201  24.463 -0.3439 -0.1087  0.1028
17880W        W22280   9.122   2.928   8.099 -0.0152 -0.0868  0.2640
17881W        W22281  14.182   4.130  10.611 -0.0691 -0.2559  0.2507
17882W        W22282  22.500   3.818   3.046 -0.0805 -0.0873 -0.1166
17883W        W22283  17.813   4.462  19.150 -0.0784 -0.2123 -0.1498
17884W        W22284  16.616   0.600  19.844  0.0687  0.1756  0.0584
17885W        W22285   8.001   3.248  18.111 -0.2267  0.3862 -0.1679
17886W        W22286  24.239   1.554  21.552 -0.2582 -0.2752 -0.1759
17887W        W22287  16.744   3.245   4.750  0.0910 -0.1826 -0.3305
17888W        W22288  15.843   2.534   7.599 -0.0983 -0.0744 -0.4841
17889W        W22289  20.964   6.975  18.527  0.0388  0.1900 -0.1126
17890W        W22290  26.086   3.989   4.604  0.3563  0.0638 -0.1719
17891W        W22291   8.232   7.447  17.983  0.2087  0.0334 -0.0137
17892W        W22292  16.757   5.830  23.783  0.1240  0.0605  0.1202
17893W        W22293   1.821   6.837   6.557 -0.0948 -0.0242  0.1780
17894W        W22294  19.365   5.045   5.742  0.1760 -0.0402  0.3135
17895W        W22295  10.716   2.808  20.149  0.1755 -0.0322  0.2731
17896W        W22296   6.425   3.175   1.735 -0.1140 -0.0786 -0.3171
17897W        W22297  24.716   5.169  19.749  0.1419 -0.0060  0.0696
17898W        W22298   6.475   2.936  19.801 -0.1036 -0.3087 -0.3272
17899W        W22299  29.580   2.223  18.540 -0.2815 -0.3149 -0.1279
17900W        W22300   7.860   1.295   1.883 -0.0031  0.3269 -0.1553
17901W        W22301  23.432   5.394   7.705  0.1687 -0.1193  0.4387
17902W        W22302  29.311   7.833  16.621 -0.1545 -0.1760 -0.1760
17903W        W22303   8.100   6.643  17.117 -0.0801  0.3168  0.1196
17904W        W22304  21.396   7.035   7.056  0.1515 -0.0425 -0.2641
17905W        W22305   6.306   1.008  10.607  0.0151  0.1336 -0.0109
17906W        W22306  12.816   5.698   3.886 -0.1566 -0.1638 -0.1212
17907W        W22307  13.394   1.524   8.136 -0.2428  0.0301 -0.0141
17908W        W22308   1.963   4.288   3.161  0.0318  0.1700  0.1613
17909W        W22309  20.296   7.315  20.365 -0.1953 -0.2253  0.2393
17910W        W22310   4.575   7.407   9.598  0.1383 -0.0634  0.0180
17911W        W22311   7.442   2.037   3.675  0.2526 -0.0425  0.2333
17912W        W22312   7.496   6.743   5.387  0.2385  0.0219  0.0591
17913W        W22313  11.075   7.108   8.194  0.3594 -0.2623 -0.0887
17914W        W22314  13.736   1.836   1.591 -0.2266 -0.0638  0.0163
17915W        W22315   2.736   6.773   2.139 -0.0857  0.4090 -0.4327
17916W        W22316   0.457   4.073   1.005  0.0707  0.2976  0.2675
17917W        W22317  21.306   6.618  25.286 -0.0732  0.0531 -0.5192
17918W        W22318   7.465   5.968  18.095  0.0948 -0.1900 -0.1688
17919W        W22319  10.743   0.570   2.743  0.3505 -0.0634 -0.3494
17920W        W22320  21.119   6.525   3.210  0.1032 -0.1568 -0.1434
17921W        W22321  20.478   4.325  22.841 -0.1178  0.1250  0.0766
17922W        W22322  16.476   6.010  24.188 -0.0888  0.0140  0.1654
17923W        W22323   7.902   2.347  23.774 -0.0546  0.1416 -0.0246
17924W        W22324  30.277   0.254  25.565  0.0773 -0.0697  0.1782
17925W        W22325  13.918   2.624   3.204 -0.2149 -0.0310  0.3061
17926W        W22326   1.074   6.648  10.346 -0.1990  0.2287  0.0830
17927W        W22327  20.759   0.344  26.020 -0.0648  0.0806  0.0876
17928W        W22328   9.222   5.406  17.745 -0.0949  0.0246  0.1692
17929W        W22329  21.312   4.918  16.756  0.0498 -0.1263  0.0569
17930W        W22330   5.186   7.308   1.124 -0.2572 -0.0624 -0.1321
17931W        W22331  25.812   7.623   3.131 -0.2942 -0.1562  0.3872
17932W        W22332  20.551   2.603  15.749 -0.0200  0.0863  0.1136
17933W        W22333  22.134   6.322  22.970  0.0862 -0.2179 -0.0609
17934W        W22334   6.074   0.311  23.592 -0.3321 -0.3926  0.1046
17935W        W22335  19.810   0.239  18.220 -0.0256  0.0432 -0.0753
17936W        W22336  29.976   5.304   9.555 -0.2210  0.1680 -0.0175
17937W        W22337   6.978   0.080  26.060 -0.0214 -0.0777 -0.2342
17938W        W22338  30.775   1.236  16.487 -0.1109 -0.3022 -0.2887
17939W        W22339  16.093   2.432  18.480  0.0108  0.0178  0.0868
17940W        W22340  14.140   1.521   6.332 -0.4860 -0.1516  0.0512
17941W        W22341  23.636   6.310   3.243 -0.0640  0.3841 -0.3011
17942W        W22342  14.446   2.733   0.511 -0.0952 -0.1002 -0.0387
17943W        W22343  17.428   1.788   4.609  0.2855 -0.0222 -0.0115
17944W        W22344  26.836   1.567  18.865 -0.0786 -0.2138  0.0138
17945W        W22345  23.390   1.615   6.562  0.0752  0.1179  0.3439
17946W        W22346  18.548   7.277  17.525 -0.1054  0.0496  0.0869
17947W        W22347  23.435   7.784  17.744  0.0827  0.0072 -0.1873
17948W        W22348  11.526   0.011  25.468  0.2600 -0.1607 -0.4720
17949W        W22349   6.918   5.253  21.194  0.1074  0.1727  0.1782
17950W        W22350   3.421   1.241  24.755  0.0109 -0.1756  0.1354
17951W        W22351  19.863   2.467  20.132  0.3267  0.0715  0.1108
17952W        W22352  16.429   4.884  21.664 -0.1554 -0.1088  0.0388
17953W        W22353  22.467   2.572   7.675  0.2397 -0.0635  0.2982
17954W        W22354  21.873   2.388   3.248 -0.0274  0.0385 -0.1241
17955W        W22355   6.044   2.365   3.248  0.1170  0.0593  0.0051
17956W        W22356  22.141   5.059  15.687 -0.1164  0.1926  0.0285
17957W        W22357  28.847   7.303  24.716  0.0405  0.0535  0.1332
17958W        W22358  25.350   7.355  17.055 -0.0323 -0.1677  0.0379
17959W        W22359   7.951   4.301  19.694 -0.2044 -0.3251  0.1472
17960W        W22360  15.769   2.041  15.703 -0.3285 -0.0499  0.2160
17961W        W22361  17.300   2.592   3.725 -0.2089  0.0801  0.3320
17962W        W22362   3.057   2.819  21.911  0.1574 -0.0572 -0.0161
17963W        W22363  17.199   5.228  24.596  0.0266 -0.1508 -0.3492
17964W        W22364  30.048   7.427  10.569  0.1884  0.2251  0.2372
17965W        W22365   9.176   6.447   3.771  0.1364  0.2172  0.0991
17966W        W22366  30.063   7.394  16.697  0.1219  0.1979 -0.4963
17967W        W22367  13.551   5.953  11.091  0.0939 -0.0959 -0.2475
17968W        W22368  14.104   0.220   0.421 -0.1178 -0.2793  0.4893
17969W        W22369   2.267   0.535  21.525  0.0053  0.0181 -0.2552
17970W        W22370  18.890   3.571   6.820  0.1249 -0.0585 -0.3104
17971W        W22371  28.797   2.268   6.225 -0.1089  0.0987  0.2424
17972W        W22372  16.467   5.866   7.877 -0.1359  0.3836 -0.1009
17973W        W22373   3.732   1.754   3.548  0.1178  0.0960  0.0297
17974W        W22374  17.463   2.798  10.631  0.3725  0.0902  0.0905
17975W        W22375  28.243   2.313  25.066 -0.1541 -0.0005 -0.0900
17976W        W22376  13.350   6.527  19.261  0.1202  0.0179 -0.0793
17977W        W22377   6.195   2.957  25.759 -0.1482  0.1922  0.3425
17978W        W22378  31.041   7.412   7.525 -0.3458 -0.0287 -0.0634
17979W        W22379  14.407   6.641   1.967  0.1788  0.3058  0.2398
17980W        W22380   7.314   5.293   0.180 -0.1992 -0.0324  0.1080
17981W        W22381  11.032   2.632   9.319  0.0211 -0.1829 -0.1302
17982W        W22382   6.785   4.208   5.602 -0.0492  0.1922 -0.2222
17983W        W22383  12.481   2.892  16.220  0.1699  0.1114  0.3685
17984W        W22384  24.542   4.746   7.866  0.1904  0.3027 -0.0609
17985W        W22385   7.693   5.246  16.288 -0.1105  0.2235  0.1288
17986W        W22386   4.332   0.289   2.944  0.3213 -0.0896 -0.0112
17987W        W22387  20.672   5.801   6.123 -0.0640  0.0752  0.2060
17988W        W22388  12.425   2.304   9.924 -0.1096  0.0166 -0.1614
17989W        W22389  15.582   4.358   8.080 -0.0641 -0.1307  0.2078
17990W        W22390  27.349   0.037   4.783 -0.1892  0.0179  0.2239
17991W        W22391  28.328   0.759  19.030  0.0484  0.2230 -0.0081
17992W        W22392   5.296   3.201  18.575 -0.0713 -0.2231  0.1501
17993W        W22393   3.889   0.066  15.447  0.1441 -0.0465 -0.0168
17994W        W22394  25.983   5.187  23.862  0.1422  0.1359  0.2268
17995W        W22395  18.574   5.743   2.801 -0.2997 -0.0776 -0.3197
17996W        W22396  11.945   0.240   2.314 -0.3542  0.1022  0.0836
17997W        W22397  18.792   1.276   3.362  0.0869  0.0040 -0.2462
17998W        W22398  26.678   6.688  19.534  0.0121 -0.1224 -0.0118
17999W        W22399   4.208   5.145   5.620  0.2186 -0.1723 -0.1823
18000W        W22400  16.214   0.483  23.471  0.3105  0.1869 -0.1955
18001W        W22401   8.819   0.776   6.871 -0.1301  0.0499 -0.3562
18002W        W22402  29.698   6.221   0.205  0.1369  0.0217 -0.1233
18003W        W22403  14.903   5.874   2.246  0.0707 -0.0543 -0.0137
18004W        W22404  11.812   6.855   6.801  0.0318  0.0504  0.0600
18005W        W22405   2.357   4.164  18.833  0.0377 -0.1376  0.2982
18006W        W22406  16.596   6.224  19.612  0.0142  0.0246 -0.0635
18007W        W22407  30.113   4.845   1.953  0.0423 -0.2635  0.4665
18008W        W22408  21.197   0.758  19.978 -0.0785 -0.1276  0.3193
18009W        W22409   9.120   5.111  20.983  0.0400  0.3748 -0.2227
18010W        W22410  16.902   2.087   2.130 -0.1692 -0.0808 -0.0148
18011W        W22411  11.881   5.308  23.949  0.0107 -0.1764  0.1862
18012W        W22412   7.989   7.714  24.985  0.2424  0.1101  0.1112
18013W        W22413   8.214   6.403   0.029  0.1553  0.2093  0.2009
18014W        W22414   2.371   5.671   3.112  0.0769 -0.0881  0.2123
18015W        W22415  27.248   7.742  24.870  0.1340 -0.0332  0.0271
18016W        W22416  10.664   3.280  10.038  0.0854 -0.0848  0.0875
18017W        W22417  12.701   4.514  18.426  0.1216 -0.1427 -0.1695
18018W        W22418   1.273   3.117   0.645 -0.1141 -0.1117  0.0393
18019W        W22419  20.355   0.665   7.202 -0.0782  0.0579  0.1299
18020W        W22420   8.707   2.759  10.537  0.2738 -0.2484  0.1389
18021W        W22421  19.346   1.691  16.361  0.2804 -0.2485  0.1920
18022W        W22422  25.621   6.948   4.065  0.1755 -0.1370  0.0994
18023W        W22423   4.289   6.322  18.168 -0.2519 -0.1243 -0.1669
18024W        W22424  25.685   3.443  20.348  0.4720 -0.1261  0.1102
18025W        W22425  18.879   5.194   6.838 -0.2104  0.2160  0.0756
18026W        W22426  29.974   3.609  25.673 -0.0322 -0.0865 -0.2839
18027W        W22427  27.534   1.785   6.530  0.0197 -0.1680  0.4335
18028W        W22428  14.627   6.441  24.685 -0.4274 -0.3662  0.2294
18029W        W22429   9.150   6.311  17.360 -0.2744 -0.0838 -0.1066
18030W        W22430  23.653   0.814  18.137 -0.0644  0.0585  0.0148
18031W        W22431  18.622   2.179  24.199 -0.0035 -0.1801  0.0438
18032W        W22432  28.836   5.333  20.828 -0.2140 -0.5001  0.1964
18033W        W22433  24.740   3.412  18.339  0.3326 -0.0637 -0.3139
18034W        W22434  11.139   1.913  20.038  0.1839  0.0100  0.0613
18035W        W22435  26.210   1.650   3.131 -0.0992 -0.1327 -0.2727
18036W        W22436   0.717   4.308  23.523  0.2570  0.1084 -0.0882
18037W        W22437   0.417   6.929  15.187 -0.1225 -0.0441  0.0170
18038W        W22438   9.511   4.042  21.662  0.1208 -0.4083 -0.0635
18039W        W22439  22.190   1.943   5.656 -0.2162  0.0784 -0.2400
18040W        W22440   6.075   3.618   0.413  0.0699 -0.0224  0.0278
18041W        W22441  15.497   6.547   2.482 -0.0034  0.1123 -0.0876
18042W        W22442  23.892   0.655   7.969 -0.2203  0.0205  0.1756
18043W        W22443  10.732   0.268   9.884  0.1011  0.2187  0.0757
18044W        W22444   9.398   4.525   2.549 -0.1134 -0.0338  0.0511
18045W        W22445  30.727   7.545  17.416  0.0889  0.1616  0.2253
18046W        W22446  11.495   3.242   5.814  0.2085 -0.3463 -0.0851
18047W        W22447  23.598   6.354  24.515 -0.1365 -0.0492 -0.0057
18048W        W22448  21.324   1.717  18.642  0.0360 -0.3525 -0.2227
18049W        W22449  30.535   5.724   7.070 -0.0789  0.0112  0.0877
18050W        W22450  25.883   3.463   5.228 -0.0537  0.1256 -0.3541
18051W        W22451   8.336   7.743  26.041 -0.2699 -0.0680 -0.3039
18052W        W22452  17.904   2.564   9.748  0.2428  0.2894  0.0383
18053W        W22453   1.213   0.389  18.022  0.0456 -0.1453 -0.0872
18054W        W22454   2.136   0.063  19.412  0.1125  0.0224  0.1646
18055W        W22455  16.881   1.622  18.656 -0.1311  0.0581  0.1559
18056W        W22456  18.639   6.476  17.814 -0.1264  0.2742  0.1215
18057W        W22457  21.149   4.397   5.371 -0.0842 -0.2459  0.1450
18058W        W22458  23.100   0.503   8.448 -0.1539 -0.1933 -0.1476
18059W        W22459  16.866   3.592   6.512 -0.2447  0.4838 -0.1279
18060W        W22460  17.188   4.901   5.335  0.1430  0.2197 -0.0242
18061W        W22461  21.622   1.925   2.901  0.2526  0.1543  0.0504
18062W        W22462  24.194   6.578   0.682  0.3075 -0.3515 -0.0906
18063W        W22463  12.864   4.836  25.893  0.0621 -0.0932  0.1464
18064W        W22464   3.061   6.017   6.212  0.1367 -0.0883  0.1276
18065W        W22465   2.218   2.207   7.782 -0.2590 -0.1408 -0.0996
18066W        W22466  13.270   5.909  20.024 -0.2624 -0.0233  0.0216
18067W        W22467  16.232   4.489  20.909 -0.1608 -0.0826  0.2010
18068W        W22468  14.265   1.570  19.189 -0.1094  0.3019 -0.2569
18069W        W22469  16.709   2.130   0.909 -0.0157  0.2213  0.0205
18070W        W22470  31.363   0.056   9.025  0.2325  0.0880  0.3841
18071W        W22471  27.582   4.351   6.908 -0.3150  0.2373  0.1245
18072W        W22472  14.077   0.951   0.210 -0.0149  0.1130  0.2490
18073W        W22473  24.838   7.230  18.356  0.1337 -0.1179 -0.3788
18074W        W22474  17.356   6.099  24.528  0.4632 -0.0578 -0.1418
18075W        W22475   2.971   1.609  15.971  0.0270  0.2383 -0.0709
18076W        W22476  14.188   6.975  23.197  0.1209 -0.1245 -0.0236
18077W        W22477   0.960   3.283  23.863 -0.2319  0.1441 -0.0175
18078W        W22478   2.203   0.544  25.698  0.0181 -0.2727 -0.1760
18079W        W22479   9.667   2.447   6.000 -0.0254 -0.1923  0.2483
18080W        W22480  14.028   2.993   0.152 -0.0785 -0.1175  0.1662
18081W        W22481  26.161   0.532  17.243  0.1477  0.0510  0.2590
18082W        W22482  29.606   3.766   2.962 -0.1097  0.2484 -0.0032
18083W        W22483  10.462   1.509  23.764 -0.0048 -0.3390  0.3937
18084W        W22484   1.563   5.401  18.884 -0.0476  0.0008 -0.1032
18085W        W22485  11.198   4.499  24.756  0.1295 -0.0899  0.2592
18086W        W22486  27.246   6.723  20.498 -0.1295 -0.1026 -0.0703
18087W        W22487  16.935   0.896  20.155  0.0553 -0.1298 -0.0297
18088W        W22488  27.168   1.427  21.679  0.0310 -0.1288  0.1488
18089W        W22489  23.214   0.741  21.460 -0.0925 -0.0239  0.1426
18090W        W22490  22.347   6.579   0.286  0.2177  0.0393 -0.0629
18091W        W22491   0.792   1.601  22.917  0.2349 -0.3521 -0.0803
18092W        W22492   1.559   7.524  21.114 -0.0652 -0.0435 -0.1327
18093W        W22493  23.270   0.533  11.281  0.4026 -0.1117  0.0984
18094W        W22494  13.353   0.830  16.145  0.0126  0.0369 -0.4087
18095W        W22495   0.779   4.098  21.183  0.0965 -0.0290  0.0343
18096W        W22496   4.318   1.431  15.544 -0.1561 -0.0694  0.2782
18097W        W22497  23.987   6.081   9.262  0.1647 -0.1412 -0.0420
18098W        W22498   1.780   1.768  14.969 -0.0631 -0.0502 -0.4742
18099W        W22499  22.395   6.293   4.308  0.2818 -0.1076 -0.1390
18100W        W22500  31.190   5.942  22.512 -0.0904  0.0328  0.3469
18101W        W22501  21.322   6.049  11.038 -0.0014  0.1635 -0.0654
18102W        W22502   6.480   7.455   8.966 -0.1380 -0.0608  0.1197
18103W        W22503   1.961   6.444  18.214 -0.3674 -0.1382 -0.0250
18104W        W22504  16.805   6.709   8.905  0.0267 -0.2617  0.1169
18105W        W22505  25.920   2.359  16.100  0.0293  0.1086 -0.1316
18106W        W22506  13.644   5.193   4.178 -0.1217  0.0895 -0.1322
18107W        W22507  27.907   5.157  23.243 -0.1381  0.0545  0.0091
18108W        W22508   6.812   4.326  19.745  0.1532 -0.0999 -0.4582
18109W        W22509  13.079   2.962  17.091  0.1155 -0.0265 -0.0886
18110W        W22510  28.114   1.848   0.439  0.1373 -0.0988  0.0553
18111W        W22511   7.593   7.510  23.645  0.0247  0.1125  0.2010
18112W        W22512   2.463   4.249  15.140  0.2293  0.0922  0.0680
18113W        W22513  18.265   4.765  18.726  0.2965  0.2634 -0.0455
18114W        W22514  26.089   3.212  23.684 -0.1097  0.3152 -0.0524
18115W        W22515   5.793   1.519   1.219 -0.2239 -0.2853  0.0139
18116W        W22516   0.763   5.388  24.126  0.0126 -0.1857  0.0569
18117W        W22517  18.498   5.325  23.572 -0.0467 -0.0182 -0.1001
18118W        W22518   7.153   5.587  16.940  0.1769  0.0775  0.2309
18119W        W22519  11.204   7.080  20.677 -0.0295 -0.1725 -0.1671
18120W        W22520  29.166   0.806  11.309 -0.3475  0.1904 -0.0487
18121W        W22521  16.204   1.109  17.025  0.0406 -0.0799  0.3063
18122W        W22522  27.562   1.938  22.160  0.2215  0.4430  0.0928
18123W        W22523   6.093   3.080   9.345  0.0484  0.2267  0.0456
18124W        W22524  10.812   0.999   1.219 -0.1720  0.2658 -0.1907
18125W        W22525  11.485   5.025   6.158 -0.1416 -0.1578 -0.0580
18126W        W22526   8.046   3.027  16.709 -0.0747  0.1413 -0.1876
18127W        W22527  19.881   3.274   0.859 -0.1139  0.0420 -0.1515
18128W        W22528   5.893   4.316   1.192 -0.1560  0.2305 -0.0479
18129W        W22529  21.982   0.935  22.717 -0.0401 -0.1851 -0.1218
18130W        W22530  12.610   2.459   7.351  0.3575  0.3856 -0.0651
18131W        W22531   8.127   7.166   4.239 -0.0618  0.2955 -0.1166
18132W        W22532  15.578   5.485   3.241  0.2378  0.2425 -0.1615
18133W        W22533   3.420   4.411  10.275 -0.3089  0.1842 -0.0894
18134W        W22534   0.391   4.145  22.580 -0.3556 -0.0838 -0.0637
18135W        W22535   2.613   0.304  21.233  0.0158  0.2505 -0.0462
18136W        W22536  27.569   7.359  18.493 -0.2856  0.0157 -0.3172
18137W        W22537  20.378   4.207  17.451  0.0925 -0.0150  0.0639
18138W        W22538  16.664   0.897   6.564  0.0328 -0.2136  0.0892
18139W        W22539  26.462   0.475   7.936 -0.1505 -0.1307  0.1849
18140W        W22540  17.844   0.538   5.649 -0.1378 -0.0821 -0.0109
18141W        W22541   3.751   3.262  16.538  0.1850  0.0888 -0.0439
18142W        W22542   6.311   0.260   1.471  0.0779 -0.0750  0.3194
18143W        W22543  16.275   5.710  20.000  0.0292  0.1494  0.0756
18144W        W22544  25.715   1.113   3.800 -0.0147 -0.1670  0.1104
18145W        W22545  26.430   0.491  15.868 -0.0601  0.0139 -0.2095
18146W        W22546  14.132   4.318  17.312  0.1101  0.0687  0.1895
18147W        W22547   8.925   6.594   3.317 -0.1945 -0.1347 -0.2451
18148W        W22548  13.526   5.878  18.939  0.2168  0.4113  0.2585
18149W        W22549  10.608   3.243   5.562  0.1972 -0.0362  0.0689
18150W        W22550  19.695   0.438  19.314 -0.0988  0.0235  0.2536
18151W        W22551  12.197   7.684  18.077 -0.1042  0.0355 -0.0811
18152W        W22552  19.834   3.967  23.661  0.1211 -0.1185  0.1028
18153W        W22553   1.331   2.495   7.765  0.1549  0.1710  0.2465
18154W        W22554  21.415   5.646   0.272 -0.1173 -0.4097 -0.1221
18155W        W22555  12.927   4.830   7.173 -0.1478 -0.0484 -0.0977
18156W        W22556   8.821   5.747  23.256 -0.0791 -0.2715 -0.0317
18157W        W22557   3.319   1.360  22.006 -0.2629 -0.3800  0.1612
18158W        W22558   8.873   5.213  16.245 -0.0894  0.1010 -0.0500
18159W        W22559  17.653   2.101  19.126  0.3697 -0.2899  0.1756
18160W        W22560  13.332   1.974  21.013  0.0700 -0.1185 -0.0696
18161W        W22561   3.143   1.986  18.643 -0.1561  0.4608  0.3152
18162W        W22562   7.798   5.787  17.698 -0.1615  0.5126  0.1108
18163W        W22563  11.105   4.484  21.098  0.0376 -0.2051 -0.3989
18164W        W22564   4.626   7.154  19.138  0.0966  0.1085 -0.0118
18165W        W22565   4.022   2.291   0.514 -0.0778  0.1201  0.0749
18166W        W22566   4.839   4.027   8.143  0.0421  0.2277 -0.1479
18167W        W22567  12.703   6.866  15.860 -0.0013 -0.0881 -0.2259
18168W        W22568   4.401   3.641  17.969  0.0131  0.1476  0.0098
18169W        W22569   9.542   2.453  15.483  0.2931 -0.0891  0.2054
18170W        W22570  28.356   0.908   8.478 -0.1520 -0.0703  0.1184
18171W        W22571  10.840   7.530  10.253 -0.4554  0.1645 -0.0776
18172W        W22572  22.790   2.538  20.393  0.0415 -0.2074 -0.3397
18173W        W22573  27.621   0.007   6.941  0.1552 -0.3536  0.1086
18174W        W22574  31.053   6.679  25.803 -0.3263  0.3787  0.4602
18175W        W22575  19.929   6.837  18.527 -0.2036 -0.0865  0.1047
18176W        W22576  29.174   7.641   5.021  0.2499  0.1228 -0.0153
18177W        W22577   8.584   4.786  10.147 -0.1509  0.1459 -0.0414
18178W        W22578  10.762   3.385   1.355 -0.2459 -0.0873 -0.2278
18179W        W22579  22.187   1.776  16.956  0.0375 -0.0654  0.1744
18180W        W22580  26.082   2.055  11.291 -0.0618 -0.1386  0.3590
18181W        W22581  18.004   5.954  20.921  0.0276 -0.1901  0.0353
18182W        W22582  21.342   4.892   0.066  0.1099 -0.2769 -0.1563
18183W        W22583  22.705   3.482  17.323 -0.3739 -0.0340 -0.2714
18184W        W22584  21.278   2.304  16.936  0.3293 -0.0900  0.0325
18185W        W22585   7.766   2.410  23.191 -0.2999  0.0614  0.1370
18186W        W22586  25.455   3.582   6.583 -0.0610 -0.0229 -0.4000
18187W        W22587  28.095   4.139  17.464  0.2348 -0.1488  0.1687
18188W        W22588  26.820   3.751  16.170  0.2193  0.2067 -0.0319
18189W        W22589  19.794   7.124   7.075 -0.1003  0.0086  0.1222
18190W        W22590   5.168   7.542  15.939 -0.0889  0.3021 -0.0742
18191W        W22591  24.279   6.334   3.910  0.0120 -0.1877 -0.2250
18192W        W22592  21.104   5.121  24.682 -0.1409 -0.0056 -0.1453
18193W        W22593   9.076   5.157   0.084  0.1664 -0.2987 -0.0330
18194W        W22594  12.034   2.741  20.488  0.1066 -0.0735 -0.1732
18195W        W22595  20.668   0.742   8.430 -0.2254  0.1848  0.1979
18196W        W22596  20.816   1.517   6.895  0.0299 -0.0631  0.0357
18197W        W22597  31.085   7.757   1.441  0.0390 -0.3012 -0.3385
18198W        W22598  23.983   4.156  10.330  0.1927  0.2395  0.0264
18199W        W22599  31.237   5.817  17.917 -0.0937 -0.0421  0.0329
18200W        W22600  19.006   3.363   0.095  0.0317 -0.2557 -0.0951
18201W        W22601   8.673   6.204  24.168  0.0824  0.1157 -0.2106
18202W        W22602  26.211   3.019  20.115 -0.1996 -0.1742  0.0466
18203W        W22603  10.415   5.656  21.608 -0.2703  0.1093  0.0137
18204W        W22604  14.393   1.548  17.376  0.0255 -0.0337 -0.1298
18205W        W22605  22.281   0.101  16.240 -0.1046 -0.0038  0.1119
18206W        W22606   6.119   1.347  20.241 -0.0183 -0.3584 -0.0508
18207W        W22607  23.598   3.281  25.157  0.0099  0.1773 -0.0675
18208W        W22608   4.515   4.818   2.187 -0.3254  0.2556 -0.2303
18209W        W22609  15.317   5.192  24.747  0.2335  0.1076 -0.0214
18210W        W22610   1.752   5.833  17.232  0.0857  0.1262 -0.1434
18211W        W22611  11.210   6.320   9.253  0.0721 -0.1007 -0.2276
18212W        W22612  24.678   4.751   3.478 -0.0627  0.0720 -0.2600
18213W        W22613  22.894   4.731  11.263  0.1530 -0.4204  0.3837
18214W        W22614  21.110   3.504   3.126 -0.2695  0.3413  0.3513
18215W        W22615  28.488   6.541  20.513  0.2890 -0.3029 -0.3940
18216W        W22616   1.761   5.904   2.395  0.1526  0.0830 -0.2412
18217W        W22617   2.245   0.612   5.589  0.2861 -0.1704  0.2017
18218W        W22618  24.560   2.088  17.432  0.0555 -0.2700 -0.0488
18219W        W22619  10.585   2.585   4.795  0.2241  0.2225 -0.2944
18220W        W22620   8.518   0.597   7.971  0.1738  0.0676 -0.1816
18221W        W22621   3.212   4.767   0.706  0.2324  0.1739  0.0750
18222W        W22622  16.136   2.422  21.955 -0.0834 -0.1082 -0.1661
18223W        W22623  22.957   3.801   9.718 -0.3009  0.1132 -0.1668
18224W        W22624   8.451   3.215  15.830  0.3045 -0.0545 -0.3090
18225W        W22625   9.480   0.433  22.552  0.0843  0.0159 -0.2685
18226W        W22626  31.292   4.267  15.907 -0.3299 -0.0886  0.3539
18227W        W22627  29.018   1.896   5.393 -0.2757  0.0525  0.1126
18228W        W22628  26.384   0.401  16.722 -0.1608 -0.0603 -0.1413
18229W        W22629  14.818   5.104  25.522  0.1519  0.1385 -0.0278
18230W        W22630  22.184   4.212  24.719 -0.1727 -0.0554 -0.2746
18231W        W22631  28.924   5.757  24.094  0.1086  0.2087 -0.2708
18232W        W22632   5.057   6.432  18.978  0.1990 -0.1748 -0.0872
18233W        W22633  11.788   0.421  18.843  0.1198 -0.1825 -0.5919
18234W        W22634  16.995   7.119  25.264  0.1455 -0.2478  0.0105
18235W        W22635  17.345   2.065  16.636  0.0304  0.0725 -0.0346
18236W        W22636   9.622   7.015   1.394  0.0425 -0.0135  0.1593
18237W        W22637   9.354   3.148  15.325 -0.0607 -0.1323  0.1653
18238W        W22638  14.382   3.246  22.488  0.2362 -0.0373  0.2796
18239W        W22639  21.695   6.596  21.188 -0.0438 -0.1510 -0.0640
18240W        W22640  10.164   3.512  19.004  0.2604 -0.1742  0.1395
18241W        W22641  29.914   0.502  15.232 -0.2011 -0.2569  0.0941
18242W        W22642   5.903   5.492  21.028  0.0760  0.1852  0.0381
18243W        W22643   6.161   5.924   3.668  0.3364  0.2440  0.1912
18244W        W22644  11.158   6.767   9.532 -0.0347  0.1174 -0.1954
18245W        W22645  30.763   0.512  17.388  0.1201  0.1458 -0.1528
18246W        W22646  12.360   0.607  23.864 -0.2154 -0.1076  0.1631
18247W        W22647  21.872   5.642  23.863 -0.0259  0.1109 -0.2762
18248W        W22648   2.975   7.391   0.726 -0.1983  0.0217  0.1598
18249W        W22649  19.822   1.102   1.071 -0.0778  0.0223  0.2684
18250W        W22650   1.486   1.223  18.580  0.0664  0.0494  0.0708
18251W        W22651  13.234   2.460  19.944  0.2646  0.0714  0.5515
18252W        W22652  30.521   5.366   8.851  0.2712  0.0545 -0.0687
18253W        W22653   1.148   0.173   3.768 -0.1094 -0.0517  0.1645
18254W        W22654  26.712   0.770   7.575  0.0271  0.1548 -0.0731
18255W        W22655  30.910   4.894  17.925 -0.0980 -0.2734 -0.1749
18256W        W22656  23.285   5.115  24.938  0.0063 -0.2187 -0.4412
18257W        W22657  10.665   1.398   6.260 -0.0080  0.1108 -0.1035
18258W        W22658   9.022   2.809  24.648  0.1310  0.1806 -0.0719
18259W        W22659   5.780   3.882   1.361  0.1073  0.0242 -0.0862
18260W        W22660   2.814   2.977  20.018 -0.1319  0.2383  0.0381
18261W        W22661  19.972   6.265  21.107  0.0157 -0.3923  0.2170
18262W        W22662   0.941   2.357   8.727 -0.0575 -0.1251 -0.0899
18263W        W22663  13.443   7.266  23.957 -0.1183  0.1676 -0.0944
18264W        W22664   6.963   1.003  15.671 -0.0294 -0.0850 -0.0840
18265W        W22665  30.387   0.768  23.429 -0.1998 -0.0474 -0.0443
18266W        W22666   7.361   2.504   1.805  0.0919 -0.0834 -0.0876
18267W        W22667  19.256   2.600   3.570  0.2422  0.0426 -0.0057
18268W        W22668  11.432   6.917  11.263  0.0567  0.0483 -0.1612
18269W        W22669  20.009   4.070   0.503  0.0023  0.0065  0.0191
18270W        W22670  10.893   7.753   9.380 -0.1834 -0.0547  0.2389
18271W        W22671   5.919   4.789  15.426 -0.0349  0.1916  0.2706
18272W        W22672  22.898   1.252  10.494 -0.0196  0.0296 -0.3758
18273W        W22673  21.763   4.366   5.652  0.1704  0.1661 -0.1173
18274W        W22674   7.090   6.528  19.737  0.1467  0.1037 -0.1520
18275W        W22675  21.460   2.685  22.840  0.0582 -0.0255 -0.2038
18276W        W22676  25.694   0.274   2.976  0.0744 -0.0137 -0.0710
18277W        W22677  11.411   2.963   8.655 -0.0511 -0.1412 -0.0836
18278W        W22678  13.428   3.962  16.189  0.1671  0.0349  0.0322
18279W        W22679   4.941   1.699  24.754 -0.1588 -0.3540  0.3823
18280W        W22680  14.374   3.129  25.337  0.1434  0.1908  0.1895
18281W        W22681   6.395   4.927  14.812 -0.0243 -0.1015  0.2821
18282W        W22682  14.096   7.179   3.278 -0.2658 -0.1921  0.0345
18283W        W22683  14.473   4.904  24.352 -0.1681  0.1062 -0.1305
18284W        W22684  21.658   6.484   8.697 -0.3984  0.0210  0.0743
18285W        W22685  20.601   7.522  22.641 -0.2190  0.0262 -0.0678
18286W        W22686  24.987   0.887  24.425  0.0414  0.0565 -0.0658
18287W        W22687  28.283   5.209  16.624 -0.0589 -0.1534 -0.1642
18288W        W22688  12.680   7.144   9.290  0.2211 -0.0296  0.0090
18289W        W22689  15.322   2.754   7.521 -0.2703 -0.4156 -0.1303
18290W        W22690  30.023   6.649  10.343  0.1907 -0.0585 -0.1507
18291W        W22691  13.688   0.029  21.026 -0.1147 -0.0015 -0.5702
18292W        W22692  27.781   6.109  24.486  0.0241  0.2862 -0.3944
18293W        W22693  11.635   0.510  21.228  0.2115 -0.1770  0.1773
18294W        W22694  12.930   4.549  21.253 -0.0635  0.0729 -0.0916
18295W        W22695  19.378   2.200  21.278 -0.3889 -0.1364  0.1860
18296W        W22696  24.931   6.613   7.062  0.1703  0.2749  0.2324
18297W        W22697  19.341   3.878  23.872 -0.3223  0.2590 -0.1753
18298W        W22698  20.484   5.418   9.788 -0.0274 -0.0733  0.0581
18299W        W22699  24.360   5.206  23.285  0.1993  0.0459 -0.1732
18300W        W22700   5.557   5.745   4.743  0.3106  0.0218 -0.2091
18301W        W22701   1.842   1.411  18.930 -0.0570 -0.1331 -0.0969
18302W        W22702   3.361   7.637  20.743  0.2216 -0.2987  0.0358
18303W        W22703  12.755   0.714  19.283 -0.0852 -0.3208  0.1132
18304W        W22704  17.455   0.004   3.714  0.0432 -0.0089 -0.0733
18305W        W22705  26.189   4.405   3.153  0.0849  0.1445  0.0973
18306W        W22706  17.138   4.817   3.064 -0.2937  0.2873  0.0734
18307W        W22707  31.195   1.535   6.724  0.0683 -0.0334 -0.1789
18308W        W22708   2.204   3.787   6.849 -0.0227  0.0323 -0.1203
18309W        W22709  29.267   1.951  25.857 -0.3222 -0.0207  0.2132
18310W        W22710  20.910   2.208   4.423  0.0619 -0.0031 -0.2242
18311W        W22711   9.118   4.214  17.498  0.1197 -0.0600 -0.2756
18312W        W22712   6.098   2.928   7.996 -0.2853  0.0713 -0.2060
18313W        W22713  26.706   5.163  24.031 -0.1502 -0.1027  0.1644
18314W        W22714   0.505   2.013   0.168 -0.2232  0.1217 -0.3166
18315W        W22715   1.407   7.112  19.948  0.1410  0.2832 -0.1056
18316W        W22716  24.839   5.581   7.256  0.0693 -0.0780 -0.2749
18317W        W22717  23.749   1.448  20.234  0.1363 -0.0399 -0.3518
18318W        W22718  15.803   4.768  25.419 -0.0392 -0.1898 -0.1212
18319W        W22719  16.141   1.416  16.267  0.0917  0.2912  0.0408
18320W        W22720   8.889   0.088   1.021 -0.0286 -0.1300  0.1282
18321W        W22721   3.878   6.741  17.017 -0.1418 -0.0559  0.1189
18322W        W22722  10.732   1.185  17.776  0.0842 -0.0504 -0.0173
18323W        W22723  28.571   3.963   1.389  0.0742  0.1443  0.2200
18324W        W22724   3.845   6.478  21.484 -0.2142 -0.1458 -0.0630
18325W        W22725   7.749   4.361  24.786 -0.0345  0.0450 -0.1940
18326W        W22726  14.457   0.668   2.357  0.2114 -0.2285 -0.2043
18327W        W22727  15.439   0.016   0.970 -0.1805  0.2564  0.0501
18328W        W22728  20.136   3.988  11.509 -0.0816  0.4152 -0.2978
18329W        W22729  17.141   3.336  24.710 -0.0634 -0.0916 -0.1553
18330W        W22730  31.199   0.805   5.223 -0.1228 -0.0166 -0.0140
18331W        W22731  27.957   4.914  15.431  0.0192  0.3126  0.1280
18332W        W22732  16.304   5.452  23.727  0.1817  0.0314 -0.2632
18333W        W22733  19.348   3.657   0.906  0.0056 -0.1497 -0.2619
18334W        W22734  30.738   0.691   5.439 -0.0768 -0.0784  0.0883
18335W        W22735  29.611   4.103  24.440  0.0624 -0.0623 -0.0132
18336W        W22736  21.386   0.074  22.614  0.0471 -0.0444  0.1232
18337W        W22737  18.347   7.359   2.706 -0.0285 -0.0424  0.0610
18338W        W22738  24.123   6.784   3.721  0.2021  0.0268  0.2426
18339W        W22739  16.443   1.542   5.919  0.0170 -0.2095  0.1201
18340W        W22740  27.461   7.115   5.505 -0.0952 -0.0505  0.0793
18341W        W22741  24.433   6.283  20.557 -0.0516 -0.0330 -0.3141
18342W        W22742  14.733   0.181   5.198  0.0044 -0.2219  0.0519
18343W        W22743  25.033   3.385  16.191 -0.1478  0.3270  0.0493
18344W        W22744   0.101   5.973   4.613  0.0809 -0.2476 -0.0669
18345W        W22745  20.104   3.875   6.881 -0.1767 -0.1731  0.3932
18346W        W22746  15.759   7.266   8.371  0.1379  0.2611 -0.0394
18347W        W22747   2.781   1.274  16.302  0.3161 -0.0434  0.2931
18348W        W22748  17.997   6.339   9.903 -0.3089  0.0631  0.0159
18349W        W22749   5.178   0.099   0.596 -0.1387  0.2226 -0.0789
18350W        W22750  29.155   5.609   6.209  0.2602  0.2432  0.2937
18351W        W22751  23.597   3.987  24.640  0.1245  0.1924 -0.2500
18352W        W22752  20.173   5.586   5.145 -0.0807  0.1019  0.1369
18353W        W22753  15.397   6.785   3.717 -0.0762  0.0711  0.1448
18354W        W22754  24.399   6.111  19.020 -0.0265 -0.3591  0.2310
18355W        W22755  11.965   6.132  23.658 -0.0998  0.2732  0.2043
18356W        W22756   7.845   7.088   9.146 -0.3906 -0.0224  0.1603
18357W        W22757  25.835   5.655   1.006 -0.0655  0.1340  0.0277
18358W        W22758   6.406   4.592  21.549  0.0891 -0.4255 -0.1427
18359W        W22759  21.594   6.915  10.039  0.1049 -0.1372 -0.3264
18360W        W22760  22.050   6.281  16.509  0.1122  0.3113 -0.1331
18361W        W22761   8.563   6.286   5.221  0.1563  0.1003  0.0452
18362W        W22762   8.288   1.446   0.769  0.0403 -0.2362 -0.0640
18363W        W22763   8.383   3.971   4.250 -0.3894  0.1136 -0.0479
18364W        W22764  18.150   6.985   7.668 -0.0011 -0.1242 -0.3335
18365W        W22765  31.315   1.262   5.408 -0.0600 -0.2505 -0.3843
18366W        W22766   6.957   5.333   8.825 -0.2097 -0.1049  0.0661
18367W        W22767  10.109   3.968  16.229 -0.2161  0.1426 -0.0174
18368W        W22768   5.446   4.199   4.525 -0.2857 -0.2972  0.0660
18369W        W22769  18.062   5.299   6.159  0.2178 -0.0515 -0.0622
18370W        W22770   8.479   3.904  20.015  0.1508 -0.2503  0.1340
18371W        W22771  11.827   6.799  17.705  0.0668 -0.0042  0.0456
18372W        W22772  10.759   1.178   4.122 -0.1965 -0.0187 -0.0194
18373W        W22773  12.078   6.699  23.860  0.2103 -0.0171  0.0606
18374W        W22774  28.875   0.852  18.798  0.1870 -0.0269  0.0166
18375W        W22775  14.971   0.115   0.750 -0.1211  0.0506  0.0837
18376W        W22776   1.820   5.421   2.554  0.2007  0.1259 -0.0597
18377W        W22777  27.234   5.303   2.527 -0.2575 -0.2127 -0.1165
18378W        W22778   4.090   4.615  18.092  0.0218  0.0444 -0.1199
18379W        W22779   3.418   2.707   9.452  0.0280  0.0934 -0.2031
18380W        W22780  14.666   6.950  17.532 -0.0592  0.2054 -0.1436
18381W        W22781  28.031   2.762  20.984  0.0153  0.0781  0.2229
18382W        W22782   9.537   2.763  17.205 -0.1015 -0.2977 -0.2160
18383W        W22783  16.557   3.083  25.792  0.0210 -0.1693 -0.1789
18384W        W22784  23.275   2.229   4.466 -0.1970  0.0216 -0.3051
18385W        W22785   2.360   4.830   4.105 -0.1067 -0.1929 -0.2506
18386W        W22786   3.749   5.000  15.221  0.1818  0.1896 -0.2762
18387W        W22787  13.224   0.743  10.240 -0.2612 -0.0909 -0.0937
18388W        W22788   7.211   5.823   0.972  0.2491 -0.0708 -0.1898
18389W        W22789  25.744   7.689  10.109 -0.0772  0.3999 -0.1301
18390W        W22790  23.867   7.039  18.129  0.3417 -0.2723  0.1418
18391W        W22791   1.902   7.472   1.701 -0.2930 -0.4577 -0.1517
18392W        W22792   6.167   7.748  20.081  0.0130  0.4820 -0.2509
18393W        W22793  14.552   2.085  15.740  0.3443  0.3458  0.1116
18394W        W22794  23.113   3.135  15.352  0.2008 -0.3841  0.2116
18395W        W22795  12.701   1.603   2.722  0.2215  0.0103 -0.0330
18396W        W22796  29.059   3.016  22.511 -0.0148 -0.1717 -0.3347
18397W        W22797   5.368   0.728   2.003  0.2707 -0.1148 -0.2822
18398W        W22798  16.439   6.135  16.747  0.4244  0.1325  0.1872
18399W        W22799  11.236   2.446   5.505 -0.2274 -0.1181  0.0489
18400W        W22800  12.284   6.063  18.240  0.0524 -0.0918  0.2608
18401W        W22801  16.393   2.028  18.267 -0.1259 -0.3387  0.0639
18402W        W22802  16.889   2.688  19.933  0.0328  0.1602 -0.2318
18403W        W22803  29.132   5.986  24.560  0.0266  0.1786 -0.1810
18404W        W22804   6.553   0.817  20.040  0.0697 -0.1217 -0.0568
18405W        W22805  14.949   6.592   0.902  0.1314 -0.0060  0.0814
18406W        W22806  15.206   2.865  21.081  0.3161  0.0177  0.1479
18407W        W22807  29.432   5.391  17.167  0.1540  0.1685  0.0195
18408W        W22808  29.372   3.600  20.795 -0.2308  0.0338 -0.0866
18409W        W22809   8.791   3.124  15.301 -0.0369 -0.1185 -0.0293
18410W        W22810  12.878   7.123  16.360  0.1121  0.0962  0.1151
18411W        W22811  22.886   1.995  10.282  0.0002  0.2674  0.4401
18412W        W22812  24.954   4.756  19.607 -0.2437 -0.5077 -0.0045
18413W        W22813  17.849   3.819  25.597  0.0854 -0.0638  0.4308
18414W        W22814   5.641   4.270  21.544  0.0324 -0.0124 -0.2902
18415W        W22815  31.402   3.600  16.860  0.2076 -0.1602  0.2384
18416W        W22816   9.831   7.561  18.300  0.0253  0.1569 -0.0455
18417W        W22817  30.437   6.916  22.061 -0.0985 -0.1008 -0.0852
18418W        W22818  23.111   6.604  20.558  0.3401  0.1891 -0.1141
18419W        W22819   6.843   7.453  21.851  0.3430 -0.0668 -0.0860
18420W        W22820  16.921   4.912  18.863 -0.0488 -0.2914 -0.0905
18421W        W22821  18.007   4.987  20.522 -0.0217  0.1230 -0.0375
18422W        W22822   4.928   0.546  10.431  0.0113  0.0182 -0.3136
18423W        W22823   0.633   6.362  15.631 -0.1249 -0.3876  0.1144
18424W        W22824  13.154   1.802   9.290 -0.0094 -0.2045  0.0739
18425W        W22825  13.296   4.609  25.244 -0.0288  0.0890 -0.0739
18426W        W22826  25.219   2.084  19.176 -0.0250 -0.3487 -0.1686
18427W        W22827  21.339   0.372   3.201 -0.0332 -0.1937  0.0017
18428W        W22828  25.434   3.318  10.200 -0.0054  0.3980 -0.0794
18429W        W22829  29.823   5.037   0.836  0.0585  0.3314  0.0651
18430W        W22830   8.719   3.391  19.912  0.2318 -0.0306 -0.0124
18431W        W22831  17.927   4.732   1.805  0.2022  0.1255  0.0960
18432W        W22832   2.303   2.890  23.481  0.0018 -0.1881  0.4476
18433W        W22833  23.939   4.055   7.583  0.0377 -0.2170 -0.0999
18434W        W22834   3.222   4.648   9.398 -0.0451 -0.1122 -0.1376
18435W        W22835  16.605   5.333  20.768  0.1693  0.2900 -0.1294
18436W        W22836   1.084   5.175   2.405  0.0744 -0.1080 -0.1878
18437W        W22837  14.556   0.650   1.841 -0.3420  0.0916 -0.0743
18438W        W22838  18.862   1.292   4.803  0.1625 -0.2018 -0.2190
18439W        W22839   7.610   4.085   1.800 -0.1549 -0.0681 -0.2195
18440W        W22840   5.967   6.952  21.137 -0.0343  0.0895 -0.0315
18441W        W22841   8.960   4.518  25.435  0.0481  0.0720  0.2463
18442W        W22842  16.614   1.580  16.272  0.1087  0.2063  0.2270
18443W        W22843  10.343   1.262   2.404 -0.0639 -0.1828  0.2685
18444W        W22844   5.519   0.279   5.363  0.1877 -0.0891 -0.1357
18445W        W22845  23.126   3.560   7.439  0.0571 -0.1955  0.0354
18446W        W22846  24.136   6.887  24.267  0.0432 -0.0225  0.1694
18447W        W22847  17.904   5.178  10.144  0.1171  0.2605  0.0634
18448W        W22848  14.733   5.702   0.843 -0.1078  0.0502  0.0224
18449W        W22849  24.227   3.519  17.026 -0.0947  0.0459 -0.1478
18450W        W22850  10.608   0.755  24.406  0.0484 -0.1217  0.1774
18451W        W22851   8.436   0.077  24.742  0.1602  0.1052 -0.0544
18452W        W22852   1.615   0.278  20.237 -0.0238  0.0994  0.0815
18453W        W22853  15.532   2.141  17.895  0.1657 -0.1643 -0.0284
18454W        W22854  23.129   2.507   0.656 -0.2936  0.2613  0.6581
18455W        W22855  17.515   4.804   5.713  0.1451  0.3801  0.2356
18456W        W22856   1.494   0.480  20.982  0.1035 -0.4912 -0.2083
18457W        W22857  27.156   2.709   6.689 -0.1876 -0.0156  0.0534
18458W        W22858   4.965   7.221   1.927 -0.2166  0.0447  0.2178
18459W        W22859   3.784   7.773  24.175  0.0201 -0.0160 -0.2545
18460W        W22860  19.068   6.717  25.877 -0.2170 -0.0205 -0.0118
18461W        W22861  13.936   0.030  10.680 -0.1619  0.0475  0.1360
18462W        W22862  12.434   4.176  16.334  0.1977 -0.4779 -0.0816
18463W        W22863  20.983   7.608  16.733 -0.2471  0.0202  0.1360
18464W        W22864   7.737   5.617  24.725 -0.1647 -0.0659  0.0470
18465W        W22865   9.779   5.669   1.711 -0.0769 -0.0276 -0.1833
18466W        W22866  20.494   2.676  22.539  0.2289  0.0605 -0.1626
18467W        W22867  12.897   1.618  18.850  0.2390 -0.1893  0.0955
18468W        W22868  29.509   7.550   5.438  0.0504  0.2001  0.0978
18469W        W22869  21.267   4.305   0.268 -0.2143 -0.3877  0.0733
18470W        W22870   2.864   1.844   3.445 -0.0558  0.1450  0.0282
18471W        W22871   3.998   2.289  20.640 -0.1525 -0.0952 -0.0379
18472W        W22872   2.749   7.836   3.760 -0.0550 -0.3635 -0.0297
18473W        W22873  19.055   1.886   9.620  0.2875  0.0557 -0.2182
18474W        W22874   2.282   0.942  23.792 -0.1800 -0.0492 -0.3617
18475W        W22875  29.533   7.087   6.109  0.3846 -0.1220  0.1544
18476W        W22876  30.127   1.772   4.640 -0.3464 -0.1716  0.1504
18477W        W22877   8.407   3.164  22.053  0.0825 -0.2678  0.0755
18478W        W22878  14.037   5.452  22.726 -0.4350 -0.0393  0.3052
18479W        W22879  27.276   1.316   1.382  0.0129  0.0307  0.1976
18480W        W22880   5.878   2.463   0.892  0.3070 -0.0668 -0.1014
18481W        W22881  19.916   4.754  20.759 -0.1066  0.2663  0.3264
18482W        W22882   5.871   5.080  17.255 -0.0909 -0.0092  0.0984
18483W        W22883   8.419   7.413   8.020 -0.1244  0.2682 -0.0251
18484W        W22884  22.245   4.579  15.669 -0.3281  0.0203  0.0893
18485W        W22885   6.531   1.134  18.004 -0.0683  0.1765 -0.0203
18486W        W22886  31.211   2.640   2.559 -0.1787  0.2619  0.0700
18487W        W22887  10.779   6.028  10.085 -0.1994  0.0340 -0.0420
18488W        W22888   5.461   5.923   0.831 -0.0370 -0.0268 -0.1863
18489W        W22889   4.343   4.679  16.714 -0.2474 -0.3430  0.0759
18490W        W22890  10.022   2.363  22.967 -0.0745 -0.3309  0.0051
18491W        W22891   6.202   0.762   5.248 -0.1319  0.0781 -0.0250
18492W        W22892  10.222   1.953   3.651 -0.1009 -0.0904  0.0365
18493W        W22893  21.232   4.034  21.681  0.0401 -0.0701 -0.0049
18494W        W22894  24.657   3.916   3.727 -0.0723  0.0972 -0.0438
18495W        W22895  18.706   2.557  16.244  0.3350  0.0096  0.2259
18496W        W22896  31.273   7.605  16.675 -0.0355 -0.2935 -0.0021
18497W        W22897  14.941   7.008  25.626 -0.0762 -0.1388  0.2572
18498W        W22898   4.290   0.114  22.971  0.2396  0.2899 -0.0635
18499W        W22899   4.962   7.111   4.654  0.2909  0.1118  0.0992
18500W        W22900  19.795   3.882  10.036 -0.1410  0.0591  0.0712
18501W        W22901  18.426   4.402  23.614  0.0673  0.1080 -0.0190
18502W        W22902  14.938   5.114  17.247 -0.2161 -0.2381 -0.2442
18503W        W22903   9.356   6.512  19.239  0.1205 -0.3363 -0.1886
18504W        W22904  14.403   2.350  25.147 -0.3939  0.0485 -0.1440
18505W        W22905  14.372   3.153   4.748 -0.4055 -0.1238  0.1991
18506W        W22906  19.708   0.621  25.413  0.1509 -0.1925  0.1292
18507W        W22907  24.747   0.738  19.443  0.2302  0.1342 -0.1055
18508W        W22908  27.383   1.210   0.516 -0.4193  0.1170  0.0419
18509W        W22909  23.268   6.827   6.532 -0.1904 -0.2456  0.1614
18510W        W22910  30.575   4.797   5.880  0.0370  0.0207 -0.2055
18511W        W22911   3.577   0.843  21.201 -0.0076  0.0222  0.3812
18512W        W22912  27.460   6.017   3.250  0.1041  0.1124  0.1078
18513W        W22913  27.405   7.747   9.692  0.0221 -0.1618  0.1399
18514W        W22914  24.438   2.979   1.405 -0.1698 -0.0071  0.1991
18515W        W22915  10.948   0.947  25.413 -0.0369  0.0057  0.0110
18516W        W22916   3.381   3.772   6.043  0.0525  0.0232  0.2674
18517W        W22917  24.293   3.743   0.294 -0.1691 -0.3309  0.0481
18518W        W22918   8.867   5.051  22.860  0.1569 -0.2626  0.2340
18519W        W22919  24.204   2.511   8.627  0.0902 -0.1045  0.2367
18520W        W22920  10.595   1.578  10.322 -0.0497  0.2671  0.2776
18521W        W22921   6.818   4.434  18.296  0.1513  0.1840 -0.0558
18522W        W22922   4.721   6.013   8.112  0.0535 -0.1963  0.2306
18523W        W22923   8.512   3.636   3.800  0.0803 -0.1693 -0.0974
18524W        W22924  24.840   0.699  10.373 -0.1064  0.2954 -0.0708
18525W        W22925  19.247   7.322  16.928 -0.1035 -0.0831 -0.0558
18526W        W22926  27.352   4.444   9.613 -0.1883 -0.0094  0.1667
18527W        W22927   4.073   6.126  10.582  0.0507 -0.1154  0.0863
18528W        W22928  15.081   3.730   1.406 -0.0593 -0.0998 -0.2540
18529W        W22929   9.248   4.829  16.544  0.0770  0.1605  0.1111
18530W        W22930  11.030   7.434   9.778  0.1945  0.3034  0.0889
18531W        W22931   9.408   1.714  22.711  0.0111  0.2136  0.0074
18532W        W22932  26.680   0.188  25.547  0.1439  0.0390 -0.1348
18533W        W22933  19.681   4.091  24.177 -0.1573 -0.2646 -0.5200
18534W        W22934   3.571   7.794  19.151 -0.2545  0.1960 -0.2459
18535W        W22935  17.133   6.030  23.534  0.0480 -0.1304  0.1009
18536W        W22936  24.017   0.690   4.148 -0.0422 -0.2194 -0.0279
18537W        W22937   4.162   7.779   1.447  0.0303 -0.2647 -0.1320
18538W        W22938  22.888   3.995   4.774  0.0112 -0.1474  0.1015
18539W        W22939   1.145   6.499   3.870 -0.0528 -0.0173  0.0831
18540W        W22940  14.849   1.500   0.545  0.0461 -0.2424  0.0789
18541W        W22941   8.062   1.065  16.716  0.0522 -0.1976 -0.1520
18542W        W22942  10.168   2.486   9.826 -0.0739  0.0130  0.2211
18543W        W22943  17.515   6.877  20.690 -0.4092  0.0664 -0.0866
18544W        W22944   2.536   6.011   0.242 -0.0710  0.0844 -0.0856
18545W        W22945   4.508   4.576   2.814  0.1788  0.1459 -0.1271
18546W        W22946  10.447   0.057   0.225 -0.0059 -0.1992  0.0749
18547W        W22947  11.389   7.252  20.192 -0.1855  0.0267  0.0586
18548W        W22948  30.281   1.144  22.669  0.1863  0.1301 -0.2266
18549W        W22949   7.278   3.112  21.271  0.0275  0.1241  0.2175
18550W        W22950  29.201   6.517  19.501  0.1948 -0.3265 -0.1789
18551W        W22951   9.812   4.444  24.879 -0.0369  0.1520 -0.0193
18552W        W22952  22.692   6.905  21.836  0.0413 -0.2304  0.1590
18553W        W22953  15.201   6.449   4.999  0.0681  0.0674 -0.0321
18554W        W22954  14.544   1.156  10.480 -0.0483  0.0005 -0.1198
18555W        W22955  18.796   5.583   9.849 -0.0507  0.2116  0.0863
18556W        W22956  16.830   2.849  18.204 -0.0721 -0.0445 -0.0957
18557W        W22957   1.869   1.356  16.743  0.0966 -0.2673  0.1852
18558W        W22958  30.169   5.174  16.908 -0.3058  0.0308  0.1112
18559W        W22959  14.474   7.664   6.232 -0.0980  0.2173 -0.1498
18560W        W22960   3.286   1.587   1.446 -0.0039  0.2957  0.0663
18561W        W22961  24.041   7.470   6.312 -0.1649  0.0845 -0.0308
18562W        W22962   5.497   6.956  24.885 -0.1020  0.0985 -0.0560
18563W        W22963  17.960   0.685   0.993  0.0407 -0.0863 -0.1550
18564W        W22964  12.349   5.973   6.682 -0.2659  0.1138  0.1108
18565W        W22965   6.665   6.745   5.590 -0.1130 -0.1320  0.0726
18566W        W22966  12.161   0.841  17.423  0.1166 -0.1123  0.1989
18567W        W22967  13.014   0.948  20.190 -0.0792  0.1378  0.1286
18568W        W22968   2.073   4.133  21.371 -0.2597 -0.0636 -0.0929
18569W        W22969  10.222   2.973  20.734  0.1761  0.1823  0.1090
18570W        W22970  20.351   3.938   2.869  0.2293 -0.5136 -0.1090
18571W        W22971  14.700   5.943  24.433  0.1862  0.0937 -0.1420
18572W        W22972   7.864   0.883  25.259  0.0574  0.1107  0.1425
18573W        W22973  27.916   3.859   0.221 -0.1712  0.0133 -0.1909
18574W        W22974   6.933   1.988   0.296 -0.0864 -0.2134  0.2541
18575W        W22975   1.740   1.120   7.124  0.0504 -0.0139 -0.0654
18576W        W22976  28.007   3.711   8.216 -0.0071 -0.3787  0.3444
18577W        W22977  13.222   2.444  19.475  0.2147  0.4804  0.2063
18578W        W22978   2.567   6.670  24.130 -0.0544  0.1063  0.1311
18579W        W22979  10.492   6.222  16.851  0.0522  0.1353  0.2895
18580W        W22980   2.978   7.367   4.979  0.0166  0.2998 -0.1347
18581W        W22981  26.896   3.492  18.431 -0.1996  0.1797 -0.2374
18582W        W22982  24.039   3.837  23.176 -0.2844 -0.0536 -0.1712
18583W        W22983  26.428   3.343   7.945 -0.3125 -0.1552 -0.3213
18584W        W22984   3.499   7.526   9.000  0.0182 -0.0574 -0.0115
18585W        W22985  12.915   6.377  23.872  0.1990  0.0883  0.3421
18586W        W22986  30.455   2.994   8.596 -0.2126 -0.0660 -0.1270
18587W        W22987  11.817   0.350  23.910 -0.0265 -0.0435 -0.1314
18588W        W22988  18.501   1.664   3.619  0.0054 -0.3733  0.0896
18589W        W22989   3.890   5.526  15.134  0.0139  0.1762  0.0212
18590W        W22990   0.239   1.557  20.573  0.0578 -0.1194  0.0776
18591W        W22991  24.438   3.982  20.564  0.0399  0.2056 -0.1737
18592W        W22992   6.611   3.934   2.355  0.1840 -0.0156 -0.1389
18593W        W22993   8.563   0.446  20.991  0.3061  0.2565 -0.1642
18594W        W22994  10.356   4.389   4.862  0.1056 -0.2105 -0.1557
18595W        W22995  24.839   5.143  23.891 -0.0290  0.1219  0.2079
18596W        W22996  28.644   1.027  25.037 -0.2800 -0.1690  0.0567
18597W        W22997   7.142   4.237  20.957  0.0080 -0.1518  0.1447
18598W        W22998  21.224   0.080  23.184  0.1183  0.2742 -0.1524
18599W        W22999  12.618   5.489  25.009  0.1113 -0.3868 -0.0026
18600W        W23000   0.127   0.063   9.879  0.3979  0.0620 -0.1533
18601W        W23001   2.185   6.969  23.994  0.2583 -0.2950  0.2144
18602W        W23002  14.992   1.057  24.313  0.2832 -0.0719  0.1521
18603W        W23003  24.807   4.131   1.155 -0.1911  0.1525 -0.0336
18604W        W23004  19.226   1.554  10.500 -0.0331  0.0875  0.2093
18605W        W23005  27.191   0.974   5.960 -0.0131 -0.0614 -0.1526
18606W        W23006   7.113   3.252   7.654  0.1242 -0.0131  0.0255
18607W        W23007  19.997   1.684   4.202  0.0815  0.1682  0.0868
18608W        W23008  30.850   2.713  20.872  0.1005 -0.1333 -0.0720
18609W        W23009  25.572   2.742   3.294 -0.1643  0.0231 -0.0756
18610W        W23010  13.731   6.196  19.358 -0.0546 -0.0076  0.0186
18611W        W23011  14.417   2.700  19.183  0.0271 -0.0048 -0.2590
18612W        W23012  13.009   7.466   6.658 -0.0817  0.0268 -0.1162
18613W        W23013  12.810   2.974   8.446 -0.0335  0.2577 -0.3050
18614W        W23014   9.208   0.444   5.954  0.0532  0.3159  0.0050
18615W        W23015  10.886   6.027   4.259 -0.0765  0.4025  0.0335
18616W        W23016  18.525   6.033  19.538  0.0007  0.2577 -0.1654
18617W        W23017   8.891   7.699  10.484 -0.0080 -0.0704 -0.1617
18618W        W23018  16.876   0.897   9.123 -0.0332  0.1807 -0.0056
18619W        W23019   3.254   3.546   8.536  0.0838  0.2686 -0.1713
18620W        W23020  17.948   3.157  17.259 -0.0374 -0.2171  0.0921
18621W        W23021  26.132   7.455   6.595  0.2277  0.0503 -0.4452
18622W        W23022   6.468   3.155   8.266  0.0211  0.3772  0.0534
18623W        W23023   2.535   7.453   3.466  0.0554 -0.1276 -0.4003
18624W        W23024   1.117   1.061  19.646 -0.0848  0.0056 -0.0352
18625W        W23025   8.995   5.667  22.760  0.0419  0.1091 -0.0495
18626W        W23026  29.994   1.311  25.199  0.2797 -0.0135  0.2662
18627W        W23027  25.203   3.265   7.514  0.0109 -0.3587  0.0540
18628W        W23028   9.045   1.229  20.788 -0.0357  0.0402  0.0181
18629W        W23029   0.222   0.430   9.162  0.0030  0.0329 -0.2511
18630W        W23030  23.134   4.994  17.143 -0.0388  0.1943  0.1696
18631W        W23031   2.774   6.970   9.408  0.1089  0.3764  0.1589
18632W        W23032  21.178   0.027  18.283 -0.0639  0.2587  0.0413
18633W        W23033   8.802   5.864  10.912 -0.0575 -0.0687 -0.0515
18634W        W23034  22.735   3.620  10.728  0.0071 -0.0184  0.0065
18635W        W23035   5.880   3.341  16.581 -0.1727 -0.2858  0.1227
18636W        W23036  24.186   4.826  22.619  0.0412  0.2087 -0.2020
18637W        W23037   9.561   2.113   5.637 -0.1048 -0.0550 -0.0803
18638W        W23038  10.411   6.786  18.386 -0.0564 -0.1060  0.2673
18639W        W23039   1.375   5.161  21.895  0.0772  0.0038 -0.3282
18640W        W23040  30.951   6.500   5.720 -0.1565  0.0128  0.0569
18641W        W23041   8.143   3.458   3.430 -0.1405 -0.0092 -0.1115
18642W        W23042   3.822   7.011  22.304  0.0612  0.2259 -0.3310
18643W        W23043  16.802   7.846  22.347 -0.2023  0.1609  0.0501
18644W        W23044  26.540   2.519  17.033 -0.2639  0.2393  0.0602
18645W        W23045  19.205   5.085  10.385 -0.0183  0.0797  0.4030
18646W        W23046   4.125   7.385  11.042 -0.0563 -0.0380  0.2410
18647W        W23047  31.236   4.091   5.782 -0.2263  0.1267 -0.0975
18648W        W23048  23.417   2.440   6.985  0.2763 -0.0318  0.0604
18649W        W23049  16.811   2.057  19.020  0.1859  0.0311  0.0954
18650W        W23050  11.211   7.303   9.312 -0.1144  0.1552 -0.1642
18651W        W23051  10.424   0.980   1.586 -0.1948  0.4515  0.1368
18652W        W23052   0.680   3.580   4.750  0.0070 -0.0209 -0.0936
18653W        W23053  20.566   6.700   3.126 -0.2001 -0.2369  0.3394
18654W        W23054  18.021   4.990   3.107 -0.2197  0.2655  0.2462
18655W        W23055  29.316   0.024   7.868 -0.1815 -0.1671  0.0408
18656W        W23056  23.874   6.231   6.142 -0.1180  0.1326  0.0672
18657W        W23057  17.130   1.810  15.409  0.0303  0.2075 -0.0342
18658W        W23058  15.389   4.543   9.061 -0.0251 -0.3208 -0.0185
18659W        W23059  13.477   3.020   4.954 -0.0386 -0.0313  0.2044
18660W        W23060  11.779   1.698   4.537 -0.2487  0.1585 -0.2636
18661W        W23061   5.432   1.377   7.088  0.1249  0.1621 -0.2423
18662W        W23062  10.949   5.772   2.466  0.3510 -0.2265  0.1104
18663W        W23063   8.281   0.231  19.098  0.0081  0.0673 -0.0405
18664W        W23064  28.453   1.008  24.208  0.1452 -0.0727  0.0047
18665W        W23065  13.492   7.573  16.968  0.3815 -0.2098  0.1408
18666W        W23066   2.976   4.118  15.944  0.1969  0.3743  0.0997
18667W        W23067  15.051   3.611  22.986 -0.0015 -0.2177  0.0170
18668W        W23068   9.582   5.121  25.078  0.1270  0.0882 -0.2161
18669W        W23069  21.878   0.058   4.745 -0.1527 -0.2310 -0.3994
18670W        W23070  16.228   0.244  18.561 -0.0830  0.1793  0.2235
18671W        W23071   1.560   0.073   9.190 -0.0335  0.0359 -0.0700
18672W        W23072  26.006   6.697  23.974 -0.3902  0.0761  0.2559
18673W        W23073  15.989   5.580  20.848 -0.0814 -0.2102  0.0876
18674W        W23074  26.241   5.140   9.300 -0.2125  0.2782  0.1358
18675W        W23075  10.510   6.978   2.917 -0.1086 -0.0333 -0.3653
18676W        W23076  27.313   6.681  25.310  0.2517 -0.2270 -0.1663
18677W        W23077  13.955   6.395  10.462 -0.1827  0.0899  0.0331
18678W        W23078   6.341   2.665   0.063 -0.0535 -0.0983  0.3576
18679W        W23079  26.774   2.993   0.349 -0.0097  0.1999 -0.2429
18680W        W23080  29.384   4.500   3.339  0.0773  0.1056  0.2367
18681W        W23081   2.008   7.115   0.823  0.1558 -0.0721 -0.2979
18682W        W23082   0.647   4.280  23.043  0.1552  0.1393 -0.0197
18683W        W23083  18.540   2.470  17.646  0.0475 -0.2336  0.1786
18684W        W23084  12.704   4.987   8.558 -0.0108 -0.0406 -0.0902
18685W        W23085   3.522   4.104  16.184 -0.1154 -0.2848 -0.0814
18686W        W23086   5.922   3.834  21.693 -0.1259  0.2487  0.3533
18687W        W23087  18.558   3.257  25.233 -0.1794  0.1204  0.1725
18688W        W23088  20.353   1.854  23.132 -0.1860  0.0191  0.1358
18689W        W23089  22.419   5.791  22.138  0.0929  0.0546  0.0460
18690W        W23090  18.846   6.972  17.853  0.1854  0.2273  0.2967
18691W        W23091  10.104   3.060   9.314  0.4637  0.0791 -0.1635
18692W        W23092  21.690   3.391  16.347 -0.0866 -0.0159  0.3635
18693W        W23093  28.100   4.272   3.765  0.2163  0.0899 -0.2816
18694W        W23094   6.518   4.078  21.682  0.2060 -0.0066  0.0692
18695W        W23095   5.557   5.902   2.956 -0.0197 -0.4567  0.0451
18696W        W23096   5.510   1.630   9.835 -0.0926  0.2020  0.0351
18697W        W23097  19.434   1.637  10.006 -0.1026  0.2108 -0.1616
18698W        W23098   0.826   5.267  25.773 -0.0956  0.0881 -0.2392
18699W        W23099  11.726   4.616  16.567  0.0308 -0.1776  0.1442
18700W        W23100  26.097   1.064  25.901 -0.1487 -0.0271  0.1346
18701W        W23101  13.261   6.909  21.603 -0.2153 -0.1185  0.3017
18702W        W23102  12.444   2.453  24.055 -0.0002 -0.2632 -0.2374
18703W        W23103   7.202   7.273  24.317 -0.1259 -0.0863  0.1604
18704W        W23104  29.334   1.404   0.687 -0.0184  0.0947  0.1271
18705W        W23105  12.354   0.084   0.846 -0.0814 -0.0677 -0.2172
18706W        W23106  22.884   1.030  10.019 -0.1831  0.1062  0.1727
18707W        W23107  27.023   4.706  18.058 -0.0056  0.2069  0.2594
18708W        W23108   9.317   3.563   1.518  0.4664  0.0390 -0.0653
18709W        W23109  12.159   7.525   0.720  0.1293 -0.3941  0.3475
18710W        W23110   7.380   2.979  22.128 -0.2606 -0.1406 -0.1813
18711W        W23111  11.612   2.038  20.912 -0.1666  0.0169  0.1285
18712W        W23112   9.671   6.382  25.633  0.0459 -0.2325  0.3558
18713W        W23113  27.412   7.184  22.339 -0.1217 -0.1329 -0.2277
18714W        W23114  12.829   5.423  20.935  0.1590  0.0273 -0.1656
18715W        W23115  25.932   1.234   9.263  0.3246 -0.1015 -0.0030
18716W        W23116  24.079   4.169   0.546 -0.0655  0.4323 -0.2314
18717W        W23117   0.990   6.475  20.361 -0.1584  0.1197 -0.0927
18718W        W23118  23.062   7.643   4.117 -0.0796 -0.0923  0.1378
18719W        W23119  24.101   1.060   5.884  0.1658  0.0035 -0.2498
18720W        W23120  27.042   3.090   2.029  0.1906 -0.1635 -0.0802
18721W        W23121  24.649   0.760   7.604 -0.3318 -0.0070  0.2250
18722W        W23122   9.660   4.936   3.712 -0.1854  0.1611  0.0619
18723W        W23123  27.990   4.015   2.614 -0.1176 -0.0091 -0.0588
18724W        W23124  11.019   5.271  24.603 -0.2078  0.2441  0.0830
18725W        W23125   9.503   5.164   5.578  0.3734  0.1557  0.1490
18726W        W23126  27.230   3.071   4.699  0.1324 -0.1355  0.0228
18727W        W23127   7.090   7.498   1.599 -0.0752  0.0206  0.1342
18728W        W23128   5.277   1.796   7.513 -0.0419 -0.1158 -0.1609
18729W        W23129  23.599   3.024  21.077 -0.1463 -0.0888 -0.5263
18730W        W23130  25.318   0.259  11.415  0.0788  0.5036  0.0212
18731W        W23131   7.914   2.427  21.808 -0.1154 -0.0566 -0.0965
18732W        W23132   0.466   0.685  21.104  0.3606  0.0456 -0.1250
18733W        W23133  19.871   2.905  18.596 -0.0878 -0.2808  0.0107
18734W        W23134  30.847   2.211  16.845  0.2043 -0.2285 -0.2432
18735W        W23135  19.765   1.077  25.835  0.1762 -0.0438  0.1928
18736W        W23136   0.874   5.344  24.631 -0.2125 -0.0233  0.3558
18737W        W23137  24.724   5.324   6.810 -0.1291  0.0379 -0.3416
18738W        W23138  19.306   2.712  20.876 -0.2726 -0.0754  0.0398
18739W        W23139  13.972   0.185  17.703 -0.0388 -0.0272  0.0423
18740W        W23140  22.547   6.934  17.198  0.1609  0.0393  0.2975
18741W        W23141   1.411   2.492   1.366  0.4135 -0.0692 -0.1773
18742W        W23142   1.126   2.244   0.989  0.1877  0.1928 -0.0604
18743W        W23143  10.322   6.013   6.426  0.0259  0.3767  0.0395
18744W        W23144   4.549   5.731   9.100 -0.3922  0.0539 -0.3336
18745W        W23145  27.719   3.351  24.048 -0.2560 -0.1065  0.0944
18746W        W23146  21.350   4.937  18.921  0.3462 -0.2254 -0.0566
18747W        W23147   9.000   4.965  24.196 -0.0145 -0.1735  0.0491
18748W        W23148  21.556   3.060  20.020 -0.1923 -0.1203 -0.5683
18749W        W23149  19.816   2.741  24.200  0.0021 -0.0245  0.2761
18750W        W23150  11.669   4.026  23.080  0.3034 -0.1206  0.3432
18751W        W23151  23.704   4.386   7.953  0.0042 -0.1768  0.2350
18752W        W23152   2.810   2.325   7.669  0.0044  0.3638 -0.0706
18753W        W23153   8.146   5.157  20.556 -0.0144  0.0129  0.0352
18754W        W23154   5.837   3.756   7.182  0.0378  0.0130  0.3187
18755W        W23155  17.951   0.731  25.400 -0.3405 -0.0270 -0.1081
18756W        W23156  10.372   0.851  20.360 -0.3005  0.3548 -0.0925
18757W        W23157   7.447   6.436  24.313  0.0133  0.0523  0.0018
18758W        W23158   0.250   4.359  21.901  0.4821 -0.1613 -0.2557
18759W        W23159  22.361   3.515  20.531  0.4836 -0.2132  0.2170
18760W        W23160   3.189   4.209   2.384  0.2239 -0.1731 -0.2731
18761W        W23161  10.173   5.173   8.100  0.2717  0.0015  0.1142
18762W        W23162  16.607   7.122   2.193  0.1405 -0.0938  0.2494
18763W        W23163  20.157   6.967  25.492 -0.0458 -0.1485 -0.1028
18764W        W23164  21.810   1.294   2.955  0.1165  0.0406  0.3067
18765W        W23165  14.654   5.497   4.207 -0.0439 -0.2667 -0.1354
18766W        W23166  19.512   6.047  21.860 -0.1997 -0.0485 -0.0602
18767W        W23167  16.811   0.592  10.187 -0.0165  0.0764 -0.0246
18768W        W23168  16.176   1.635  21.393  0.0287 -0.1280 -0.1843
18769W        W23169   9.480   3.769   2.790  0.0463  0.1988 -0.3492
18770W        W23170  22.026   3.171  20.314 -0.3983  0.0224 -0.3971
18771W        W23171   6.649   1.147  16.144 -0.0737  0.0303 -0.0726
18772W        W23172   3.075   6.633   8.453  0.0916  0.3057  0.3872
18773W        W23173  20.464   4.828  18.408  0.1851 -0.0785  0.0656
18774W        W23174   1.329   3.218   0.172  0.2442 -0.0338 -0.0900
18775W        W23175   0.744   2.597  21.488  0.2106  0.0785 -0.0667
18776W        W23176  20.729   6.484   6.789  0.0281  0.0184 -0.0055
18777W        W23177   7.110   4.170  15.273  0.0955  0.0585 -0.1281
18778W        W23178  18.408   6.605  18.333 -0.1290 -0.2734  0.1329
18779W        W23179   0.380   2.013   2.184  0.0185  0.0004 -0.1283
18780W        W23180   1.342   0.895   3.278 -0.1415 -0.0454 -0.1080
18781W        W23181  15.164   2.815  25.483  0.2446  0.2199  0.1990
18782W        W23182   5.769   0.813  22.064 -0.2867  0.3126 -0.1899
18783W        W23183  31.000   3.768  18.118 -0.0907 -0.1466  0.2495
18784W        W23184  22.431   0.366   4.217 -0.0756 -0.2334 -0.1101
18785W        W23185   8.311   0.895  18.344 -0.1129 -0.2841 -0.0035
18786W        W23186  10.836   3.791  18.389  0.2353 -0.1951  0.0070
18787W        W23187  16.365   6.228   6.753  0.0977 -0.2230 -0.3359
18788W        W23188  27.773   4.498  15.918 -0.1490 -0.1682  0.3019
18789W        W23189   8.134   1.756  10.940  0.3697  0.1553  0.0921
18790W        W23190  15.342   6.003   8.768 -0.0453 -0.2218  0.1626
18791W        W23191   9.697   4.644  23.642  0.1447  0.1655  0.1551
18792W        W23192   5.516   2.005   0.984 -0.1939 -0.0300 -0.1152
18793W        W23193  15.444   7.374  19.378  0.1063  0.0518 -0.0832
18794W        W23194  20.232   1.609   2.949  0.1460  0.0502 -0.1122
18795W        W23195  10.468   4.898   3.686 -0.0171 -0.2178  0.0411
18796W        W23196  28.801   5.206   4.255 -0.1379  0.3068  0.0944
18797W        W23197   3.535   6.937  19.384 -0.0114  0.0973 -0.0417
18798W        W23198  10.604   2.090  14.817  0.1497 -0.0973 -0.0700
18799W        W23199   6.742   7.615  14.631  0.0497  0.1076  0.0682
18800W        W23200  13.098   1.523   0.591  0.0132 -0.2856 -0.0539
18801W        W23201  24.665   1.880   4.274  0.2860 -0.3074 -0.1582
18802W        W23202   7.259   6.967  25.062 -0.2363  0.2307  0.0576
18803W        W23203   5.339   3.588  18.987 -0.0799  0.3132 -0.2076
18804W        W23204   3.841   5.844   7.875  0.2439 -0.1939  0.1156
18805W        W23205   6.590   4.832  22.347  0.0733  0.1393 -0.1452
18806W        W23206   3.476   5.186  16.688 -0.2123 -0.1866  0.0623
18807W        W23207   9.834   7.592   1.042 -0.0081  0.0877  0.0368
18808W        W23208   5.082   5.446  21.134 -0.1732  0.2759 -0.2238
18809W        W23209  10.078   1.872  22.017  0.1131  0.2923  0.1538
18810W        W23210  30.379   1.071  18.962  0.3283  0.0002 -0.0465
18811W        W23211  10.202   0.026   3.323 -0.1835 -0.0467  0.1130
18812W        W23212   5.681   4.809   7.071 -0.0435 -0.3319 -0.1798
18813W        W23213  31.157   1.307  18.788 -0.1880 -0.0324 -0.1897
18814W        W23214  30.628   4.940  24.724  0.1199  0.3388 -0.3277
18815W        W23215   1.879   4.611   4.984 -0.3459  0.3127 -0.0609
18816W        W23216  21.528   4.076  23.096  0.6134  0.3015 -0.1728
18817W        W23217  26.190   1.940   2.206 -0.2719  0.0885  0.0190
18818W        W23218  15.060   6.561   2.749 -0.2225 -0.0737  0.0696
18819W        W23219   0.262   5.623  20.021 -0.3633  0.0099 -0.2128
18820W        W23220  16.280   2.666   0.115  0.0712 -0.1008 -0.1489
18821W        W23221  22.312   7.213  17.559 -0.1334 -0.0027 -0.0120
18822W        W23222  18.191   7.369  23.577  0.1455  0.0613 -0.0837
18823W        W23223  11.826   3.744  21.127  0.1694  0.0881  0.1608
18824W        W23224  19.532   6.360  17.205 -0.0622  0.1672 -0.1276
18825W        W23225  21.286   0.450   9.365  0.1901  0.1442 -0.1852
18826W        W23226  15.337   3.913  23.770 -0.0246  0.2686 -0.1273
18827W        W23227  20.128   4.982   0.385 -0.0832  0.0434 -0.3275
18828W        W23228  12.149   5.104   2.616 -0.0134  0.3772  0.1217
18829W        W23229  27.481   4.493   5.864 -0.2401 -0.0214  0.1411
18830W        W23230  24.493   6.636  22.558  0.0870  0.2421 -0.2826
18831W        W23231   6.025   4.017   6.574  0.1204  0.0994  0.0638
18832W        W23232   2.683   0.381   2.092  0.1865  0.0770 -0.3868
18833W        W23233  22.766   4.476   4.439 -0.3054 -0.0235  0.2239
18834W        W23234  18.845   7.187   6.816  0.0509 -0.1991  0.3997
18835W        W23235   8.971   2.275  15.585  0.3541 -0.0182  0.1264
18836W        W23236  15.627   5.578   4.052  0.0091  0.2945 -0.0026
18837W        W23237  30.207   4.055   0.429 -0.0829 -0.2204 -0.0977
18838W        W23238  12.967   7.259   1.204  0.0730  0.0674 -0.0853
18839W        W23239  22.322   5.991  16.216 -0.3036 -0.1887 -0.0575
18840W        W23240  17.770   6.157  21.745 -0.1022  0.1554 -0.1648
18841W        W23241  18.474   6.749  17.413  0.2868  0.1579  0.0345
18842W        W23242  17.393   6.499   4.399 -0.0931  0.0474 -0.3235
18843W        W23243  13.757   3.946   5.720  0.1059  0.0388 -0.2253
18844W        W23244   5.517   1.153  10.598 -0.2052 -0.0443  0.2603
18845W        W23245  17.481   0.257   4.153  0.0389 -0.0711  0.4689
18846W        W23246  14.502   1.576   0.888  0.0068 -0.3132  0.2833
18847W        W23247  21.571   2.769   2.011  0.0873  0.1348 -0.1561
18848W        W23248  11.320   4.762  19.683 -0.0747 -0.0416  0.0379
18849W        W23249  15.175   7.029   4.060 -0.1116 -0.0374 -0.0248
18850W        W23250   4.293   5.770  16.087 -0.1046 -0.1097 -0.0670
18851W        W23251  12.917   5.328   1.260  0.1951  0.0376  0.0191
18852W        W23252   2.051   5.800   5.040  0.0760 -0.1024 -0.0466
18853W        W23253  16.305   7.578  25.428 -0.0034  0.0603 -0.0702
18854W        W23254  27.191   0.989  19.496  0.2311 -0.0334  0.1598
18855W        W23255  23.451   4.575  10.622  0.1070  0.0864  0.1836
18856W        W23256  20.292   0.073  23.806 -0.2886 -0.0782  0.0547
18857W        W23257  29.213   5.755   6.867  0.1475 -0.1214  0.1221
18858W        W23258  28.615   3.031  24.029  0.0945  0.0359 -0.0126
18859W        W23259  12.741   7.425   5.890 -0.0429  0.4061  0.0014
18860W        W23260   5.830   0.051   3.611  0.3959  0.1345  0.0645
18861W        W23261  20.252   4.127  10.117  0.5144  0.1760 -0.1933
18862W        W23262   9.671   5.315  21.586  0.0294  0.0602  0.1154
18863W        W23263   3.513   2.323   1.893 -0.2880  0.1864 -0.0415
18864W        W23264  21.511   5.819   3.862  0.5811  0.1827 -0.3331
18865W        W23265  18.984   0.871  16.598  0.1253  0.2110 -0.1310
18866W        W23266  25.348   3.892  15.705  0.1401  0.4077 -0.4311
18867W        W23267  27.576   4.589  21.956  0.0190  0.0297 -0.0025
18868W        W23268  19.097   3.339  21.074 -0.2044 -0.0597  0.0433
18869W        W23269  31.184   1.745   7.505  0.2497  0.1179  0.1316
18870W        W23270  28.045   2.462  19.321  0.0845  0.2405  0.0732
18871W        W23271  18.961   6.880  22.636 -0.2798  0.1465  0.0210
18872W        W23272  28.350   0.585   2.003 -0.2196 -0.2868 -0.0511
18873W        W23273  29.396   2.395  23.943 -0.2845  0.2880  0.1498
18874W        W23274  10.993   4.084  22.282  0.0694  0.3029 -0.1392
18875W        W23275  27.713   1.153   9.538  0.0538  0.1692 -0.1057
18876W        W23276  30.754   3.130   9.322 -0.0116  0.1383  0.2256
18877W        W23277  11.003   5.925   5.037  0.0431  0.0853  0.1627
18878W        W23278  26.760   5.778  19.419 -0.2152  0.1935 -0.0217
18879W        W23279  13.717   5.255   8.504  0.0967 -0.3534  0.1495
18880W        W23280  23.220   2.378  20.646 -0.0923 -0.1127  0.0177
18881W        W23281  18.811   5.452  15.566  0.2370  0.0924 -0.0264
18882W        W23282  12.893   2.133   1.931 -0.0882  0.1825 -0.1575
18883W        W23283  15.647   2.868  21.266  0.0544 -0.0185  0.0505
18884W        W23284  14.782   3.489   1.687 -0.0718 -0.2131 -0.1883
18885W        W23285  13.042   3.465   4.047  0.0718  0.3463  0.0995
18886W        W23286  15.491   5.361  18.567  0.1791 -0.1970  0.0078
18887W        W23287  21.447   0.306   1.666 -0.1350 -0.1824 -0.2422
18888W        W23288   8.840   6.680   5.413  0.1147  0.0704 -0.0394
18889W        W23289  21.894   6.289  24.713  0.0300  0.1130 -0.3141
18890W        W23290  14.138   4.010  20.996 -0.0087 -0.2421  0.0856
18891W        W23291   0.836   0.939   2.571  0.1026 -0.0209 -0.2054
18892W        W23292  29.670   6.912   3.442 -0.0086 -0.0638 -0.0676
18893W        W23293  10.638   7.274  21.766 -0.4094 -0.0800  0.1034
18894W        W23294  23.000   3.090  18.140  0.0907  0.1971 -0.0998
18895W        W23295  10.264   3.464  20.773 -0.2325  0.0776  0.0969
18896W        W23296   7.290   7.067   8.760  0.1081  0.0985 -0.0356
18897W        W23297   0.639   3.016  20.679 -0.0709  0.1016  0.0037
18898W        W23298   3.825   1.033  22.876 -0.0192 -0.0981 -0.3308
18899W        W23299  12.266   0.294  16.505  0.3022  0.0449  0.0100
18900W        W23300  22.555   6.581  20.087 -0.0712  0.0162  0.1444
18901W        W23301  25.641   0.070  16.410 -0.2256 -0.1255  0.3280
18902W        W23302  22.513   3.686  10.304  0.2098 -0.1497  0.2394
18903W        W23303   1.684   6.780  15.605 -0.0611 -0.0110  0.0789
18904W        W23304   8.001   0.153   8.657  0.1825 -0.1786 -0.1794
18905W        W23305   1.401   0.791  14.197 -0.2817  0.3666  0.1509
18906W        W23306  23.157   3.118   6.093 -0.0209  0.1918  0.0252
18907W        W23307  20.690   2.943  17.830  0.1954 -0.0668  0.0412
18908W        W23308  20.944   5.902   8.430  0.1921 -0.1736  0.0518
18909W        W23309  19.882   6.889  17.028  0.1596  0.0432 -0.1296
18910W        W23310  12.604   6.460  22.468 -0.2920  0.0523  0.1547
18911W        W23311  18.611   5.586   3.263 -0.2767 -0.2552  0.3386
18912W        W23312   6.792   6.122  10.693  0.0537 -0.2592 -0.2464
18913W        W23313   7.807   2.652   2.072  0.3017  0.0874  0.0187
18914W        W23314  15.961   3.042   3.369  0.1370 -0.0441  0.3550
18915W        W23315   2.925   6.742  17.245 -0.0383 -0.1199  0.0845
18916W        W23316  30.374   0.073   2.247  0.0875 -0.1433  0.0028
18917W        W23317  14.557   5.705   9.340  0.0123  0.0560  0.2042
18918W        W23318  17.508   1.792  20.659 -0.0379  0.0489 -0.0066
18919W        W23319  22.951   6.521  21.050  0.2006 -0.0046 -0.1480
18920W        W23320  28.776   5.683  21.222  0.2368 -0.0109  0.0005
18921W        W23321  23.604   3.775  25.321  0.0517 -0.0651  0.0516
18922W        W23322  29.959   3.679  21.625  0.3114  0.0686  0.0166
18923W        W23323  13.590   3.565   9.670 -0.1035  0.0447  0.0640
18924W        W23324  13.465   0.706   6.209 -0.2429  0.1151 -0.1514
18925W        W23325  31.409   3.188   9.165  0.0060 -0.0536  0.0549
18926W        W23326   1.385   6.505   5.999 -0.1337  0.0532  0.0800
18927W        W23327  24.886   0.424  22.914 -0.1688 -0.1364  0.1083
18928W        W23328   3.230   6.355  19.368 -0.1985  0.1045  0.0398
18929W        W23329  11.316   4.472   0.004 -0.1146  0.0212  0.0987
18930W        W23330   9.969   2.628  25.780 -0.2163 -0.1565 -0.1494
18931W        W23331  21.294   4.417   8.485  0.0269 -0.2643 -0.0039
18932W        W23332   5.138   5.351   6.581  0.1230  0.1419 -0.1861
18933W        W23333   9.601   1.243  24.018  0.0136  0.1090  0.2002
18934W        W23334  16.808   7.108  21.187  0.0416  0.0943 -0.1281
18935W        W23335   9.937   7.128   9.271 -0.1230 -0.1869  0.1883
18936W        W23336  30.782   5.327   8.447 -0.0272 -0.0150 -0.1307
18937W        W23337  13.759   5.592  11.444  0.1449  0.0190  0.0719
18938W        W23338   7.820   2.400   3.747  0.1790 -0.0694  0.0784
18939W        W23339  25.669   6.029   0.140  0.0313 -0.1698  0.1359
18940W        W23340   2.874   4.251  25.258  0.3231 -0.0400  0.1755
18941W        W23341  10.636   1.804  15.677 -0.0062 -0.0663  0.0158
18942W        W23342  22.222   4.294   0.032 -0.1724 -0.1599 -0.2279
18943W        W23343  15.523   4.308  23.983 -0.0481 -0.1249 -0.3400
18944W        W23344  29.980   1.457   8.707 -0.0359 -0.0185  0.0784
18945W        W23345  21.210   6.139   3.444 -0.0217  0.1449  0.3625
18946W        W23346   9.370   4.253  25.278 -0.2175 -0.1464 -0.1445
18947W        W23347  28.879   1.092  19.290 -0.2234 -0.0791  0.0461
18948W        W23348  24.120   6.829  23.416  0.2540  0.1458  0.1771
18949W        W23349  18.204   4.154  25.504  0.0511 -0.2460  0.0606
18950W        W23350  29.080   7.518   3.087  0.3084  0.1481  0.2459
18951W        W23351  19.455   7.330   0.005  0.0501 -0.1165  0.0721
18952W        W23352  26.540   3.226  23.417  0.0593 -0.0637 -0.1460
18953W        W23353  20.768   4.014  21.911 -0.0495  0.0588 -0.2635
18954W        W23354  27.880   2.698  17.731  0.1284 -0.2516  0.2278
18955W        W23355   4.604   4.424  23.090  0.1073 -0.3860 -0.0068
18956W        W23356  26.266   4.157  23.151  0.1196  0.1574 -0.0221
18957W        W23357  31.189   3.194  19.119  0.0127  0.0610  0.1051
18958W        W23358   2.383   6.834   5.197  0.3388  0.1149  0.0776
18959W        W23359  13.366   0.632   8.108 -0.1728  0.1739 -0.5386
18960W        W23360   3.299   4.574  23.615  0.1575 -0.0400 -0.0517
18961W        W23361  14.543   6.848  18.132 -0.0142 -0.1987 -0.0864
18962W        W23362  28.354   0.056  17.795  0.1339  0.0267 -0.0145
18963W        W23363  12.327   5.310  15.367  0.0128  0.1156 -0.2510
18964W        W23364   1.493   5.870  23.561  0.1460  0.1093  0.2715
18965W        W23365   1.738   0.811   9.999  0.2903  0.0781  0.0636
18966W        W23366  30.674   6.696  25.262 -0.0839 -0.4904 -0.0174
18967W        W23367  17.973   1.986   0.924 -0.1315  0.0656  0.0048
18968W        W23368  21.524   1.603  15.547 -0.0258 -0.0277  0.0392
18969W        W23369  16.913   3.069  19.366 -0.0766 -0.0598  0.1662
18970W        W23370  19.924   2.076  23.107 -0.1189  0.2089 -0.0607
18971W        W23371  26.839   7.736   7.144  0.0272 -0.0980  0.1388
18972W        W23372  11.406   6.202  17.140  0.0118 -0.0205  0.5227
18973W        W23373   5.951   5.073  15.014 -0.1269 -0.0235 -0.2765
18974W        W23374  27.720   3.433  25.633  0.2879  0.2668 -0.0163
18975W        W23375  18.041   2.347   4.830  0.0426  0.3298 -0.0632
18976W        W23376  11.927   2.027  22.850  0.1065 -0.0295 -0.3268
18977W        W23377  30.383   7.503  25.453  0.2205  0.5050 -0.1024
18978W        W23378   3.267   5.580  25.139  0.0929  0.1333 -0.1222
18979W        W23379  23.068   7.245  10.837  0.1858 -0.3678 -0.1114
18980W        W23380  30.487   5.556   9.317  0.1420  0.1890 -0.1234
18981W        W23381   0.403   1.727  23.304  0.3446 -0.1874 -0.3526
18982W        W23382  16.330   1.000  22.725  0.3182 -0.0185  0.0972
18983W        W23383   3.594   0.033  21.941 -0.0145 -0.0095  0.0405
18984W        W23384   7.858   2.522   9.156  0.2954 -0.0787  0.2162
18985W        W23385   1.686   7.238  15.292 -0.1212  0.0390  0.0730
18986W        W23386   4.834   4.894  22.134 -0.1127  0.6430 -0.0313
18987W        W23387  15.735   4.264  21.003  0.1109 -0.0008 -0.1117
18988W        W23388  25.601   2.388  17.883  0.0020 -0.1572  0.1077
18989W        W23389  20.700   1.788   6.268 -0.1183  0.2441  0.2777
18990W        W23390  30.814   0.950   6.520  0.1267 -0.5473 -0.0067
18991W        W23391  15.093   7.538   1.055  0.2567 -0.1567 -0.0990
18992W        W23392  21.738   7.238   6.751  0.1509 -0.2370 -0.1928
18993W        W23393  30.805   0.461  25.106 -0.1300  0.1055 -0.0676
18994W        W23394  22.796   0.567  17.536 -0.1919  0.2102 -0.0282
18995W        W23395  14.627   1.667   7.282 -0.0697 -0.1753  0.0188
18996W        W23396   2.196   1.260  16.010  0.2654  0.3048  0.3984
18997W        W23397  14.018   4.503   2.032 -0.1410 -0.0192  0.0182
18998W        W23398  30.819   2.266  14.581  0.4751  0.0620 -0.0803
18999W        W23399  19.174   6.714  21.929  0.0111 -0.3621 -0.3856
19000W        W23400  22.032   1.670  23.277  0.4048 -0.2856 -0.1361
19001W        W23401  14.983   4.068  18.012 -0.0317  0.1365  0.1413
19002W        W23402  29.795   3.958   9.918 -0.1954  0.1593 -0.1780
19003W        W23403  24.815   7.092  10.862 -0.1579  0.0790 -0.1073
19004W        W23404  18.335   7.097   6.720 -0.2616  0.0178  0.3074
19005W        W23405  26.513   5.619   1.179 -0.1446  0.0993  0.1761
19006W        W23406  25.331   5.510   1.119 -0.2411 -0.0237 -0.0007
19007W        W23407  18.464   0.189  10.746 -0.2031 -0.0232  0.1829
19008W        W23408   2.135   2.466  21.679 -0.2527 -0.1920 -0.4755
19009W        W23409   6.619   5.673  10.876  0.1902  0.4378  0.1703
19010W        W23410  20.829   2.695   0.559 -0.0284 -0.2302  0.1599
19011W        W23411  29.075   0.822  15.619  0.1747 -0.3382 -0.0870
19012W        W23412  10.133   7.829  24.642 -0.1901 -0.1436  0.1027
19013W        W23413   5.504   2.705  19.920 -0.3009 -0.3675  0.0685
19014W        W23414   6.668   6.639  16.605 -0.1453  0.2845 -0.0923
19015W        W23415  29.699   5.145   4.438  0.2777  0.0094  0.0442
19016W        W23416  22.551   5.968  21.089 -0.1136 -0.0249 -0.1186
19017W        W23417  11.946   2.778  10.266 -0.1780 -0.1458  0.1221
19018W        W23418  20.752   1.649  10.795  0.0880 -0.0639  0.3165
19019W        W23419  21.843   4.517   4.212  0.2164 -0.0717 -0.1301
19020W        W23420   3.950   1.681   0.015 -0.1385  0.0888 -0.0728
19021W        W23421   2.215   7.251   3.814  0.0346  0.0622 -0.1145
19022W        W23422  27.048   6.895  23.256 -0.1056  0.1065 -0.3298
19023W        W23423  20.149   5.917  18.315  0.1025 -0.0899  0.0060
19024W        W23424  13.541   1.682  21.414 -0.1443  0.0841 -0.2152
19025W        W23425  11.661   6.749   1.810  0.1864  0.1602 -0.2584
19026W        W23426  23.983   6.448   2.851  0.0637 -0.2812  0.1303
19027W        W23427   8.527   3.211  17.780 -0.0926  0.2572  0.2046
19028W        W23428  24.347   1.234  23.603 -0.0864  0.2300 -0.2462
19029W        W23429   9.910   5.920   7.783  0.0728 -0.1575  0.1149
19030W        W23430  25.224   7.849   0.824  0.1041  0.1049 -0.2822
19031W        W23431   5.828   2.513  19.134  0.1848  0.3284 -0.1374
19032W        W23432  20.616   7.590   4.974  0.0924  0.1084 -0.0332
19033W        W23433  26.245   7.265  20.326 -0.1530 -0.1891  0.3049
19034W        W23434  15.523   7.257   3.784  0.2041 -0.0092 -0.1614
19035W        W23435  22.548   1.636   5.424 -0.1355 -0.2990  0.2948
19036W        W23436  25.094   1.569   4.622  0.1440  0.1859  0.0313
19037W        W23437  13.014   3.036   2.938 -0.3321  0.0308 -0.2016
19038W        W23438  22.951   4.339   9.047  0.0593 -0.1080  0.0966
19039W        W23439   8.267   1.425   2.122  0.3002 -0.0094 -0.0548
19040W        W23440  11.059   5.924  22.008  0.1110 -0.1249 -0.3705
19041W        W23441  23.233   1.728   3.789 -0.0567  0.0169 -0.0951
19042W        W23442  12.997   2.305   9.318  0.0232 -0.2141 -0.0916
19043W        W23443   8.503   6.099   1.559 -0.1860 -0.4251  0.0662
19044W        W23444   3.675   0.993   2.881  0.0627 -0.1512 -0.1492
19045W        W23445   3.868   1.986  24.822  0.1005  0.1040  0.0564
19046W        W23446  18.293   0.323   5.947 -0.2469  0.0462  0.3261
19047W        W23447  25.231   2.811   5.034  0.1664 -0.0312  0.0976
19048W        W23448  30.576   0.568   8.435  0.2230 -0.0620 -0.0366
19049W        W23449  21.071   0.298  25.590  0.0144 -0.1968  0.0473
19050W        W23450  28.213   0.921   0.362 -0.0152  0.1882  0.4393
19051W        W23451  19.132   1.388   3.728  0.3087 -0.1034  0.1810
19052W        W23452   2.010   7.003   8.975  0.0548 -0.3426 -0.1778
19053W        W23453  19.821   2.686   4.361  0.0011  0.3382 -0.0868
19054W        W23454  24.281   6.756  16.983  0.0055  0.0406 -0.0382
19055W        W23455   4.812   2.173   8.618  0.1594  0.3644 -0.0650
19056W        W23456  14.332   7.079  21.040 -0.0263  0.1879 -0.2799
19057W        W23457  19.966   7.752   3.977  0.0056 -0.1378  0.3432
19058W        W23458  29.309   5.520   4.411  0.1431  0.2457  0.3458
19059W        W23459  12.053   4.845  16.919  0.0754 -0.0825  0.0320
19060W        W23460  29.225   5.033   5.471 -0.3575 -0.2577 -0.0164
19061W        W23461   3.643   3.212  17.499  0.0620  0.2572  0.1890
19062W        W23462  12.077   5.080  17.795  0.0290 -0.2351  0.3438
19063W        W23463  16.270   1.968  20.823  0.1701 -0.0999  0.1788
19064W        W23464   2.630   5.773  17.809  0.0828 -0.0666  0.2387
19065W        W23465   6.130   2.838   4.244  0.1025 -0.0790 -0.2197
19066W        W23466  13.653   6.670  25.335  0.2976 -0.2307 -0.1320
19067W        W23467  23.300   7.839  25.052  0.2430 -0.0376 -0.1207
19068W        W23468   9.069   0.101   4.416  0.0369 -0.0790 -0.2226
19069W        W23469   3.695   1.143   7.305  0.0419 -0.1875 -0.0853
19070W        W23470  14.218   3.992  16.629  0.0122  0.1025  0.0802
19071W        W23471  20.449   4.782  19.039  0.2687  0.1030 -0.0973
19072W        W23472  15.969   2.705  22.346  0.1946 -0.0444 -0.0172
19073W        W23473  29.909   0.818  21.994 -0.0732 -0.0715 -0.0432
19074W        W23474  17.448   0.253  25.610 -0.0820  0.2579 -0.1060
19075W        W23475   0.744   4.973   9.514 -0.6095  0.2950  0.0145
19076W        W23476   8.182   6.808   7.049  0.2137 -0.1024 -0.2740
19077W        W23477   4.268   6.417  16.896 -0.1367  0.1452 -0.2266
19078W        W23478  21.975   1.145  16.287 -0.0777  0.0597  0.0644
19079W        W23479  20.782   1.026  18.724 -0.0207  0.0313  0.1629
19080W        W23480  24.169   7.166   9.698 -0.0561  0.0773 -0.3141
19081W        W23481  27.206   5.036   8.771  0.0624  0.0116 -0.3342
19082W        W23482  18.959   7.345  24.993  0.0658  0.0107  0.0466
19083W        W23483  31.247   7.846   1.996 -0.2786  0.4323  0.2061
19084W        W23484  28.016   7.537   0.289  0.0220 -0.1380  0.2142
19085W        W23485   4.594   0.935  19.707  0.0585 -0.0478  0.2789
19086W        W23486   5.528   7.244  11.044 -0.2191 -0.0005 -0.3688
19087W        W23487   2.597   1.746  14.621  0.0971  0.0756  0.0081
19088W        W23488  25.294   4.827  17.588  0.1243 -0.0100  0.0168
19089W        W23489  27.835   0.183  22.842 -0.2350  0.1313  0.0343
19090W        W23490  12.322   7.707   2.418  0.2617  0.3849  0.2143
19091W        W23491  28.120   4.948   4.821 -0.1679  0.0372  0.2069
19092W        W23492  21.384   2.661   4.287 -0.0133 -0.0329 -0.0500
19093W        W23493   6.079   2.677   8.425 -0.3462  0.1120 -0.2007
19094W        W23494  12.476   5.892  16.687  0.2350  0.0356  0.0703
19095W        W23495  12.225   2.559  25.609 -0.1650 -0.0005 -0.0725
19096W        W23496   1.852   1.608  16.234 -0.0413 -0.1669 -0.0739
19097W        W23497  26.232   6.180   7.699 -0.0079 -0.0725  0.1488
19098W        W23498  25.300   6.088  16.266 -0.0096 -0.0541  0.1280
19099W        W23499  13.588   2.051   8.127 -0.3417  0.0370 -0.0069
19100W        W23500  19.708   5.948   8.276 -0.0335 -0.4436 -0.0953
19101W        W23501  23.219   6.757   7.450 -0.0703 -0.0545 -0.1638
19102W        W23502   9.648   0.705   0.583  0.1942  0.1706  0.2478
19103W        W23503  10.455   1.223  17.388  0.3284 -0.0540  0.0391
19104W        W23504  12.001   6.348  17.881 -0.1278 -0.0880  0.1797
19105W        W23505   6.608   3.085  22.645  0.0072 -0.1133  0.0988
19106W        W23506  27.992   0.969  21.203  0.2212 -0.2222 -0.2924
19107W        W23507  28.910   4.933   7.167  0.1496 -0.3297 -0.0643
19108W        W23508  29.384   5.117  19.609  0.2766 -0.3289  0.0805
19109W        W23509  31.266   5.591  17.449 -0.0010 -0.0936  0.1600
19110W        W23510  21.666   4.139  18.951  0.0754 -0.2983  0.1092
19111W        W23511   2.549   2.857  25.481  0.0405  0.0969  0.1387
19112W        W23512   6.457   0.081  24.811  0.1179  0.2351 -0.1758
19113W        W23513   4.131   5.026   2.800 -0.0100  0.1377 -0.0039
19114W        W23514   9.493   3.996   8.404 -0.1136  0.3436  0.3737
19115W        W23515  19.963   0.993  20.913 -0.2196  0.0101 -0.1099
19116W        W23516  29.900   1.048  16.067 -0.0707  0.2217 -0.3024
19117W        W23517  20.820   0.924  24.641  0.2581  0.2894  0.0716
19118W        W23518  23.440   6.019   5.491 -0.0997  0.2476  0.2182
19119W        W23519   8.885   6.315   9.709  0.2025  0.0033 -0.2001
19120W        W23520  15.186   6.854   5.403 -0.0373 -0.1160 -0.4807
19121W        W23521  13.908   3.261   4.870  0.0393 -0.0578  0.1716
19122W        W23522  19.355   2.159   6.896 -0.0106  0.0480  0.2869
19123W        W23523  25.439   4.017   4.454 -0.0804 -0.3878  0.0367
19124W        W23524  27.890   4.330   3.071 -0.0263  0.1251 -0.0759
19125W        W23525  18.430   1.494  22.947  0.1102 -0.0793 -0.1011
19126W        W23526  18.225   0.613   4.529 -0.0403 -0.1582  0.2016
19127W        W23527   0.158   1.114   5.843 -0.1226  0.1437 -0.1419
19128W        W23528   7.686   0.217   1.128  0.1832  0.2459 -0.0082
19129W        W23529  29.376   5.522  17.642  0.1201 -0.2942  0.0435
19130W        W23530   0.667   0.041   4.628  0.1440 -0.1379 -0.0026
19131W        W23531   9.068   6.932   3.740  0.0106 -0.0419  0.0276
19132W        W23532   3.372   0.781  24.406 -0.1312  0.0296 -0.1880
19133W        W23533  25.289   7.132   6.842  0.0088  0.1179 -0.2182
19134W        W23534  25.462   2.172  17.146  0.2560  0.0865  0.1595
19135W        W23535  25.861   3.412   7.044  0.1144  0.0350  0.0667
19136W        W23536  28.194   3.178   9.482  0.0396  0.0604  0.4795
19137W        W23537   0.016   2.636  22.291  0.0263  0.1197  0.2325
19138W        W23538  22.737   5.327   0.547  0.1615  0.1316  0.0883
19139W        W23539  21.293   1.399   8.806  0.1469  0.0664  0.0990
19140W        W23540  21.971   4.092   9.087 -0.1679  0.1234 -0.1169
19141W        W23541  29.845   1.493   7.461  0.4293  0.3708  0.0604
19142W        W23542  30.894   7.548   9.001 -0.0837  0.1969  0.1269
19143W        W23543   7.043   5.455  19.582 -0.1224  0.0342 -0.1946
19144W        W23544  13.222   4.771  23.979  0.1021 -0.2110 -0.1334
19145W        W23545   0.272   2.661   3.405 -0.0597 -0.0525 -0.2423
19146W        W23546  15.976   4.369   6.982  0.1563  0.3950  0.0377
19147W        W23547  14.402   3.332  10.171  0.1466 -0.0660  0.1090
19148W        W23548   4.988   6.422  25.548  0.1590  0.2512 -0.1366
19149W        W23549  15.931   2.491   7.074 -0.5168 -0.0898  0.3430
19150W        W23550  24.486   1.567   3.738 -0.1714  0.1974 -0.1682
19151W        W23551   2.914   5.110   5.853  0.0677  0.0823  0.1044
19152W        W23552  22.180   4.213  22.299  0.0888  0.0392 -0.2156
19153W        W23553  22.327   5.712  24.210 -0.0973 -0.2204  0.2236
19154W        W23554  11.980   5.373  10.515 -0.0298  0.0868  0.2851
19155W        W23555   5.975   4.102  15.681 -0.1877 -0.0789 -0.0933
19156W        W23556   7.684   0.612  19.993 -0.2274  0.1797 -0.0164
19157W        W23557  27.021   7.551   7.656  0.1395  0.1608 -0.2441
19158W        W23558   0.951   0.844  23.848 -0.1353  0.2649  0.1079
19159W        W23559  22.826   5.935  19.728  0.0211 -0.0738  0.0520
19160W        W23560  10.003   2.994  15.763  0.0213  0.1140  0.3999
19161W        W23561  23.835   4.771  10.412 -0.1841 -0.1131  0.0447
19162W        W23562  10.204   5.718   0.578 -0.1560 -0.1164  0.1688
19163W        W23563   3.561   7.147  15.244 -0.2497  0.1951 -0.1140
19164W        W23564  15.859   6.142  17.096 -0.1207 -0.4086  0.1726
19165W        W23565  14.478   5.538  10.239  0.0110  0.0085 -0.0114
19166W        W23566  25.166   7.753   2.780 -0.0964  0.0750  0.0073
19167W        W23567  13.131   3.745   3.628 -0.2053 -0.0280 -0.0032
19168W        W23568   2.994   0.254  16.458  0.0529  0.1671  0.0059
19169W        W23569  26.443   0.292  21.644 -0.4012  0.0510  0.3875
19170W        W23570  22.097   4.915  19.059 -0.0626  0.0837  0.0001
19171W        W23571  15.207   5.380  20.648  0.1587  0.0667 -0.0086
19172W        W23572  19.685   4.318   2.117  0.1304  0.0541 -0.0017
19173W        W23573  27.309   6.290  19.060 -0.2285  0.1130  0.0291
19174W        W23574  23.448   2.739   0.342  0.0226 -0.1567  0.1371
19175W        W23575  13.665   2.829   8.418  0.0487 -0.0486  0.0364
19176W        W23576   7.807   1.400  21.544  0.0914  0.0087  0.2215
19177W        W23577   1.691   1.337  23.625  0.3638 -0.1432 -0.3391
19178W        W23578  17.238   2.870   8.579  0.2102  0.2550  0.1379
19179W        W23579   1.236   7.766  19.163 -0.0609 -0.1673  0.0737
19180W        W23580   5.108   5.991   1.669  0.0570  0.0545  0.0278
19181W        W23581  29.286   2.892  21.480 -0.2204 -0.0433  0.2442
19182W        W23582  18.587   3.846  25.323  0.2169  0.1037 -0.1736
19183W        W23583  29.219   2.540  16.953  0.4457 -0.1606  0.3570
19184W        W23584   9.520   5.245  20.663 -0.1263 -0.1407  0.2048
19185W        W23585  31.281   4.942  21.325 -0.2550  0.2012  0.0079
19186W        W23586  22.679   0.316  10.564  0.1091 -0.1627 -0.4452
19187W        W23587   8.486   7.243   8.967  0.2447 -0.0260  0.0244
19188W        W23588  28.746   4.853  23.267 -0.0687 -0.3600  0.0799
19189W        W23589  25.820   7.378  23.289 -0.0577  0.1432 -0.0594
19190W        W23590  14.690   5.010  11.577 -0.0837 -0.3291  0.1819
19191W        W23591  22.011   3.108  23.624  0.1016  0.0570  0.2725
19192W        W23592   1.482   5.231  19.355  0.0377  0.0909 -0.1046
19193W        W23593   4.406   6.436  22.723  0.0204 -0.0558 -0.3057
19194W        W23594  30.873   1.265  25.730 -0.1314 -0.0184 -0.0646
19195W        W23595  19.955   1.678  22.819 -0.0841  0.2719 -0.2266
19196W        W23596  26.648   7.654  19.327 -0.0193  0.2096 -0.1521
19197W        W23597   8.069   1.974  16.678  0.3548 -0.1102  0.1152
19198W        W23598   0.971   5.976  20.191 -0.0651 -0.0147 -0.2307
19199W        W23599  26.548   2.135  18.414 -0.2382 -0.3928  0.2981
19200W        W23600  23.758   2.924   0.746 -0.0349  0.4196  0.1295
19201W        W23601  29.242   7.198  19.293  0.0752 -0.0089 -0.4135
19202W        W23602  10.030   5.948  24.963 -0.2112 -0.0137 -0.0838
19203W        W23603  17.672   0.051   1.750 -0.1935  0.2621 -0.1238
19204W        W23604  30.255   7.856   6.652 -0.1040 -0.2075 -0.0146
19205W        W23605   7.448   2.096   6.633 -0.2179  0.0511  0.0773
19206W        W23606  27.539   4.193  10.138  0.1393 -0.2242 -0.2319
19207W        W23607  27.938   7.821  16.429  0.0166  0.0134 -0.0771
19208W        W23608  12.597   1.465  22.708 -0.1702  0.0786  0.2145
19209W        W23609  30.826   1.340  16.979 -0.0944  0.3275  0.0109
19210W        W23610  30.202   3.109   4.690  0.1095 -0.4157  0.0560
19211W        W23611  24.248   4.609  11.515  0.1796 -0.0975  0.2116
19212W        W23612  14.261   2.588  10.105 -0.1607  0.1541  0.0162
19213W        W23613   5.848   0.834  10.743  0.1738 -0.2897  0.0232
19214W        W23614  21.347   4.949   8.342 -0.1936  0.0775  0.1130
19215W        W23615   9.473   0.885   6.895  0.0595  0.1286  0.2506
19216W        W23616  29.298   2.731  17.778 -0.0187 -0.2873 -0.1326
19217W        W23617  18.594   5.970   1.810  0.1290 -0.3280  0.0489
19218W        W23618   1.748   0.631  16.378  0.2462 -0.2260  0.1194
19219W        W23619  14.220   2.030  10.143 -0.1643 -0.1669  0.1401
19220W        W23620  20.516   6.544  25.973  0.3417  0.2860  0.1301
19221W        W23621  31.120   0.018   0.091  0.0592  0.2533 -0.1346
19222W        W23622  11.538   4.906  16.017 -0.1677  0.4224  0.0185
19223W        W23623  29.203   3.384   3.814 -0.2241 -0.1100 -0.0370
19224W        W23624   2.442   6.782  14.850 -0.0110 -0.0408  0.1793
19225W        W23625  11.227   3.153   0.778  0.0277 -0.0139 -0.0379
19226W        W23626  29.441   7.387   8.604 -0.0499  0.0221 -0.1419
19227W        W23627  29.470   1.758   2.773  0.0359  0.1933 -0.0406
19228W        W23628  21.938   3.165  16.851  0.0152  0.0340 -0.2119
19229W        W23629   5.129   1.875  21.978  0.0048 -0.3148 -0.0126
19230W        W23630   8.333   4.742   2.718 -0.0949 -0.2868 -0.1899
19231W        W23631   6.606   1.435  25.697 -0.2770  0.0561  0.1719
19232W        W23632   4.638   5.018  21.307  0.1534  0.0953 -0.3969
19233W        W23633  10.912   1.531  19.858  0.2436  0.1200 -0.0714
19234W        W23634  25.551   1.026   8.975  0.1689  0.2206  0.0151
19235W        W23635  16.875   0.623   8.225 -0.1155 -0.1527  0.1128
19236W        W23636   6.459   7.218   9.852  0.3580 -0.1546 -0.0082
19237W        W23637  25.113   4.130  22.254  0.0476  0.1457 -0.2435
19238W        W23638   4.782   3.387   4.217  0.0424  0.1485  0.0811
19239W        W23639  28.689   7.449  18.794 -0.0644  0.0352 -0.1134
19240W        W23640  16.736   6.085  25.868 -0.1786 -0.1342 -0.2396
19241W        W23641   7.470   6.394  15.692 -0.2687 -0.1260 -0.2416
19242W        W23642  11.855   7.096   3.923 -0.0395  0.2819 -0.0712
19243W        W23643   6.523   5.309  14.398 -0.0677 -0.0759  0.1698
19244W        W23644   9.581   1.497   3.827  0.2112  0.0679  0.3514
19245W        W23645  17.668   5.439  20.379 -0.0794 -0.2083 -0.1125
19246W        W23646  29.620   4.631  19.406 -0.2697 -0.1926 -0.0518
19247W        W23647   1.694   6.692  19.868  0.3576 -0.1592  0.1782
19248W        W23648  14.092   4.236  23.303  0.0755 -0.0081 -0.0805
19249W        W23649  23.177   0.996  18.192  0.0690  0.1069  0.1303
19250W        W23650  30.598   3.005   2.101  0.2337 -0.1854 -0.1977
19251W        W23651  30.989   4.165  16.624  0.0180 -0.0897 -0.0226
19252W        W23652   8.536   4.722  25.454  0.0539  0.2136 -0.6082
19253W        W23653   2.895   0.493  18.224 -0.0613  0.0532 -0.1750
19254W        W23654  15.167   3.600   9.336 -0.1314 -0.3886  0.0043
19255W        W23655   6.740   5.242  17.476  0.3459  0.1445  0.2756
19256W        W23656  14.850   1.018  19.667  0.0429 -0.3687  0.1718
19257W        W23657   9.226   3.220  20.018 -0.1732  0.2391 -0.0035
19258W        W23658  26.635   0.533  20.216 -0.0891  0.1213 -0.0443
19259W        W23659  10.020   6.627   0.549 -0.1616 -0.2242 -0.2178
19260W        W23660  18.338   4.390  17.769  0.1118 -0.1560 -0.1336
19261W        W23661   7.722   6.492   5.807 -0.2810 -0.2985  0.0522
19262W        W23662  30.860   1.661   7.058 -0.0400 -0.1648 -0.0773
19263W        W23663  10.684   0.386   9.357  0.2019  0.1929  0.0363
19264W        W23664  27.629   4.886  19.674 -0.0300 -0.1270 -0.0302
19265W        W23665  17.711   4.059   8.374  0.0703  0.0546  0.2299
19266W        W23666  20.908   6.057   8.895 -0.0354 -0.0188 -0.1219
19267W        W23667  17.092   1.809   8.781 -0.3068  0.0221 -0.0309
19268W        W23668  18.065   5.724  15.357  0.1432 -0.0792  0.0174
19269W        W23669  13.243   4.575  17.820 -0.2979 -0.0472 -0.1080
19270W        W23670   7.335   4.896   2.946 -0.2068  0.2143 -0.0639
19271W        W23671  10.998   7.549  10.733  0.0504  0.2110 -0.0423
19272W        W23672  27.307   0.656   6.831  0.2290 -0.1480  0.0718
19273W        W23673   7.808   3.668  18.984 -0.2930 -0.0819  0.2298
19274W        W23674  21.639   2.803  22.001  0.0231 -0.0297 -0.0683
19275W        W23675  10.860   3.669   7.684 -0.0032 -0.2386  0.1294
19276W        W23676  11.338   1.236  23.966  0.0205 -0.3647  0.0581
19277W        W23677  23.577   4.047  18.157 -0.2623  0.1387  0.0058
19278W        W23678  11.143   7.433   0.207  0.1826  0.1405 -0.0283
19279W        W23679  13.238   5.780   2.974  0.0985  0.0046  0.0691
19280W        W23680  13.860   4.957  18.912 -0.1166  0.2334 -0.2359
19281W        W23681  14.198   3.488  22.988 -0.2155 -0.0444  0.3403
19282W        W23682  12.928   5.937  16.439  0.0285 -0.0328 -0.2386
19283W        W23683  11.514   6.678  19.346  0.2039  0.0496 -0.4030
19284W        W23684  24.458   5.901  14.718  0.1931 -0.0918  0.1326
19285W        W23685   5.194   7.456  24.130  0.3303 -0.1542 -0.0118
19286W        W23686   0.072   4.212   1.896  0.1590  0.1044  0.4866
19287W        W23687   4.172   7.180   5.801  0.0491  0.2378  0.4310
19288W        W23688  18.993   2.751   1.078  0.3173 -0.2114 -0.0405
19289W        W23689   3.826   7.087   4.863 -0.0512  0.1214  0.0528
19290W        W23690  27.765   6.133  23.139 -0.1678 -0.0109  0.0722
19291W        W23691  12.740   6.781  23.555 -0.1822 -0.0081  0.0102
19292W        W23692  18.887   5.652  25.197 -0.0893  0.1074  0.0114
19293W        W23693  19.157   2.416   1.573  0.0293  0.1574  0.1308
19294W        W23694  17.773   1.847  24.164 -0.2354 -0.1665  0.0875
19295W        W23695  23.657   3.732   7.343  0.2682  0.3108 -0.3574
19296W        W23696  16.529   5.608  19.360 -0.2854  0.1651  0.0151
19297W        W23697  26.185   1.505  16.308 -0.0214 -0.0350 -0.2463
19298W        W23698  30.468   5.869  23.931  0.0939 -0.0735  0.1033
19299W        W23699  24.445   0.157   8.729 -0.0459  0.2678  0.3898
19300W        W23700  15.283   0.914  16.184 -0.0082 -0.0255  0.1267
19301W        W23701  28.057   1.345  15.383 -0.0403 -0.1411  0.1529
19302W        W23702  30.447   1.403   9.149  0.1762 -0.2648  0.0753
19303W        W23703   9.936   0.407   0.332 -0.1387  0.0858 -0.0810
19304W        W23704   7.659   3.560  10.103  0.3141 -0.1362 -0.1959
19305W        W23705   2.780   3.807   5.987 -0.1596  0.2713  0.0638
19306W        W23706  27.748   7.390  24.607  0.1395 -0.0092  0.0557
19307W        W23707  12.067   3.441   4.813 -0.0444  0.0346 -0.1323
19308W        W23708   5.327   5.854  18.146 -0.1421 -0.0041 -0.0820
19309W        W23709   2.327   0.881  16.400 -0.0127  0.0915 -0.1336
19310W        W23710  26.484   5.547   4.654 -0.3124  0.2197  0.1084
19311W        W23711  23.368   1.251   1.258 -0.2634  0.0249  0.1530
19312W        W23712  21.014   7.377   7.146 -0.0826 -0.0076 -0.0823
19313W        W23713   4.840   4.053   9.913  0.2567  0.0796  0.1676
19314W        W23714  14.308   2.401  23.969  0.0730  0.0267 -0.3361
19315W        W23715  16.212   6.062  15.791  0.0421  0.1608  0.1352
19316W        W23716   4.089   3.246  23.580  0.1000 -0.3410 -0.0618
19317W        W23717  15.145   1.021  20.765  0.1839  0.1647  0.3148
19318W        W23718  22.480   0.741  10.214  0.0947  0.0332 -0.0403
19319W        W23719  13.721   3.055  11.722 -0.0888 -0.2519  0.1894
19320W        W23720  11.176   3.343  10.710  0.1236  0.1767  0.1020
19321W        W23721  23.444   5.462  10.467  0.2297 -0.4474  0.0635
19322W        W23722  13.732   6.384  15.417  0.2603  0.0103 -0.4507
19323W        W23723  17.522   7.018  25.308 -0.3422  0.2582  0.2621
19324W        W23724  22.454   1.341   9.200  0.0536 -0.2299 -0.0727
19325W        W23725  24.272   1.767   9.207 -0.1338  0.0451 -0.0440
19326W        W23726  11.284   1.651   5.814 -0.1727 -0.1685 -0.1940
19327W        W23727  11.794   2.018   1.968  0.2395 -0.0183 -0.1312
19328W        W23728  12.161   6.151  10.573 -0.1491  0.1891 -0.3293
19329W        W23729  18.092   7.668   6.782 -0.2221  0.0106 -0.1376
19330W        W23730  30.148   5.047   6.098 -0.0092 -0.0680  0.0092
19331W        W23731   3.400   7.281   1.742  0.0681  0.0658  0.1642
19332W        W23732  15.947   3.375   1.895 -0.1004 -0.0900 -0.3114
19333W        W23733   2.183   7.706   2.952  0.3353 -0.0139 -0.0161
19334W        W23734  19.099   3.501  18.153  0.1257 -0.0596  0.0322
19335W        W23735  10.001   4.393  24.036  0.1443  0.1366 -0.0538
19336W        W23736   9.700   7.238  19.725 -0.1965  0.0140 -0.0670
19337W        W23737   3.379   7.166   5.233  0.0991 -0.0500  0.1493
19338W        W23738  28.176   4.830   9.830 -0.1227  0.1504  0.0712
19339W        W23739   9.129   1.517   4.762 -0.1885 -0.0816  0.0026
19340W        W23740  18.284   4.769   3.836 -0.4828  0.1697  0.1530
19341W        W23741  16.831   5.887  22.457  0.0423  0.1906 -0.3280
19342W        W23742  16.876   0.107   5.573 -0.0078 -0.0536 -0.0360
19343W        W23743   1.288   5.804  17.073 -0.2325 -0.0339 -0.1142
19344W        W23744  17.513   5.985   2.359 -0.0981 -0.1761  0.0520
19345W        W23745  31.252   4.662  19.808  0.0864  0.1743  0.1137
19346W        W23746  18.935   0.338   9.771 -0.0761  0.0232 -0.1375
19347W        W23747  13.593   3.703  18.850  0.1045  0.2535  0.3504
19348W        W23748  28.174   7.385  19.788 -0.2733  0.0594 -0.2107
19349W        W23749  19.362   2.515  16.984  0.1506 -0.2575 -0.0002
19350W        W23750  29.691   7.203  23.437  0.1291  0.1563  0.2489
19351W        W23751  25.425   4.275   7.494  0.0174 -0.2486 -0.0952
19352W        W23752   9.745   2.701  22.248  0.0643  0.2083 -0.1072
19353W        W23753  25.313   2.939   9.836 -0.0644 -0.0200  0.0405
19354W        W23754   6.976   1.077  11.212  0.0574  0.0351  0.1284
19355W        W23755  25.434   3.019  20.397 -0.3385  0.1189  0.0668
19356W        W23756  11.620   3.724  22.065  0.1835 -0.0966 -0.4796
19357W        W23757   8.430   5.224   7.545 -0.2010 -0.0648 -0.3536
19358W        W23758  15.458   7.828   1.478 -0.0257  0.0131  0.1843
19359W        W23759  19.258   5.153  22.059  0.1079 -0.1608 -0.1762
19360W        W23760  30.290   4.116  18.667  0.3045 -0.0512 -0.1284
19361W        W23761   9.768   6.405   7.603 -0.2963  0.1041  0.1770
19362W        W23762  11.732   4.153   0.722  0.0410 -0.1056 -0.0064
19363W        W23763   0.390   4.730  19.521  0.2048  0.0952  0.1463
19364W        W23764   9.899   2.434   4.034  0.0723  0.0135 -0.2614
19365W        W23765  20.458   2.784  23.017 -0.1742 -0.1241 -0.2549
19366W        W23766   0.093   2.488  15.625 -0.3317 -0.2730  0.1910
19367W        W23767  19.823   1.966  19.842  0.0895  0.0315 -0.2167
19368W        W23768   6.962   0.175   3.484  0.0547  0.2296  0.0697
19369W        W23769  25.377   2.381   0.042  0.2939  0.2049  0.0987
19370W        W23770  18.198   1.662  18.394  0.1111 -0.1593  0.1908
19371W        W23771   4.996   6.223  24.912  0.0982  0.1266 -0.0872
19372W        W23772  11.485   2.331  23.061  0.1456 -0.0705 -0.1748
19373W        W23773  23.429   5.933  24.731  0.1660 -0.3584 -0.4730
19374W        W23774  14.397   0.557  23.962  0.2898 -0.0918  0.0877
19375W        W23775  31.090   0.039  19.417 -0.0014  0.0866  0.3195
19376W        W23776  24.189   4.645  15.597 -0.0879 -0.3284 -0.0514
19377W        W23777  11.145   6.743  24.635  0.1177 -0.4327 -0.2171
19378W        W23778  16.069   4.246  22.390  0.4211  0.2532 -0.2362
19379W        W23779   9.798   1.817   7.794 -0.0375  0.0732  0.2510
19380W        W23780  27.998   0.999  19.412 -0.0549 -0.1808 -0.0839
19381W        W23781   0.311   0.395  15.783  0.0249  0.1393 -0.0326
19382W        W23782   7.073   1.829  14.696  0.0534 -0.0206  0.1692
19383W        W23783   8.450   4.318  17.010  0.2524 -0.0115 -0.1139
19384W        W23784  30.204   0.542  21.623  0.1343  0.0128  0.1320
19385W        W23785  20.801   7.505  11.047  0.2230 -0.0700  0.1670
19386W        W23786  12.509   6.809   3.420  0.1735 -0.4226 -0.0564
19387W        W23787   0.491   4.462   1.791  0.0332  0.1465  0.0421
19388W        W23788   5.106   2.251  24.878  0.1869 -0.0179 -0.0596
19389W        W23789  19.943   5.723   5.558 -0.1669  0.0400 -0.3067
19390W        W23790  29.961   2.511  18.716  0.2533 -0.3900  0.2379
19391W        W23791   7.834   2.130  21.403  0.1084 -0.2201  0.0591
19392W        W23792  25.231   0.573   4.469 -0.1923 -0.2272  0.0974
19393W        W23793  22.407   6.405   6.473 -0.0165  0.1457  0.0478
19394W        W23794  28.709   3.121   4.607 -0.1810  0.0235  0.0684
19395W        W23795  24.179   5.842   6.319 -0.0715  0.1278 -0.1538
19396W        W23796  22.872   7.678   9.159 -0.0317 -0.0593 -0.1924
19397W        W23797  20.296   1.375   3.392 -0.0397  0.3810  0.0972
19398W        W23798  19.745   1.610  19.424 -0.1255 -0.3175  0.1472
19399W        W23799   0.677   0.804  14.759  0.3266 -0.0124 -0.1313
19400W        W23800  13.577   5.687   4.211  0.0833  0.3137 -0.1112
19401W        W23801  25.424   1.586   6.739  0.1266 -0.2205  0.1093
19402W        W23802  11.844   0.900  16.968  0.1219 -0.0412  0.1787
19403W        W23803   6.963   5.020   6.729 -0.0508  0.2043 -0.0269
19404W        W23804  30.248   6.741  17.840  0.0059  0.2454 -0.2017
19405W        W23805  14.245   0.721   1.052 -0.1617 -0.0140 -0.0287
19406W        W23806  27.333   0.149   2.675 -0.0238  0.3549 -0.0628
19407W        W23807  11.934   4.292  16.245 -0.0465 -0.2725  0.1860
19408W        W23808  11.966   4.344  19.694  0.3516 -0.0842  0.1938
19409W        W23809  22.696   5.600   4.926 -0.1111 -0.1107  0.2800
19410W        W23810   3.787   6.024   8.377 -0.2258  0.1655  0.0276
19411W        W23811  20.308   0.884   5.137 -0.0558  0.0401 -0.0400
19412W        W23812  10.384   2.319   6.105 -0.0047  0.1850 -0.0550
19413W        W23813  21.604   7.523  23.972  0.3379  0.1795 -0.1015
19414W        W23814  11.591   0.021  24.543  0.0793 -0.0832 -0.0345
19415W        W23815  21.337   0.181  10.455  0.1433  0.0336  0.0849
19416W        W23816   8.469   6.460  20.018  0.0674  0.0486  0.0483
19417W        W23817  17.406   6.593   6.012  0.0734 -0.1101  0.3733
19418W        W23818  15.306   5.116   7.610  0.2288  0.2716  0.1457
19419W        W23819   6.327   0.479  16.844  0.1142  0.0892  0.2267
19420W        W23820   1.217   5.684   3.854  0.1361  0.0012  0.0784
19421W        W23821  27.696   2.563   2.929 -0.0447 -0.0673 -0.3587
19422W        W23822  30.994   3.430  16.074 -0.0016 -0.2271 -0.1489
19423W        W23823  18.169   5.149  22.013 -0.0688  0.0741 -0.1653
19424W        W23824   7.926   6.670  25.733 -0.1968 -0.0532  0.1329
19425W        W23825  22.549   3.540   0.261  0.2212 -0.1439  0.1309
19426W        W23826  18.026   5.055  22.885  0.1113 -0.2439  0.1432
19427W        W23827   7.431   0.857  10.025 -0.0525 -0.4679 -0.1709
19428W        W23828   2.633   4.169   1.227  0.1711  0.1746 -0.0005
19429W        W23829  24.278   3.677  22.259 -0.1746 -0.1016  0.0033
19430W        W23830  27.336   4.392  17.182  0.1392 -0.1538 -0.1040
19431W        W23831   0.329   2.968  16.195  0.1126  0.3585 -0.0744
19432W        W23832  13.771   6.311   8.021  0.0194 -0.0492 -0.0183
19433W        W23833  12.635   3.920  19.216 -0.3848 -0.2956 -0.0608
19434W        W23834   3.330   2.908  18.694 -0.2185  0.0727  0.0744
19435W        W23835  24.399   3.530  20.299 -0.1539  0.1930  0.0613
19436W        W23836  29.902   0.497  17.640  0.0681 -0.0599  0.2782
19437W        W23837   3.116   7.192   1.186  0.2253 -0.1997  0.1496
19438W        W23838  11.273   6.322   5.086  0.0427  0.1991 -0.1106
19439W        W23839  30.135   1.782   6.190  0.1434 -0.3415 -0.1060
19440W        W23840  21.666   4.388   6.160  0.1317  0.0552  0.2366
19441W        W23841  31.350   2.955   3.457 -0.1039  0.0759  0.0164
19442W        W23842  21.246   6.296  19.632 -0.3023  0.0246  0.0502
19443W        W23843   3.376   3.664  24.769 -0.0260  0.0196 -0.0255
19444W        W23844  24.619   3.994  19.425 -0.1009  0.0935  0.0143
19445W        W23845  29.346   3.801  24.126 -0.1030 -0.2648 -0.2282
19446W        W23846  26.389   3.545  18.587  0.0622 -0.2275  0.0620
19447W        W23847  11.257   0.994   8.797 -0.0491 -0.0241  0.1037
19448W        W23848  16.290   5.266   7.745 -0.0634 -0.0280 -0.0117
19449W        W23849  28.422   2.218  16.579 -0.0748 -0.0413  0.1645
19450W        W23850   2.555   0.521   3.471 -0.0581  0.0821  0.2517
19451W        W23851  12.852   5.098   5.001  0.0412 -0.1925  0.1686
19452W        W23852  27.220   7.797  20.898 -0.0872  0.1077 -0.2209
19453W        W23853  17.444   1.009  21.398  0.0869 -0.1016  0.1248
19454W        W23854  23.071   5.380  18.927  0.0317  0.0925 -0.0671
19455W        W23855   7.802   1.579   6.315  0.1175  0.0359  0.0957
19456W        W23856   8.082   1.426   3.304 -0.0243 -0.0735  0.1387
19457W        W23857  15.789   0.946   6.277  0.0171 -0.3530  0.0088
19458W        W23858  26.652   2.428  19.275 -0.0775  0.0136  0.0558
19459W        W23859  13.085   2.488  24.660 -0.1618  0.0746  0.1632
19460W        W23860  15.598   3.898  21.689 -0.2488 -0.3077  0.1395
19461W        W23861  12.536   0.336  24.202 -0.4023  0.0826 -0.0069
19462W        W23862  15.064   0.970  25.346  0.3035  0.0928  0.1422
19463W        W23863  20.583   3.281  17.098  0.1553 -0.1041  0.0694
19464W        W23864  30.278   3.602   4.647  0.1197 -0.0278  0.3569
19465W        W23865  28.447   0.058   0.672  0.0414  0.3388  0.1358
19466W        W23866  21.680   7.133  17.719  0.2193 -0.2761 -0.2151
19467W        W23867   7.265   0.331  15.381 -0.1342  0.0811 -0.0984
19468W        W23868   3.307   2.377  21.113  0.0157 -0.2807  0.5517
19469W        W23869  22.191   7.089   4.881 -0.2694 -0.0293 -0.3816
19470W        W23870  13.594   6.650   2.787 -0.0142 -0.1805  0.2049
19471W        W23871   0.007   7.278  24.649 -0.2068 -0.0343 -0.0227
19472W        W23872   2.739   1.258   2.313 -0.1062  0.3307  0.1455
19473W        W23873  29.831   6.271  22.846 -0.1209 -0.2313 -0.0358
19474W        W23874   7.070   1.109   3.097 -0.0557 -0.3336 -0.0115
19475W        W23875  10.976   5.094  20.389  0.0800  0.0423  0.2272
19476W        W23876  24.342   4.370  24.603 -0.1684 -0.0928  0.1812
19477W        W23877  17.372   2.535   9.698 -0.0275 -0.2392  0.1842
19478W        W23878  21.253   1.492  10.923 -0.0059  0.1248 -0.3322
19479W        W23879  30.424   7.069  18.831  0.1531  0.0966 -0.0082
19480W        W23880   8.191   5.699  22.613  0.1922  0.0598  0.2451
19481W        W23881  21.653   4.884  24.255  0.0423  0.2235  0.2702
19482W        W23882  14.648   3.703   0.574  0.1307  0.0690 -0.0368
19483W        W23883  21.708   2.964  17.883  0.0257 -0.1674  0.2840
19484W        W23884   7.299   5.603  16.342  0.1886  0.1234  0.0118
19485W        W23885   4.567   5.143  23.283 -0.0600 -0.0941 -0.2402
19486W        W23886  27.909   7.230   7.679  0.0642  0.0555 -0.0443
19487W        W23887  28.753   0.441   0.732  0.3230  0.3446  0.0952
19488W        W23888   6.438   3.046  23.698  0.2349  0.0667  0.1306
19489W        W23889   4.208   6.598  10.404 -0.0625  0.2261  0.0598
19490W        W23890  24.858   6.491  23.917  0.0403 -0.3781 -0.0631
19491W        W23891  13.521   5.004  17.742  0.2628  0.3218  0.0601
19492W        W23892  27.117   4.030   8.762 -0.0131 -0.1126 -0.4565
19493W        W23893   3.806   1.331   8.747 -0.2070  0.0913 -0.0002
19494W        W23894   8.276   6.982  20.077 -0.2967  0.0874  0.0721
19495W        W23895   6.089   5.535   5.745 -0.0515 -0.2873 -0.0259
19496W        W23896  24.903   5.989  20.638 -0.3059  0.0130  0.1374
19497W        W23897  21.123   6.987   7.901 -0.0792  0.0276 -0.0245
19498W        W23898   1.296   5.916  21.170 -0.0340  0.0428  0.0654
19499W        W23899  20.554   4.939  19.498  0.2245  0.3294 -0.4273
19500W        W23900   4.143   0.302  21.631 -0.3193 -0.1511  0.0569
19501W        W23901   4.917   0.450  20.169  0.0486 -0.0455 -0.2044
19502W        W23902   1.476   6.742  19.002  0.1476  0.1861 -0.2329
19503W        W23903  12.990   5.211  19.266  0.1017  0.0263 -0.0087
19504W        W23904  27.746   6.088   8.808 -0.1260 -0.0689 -0.1053
19505W        W23905  27.895   5.500   2.799  0.0839 -0.2066  0.1400
19506W        W23906   5.743   0.761  20.006  0.0045  0.1008 -0.0217
19507W        W23907  23.508   7.481  23.864 -0.0231  0.2137 -0.1003
19508W        W23908   2.179   2.885  15.567 -0.0270 -0.0418  0.0570
19509W        W23909  21.837   4.556  21.926 -0.0519 -0.1934  0.1097
19510W        W23910   2.776   6.128  25.781 -0.0936 -0.0170  0.1587
19511W        W23911  20.664   1.564  25.352  0.0847  0.0363  0.4629
19512W        W23912  20.105   6.962   1.712  0.1911 -0.0279 -0.0053
19513W        W23913   0.507   5.085  25.392 -0.1306  0.1271 -0.1640
19514W        W23914  11.675   4.147  10.422  0.1691  0.0297  0.0221
19515W        W23915  29.786   3.272   0.697  0.1524 -0.3370  0.2114
19516W        W23916  27.884   0.931   8.716 -0.3976 -0.0623 -0.0641
19517W        W23917  25.379   6.043   2.673  0.0367 -0.2779  0.1927
19518W        W23918  17.283   4.263   2.792 -0.2861 -0.1945  0.4751
19519W        W23919  17.307   4.083  22.682  0.1363 -0.1103  0.2916
19520W        W23920   1.624   5.049   3.386 -0.0201 -0.1947 -0.1510
19521W        W23921  27.340   3.426  22.014 -0.1488 -0.1073  0.2739
19522W        W23922   6.348   4.887   0.383  0.0168 -0.1235 -0.2085
19523W        W23923  13.054   5.080  20.616 -0.0337  0.1900 -0.1543
19524W        W23924  21.192   4.971  17.270 -0.2442 -0.3046  0.3034
19525W        W23925   0.741   0.267  18.353  0.1108 -0.0062  0.1329
19526W        W23926  17.301   2.168   9.211 -0.5114 -0.1206 -0.1147
19527W        W23927  16.207   6.761   3.509  0.1268  0.2241 -0.1813
19528W        W23928   9.015   5.198  15.700 -0.0055  0.0289 -0.0844
19529W        W23929   5.038   0.598  23.120 -0.2546  0.2353 -0.2577
19530W        W23930  29.184   2.549  22.184  0.0856 -0.0740  0.0001
19531W        W23931  27.476   7.439  10.143  0.1335 -0.0170  0.1611
19532W        W23932  28.661   1.227  23.218 -0.0035 -0.1439  0.1431
19533W        W23933   5.207   3.434  22.195 -0.2439  0.0319 -0.0362
19534W        W23934   6.009   2.687   2.799  0.0377  0.0489 -0.0485
19535W        W23935   6.885   5.125   7.512  0.3412 -0.2197  0.0531
19536W        W23936   1.146   5.442  21.020 -0.1850  0.0261  0.2670
19537W        W23937  15.388   2.867  18.541 -0.0572  0.0803 -0.1865
19538W        W23938  14.783   1.944   5.684  0.5851 -0.2091 -0.2392
19539W        W23939  23.449   1.675   2.085 -0.2357 -0.1775 -0.0388
19540W        W23940  24.820   5.150   6.078 -0.1131  0.1360  0.4145
19541W        W23941  19.893   0.879  10.168  0.2089  0.0282  0.2296
19542W        W23942  17.009   3.162  16.958  0.1981  0.1255 -0.2069
19543W        W23943  25.367   2.525  20.274 -0.3187  0.0870  0.1672
19544W        W23944  10.262   3.787  10.382 -0.1735 -0.4363  0.2029
19545W        W23945  12.325   3.265   3.434  0.0303  0.0445 -0.0357
19546W        W23946  30.145   2.592   7.823  0.5116  0.0048  0.2347
19547W        W23947  10.065   5.446   8.582 -0.2752  0.2332  0.1508
19548W        W23948  12.083   7.335   8.206 -0.2941  0.2164 -0.0763
19549W        W23949  29.220   5.962  10.202  0.2517 -0.1666  0.2142
19550W        W23950  31.007   2.849  19.508  0.2997  0.1919  0.0416
19551W        W23951   3.710   1.647  25.583 -0.0405  0.0887  0.1170
19552W        W23952   2.174   2.626  16.054 -0.2587  0.0445  0.0625
19553W        W23953   2.394   5.196   4.427  0.0232 -0.0622 -0.0400
19554W        W23954  29.653   6.017   8.263  0.0209  0.3352 -0.0616
19555W        W23955  21.240   1.792   6.573 -0.2192 -0.0281 -0.1192
19556W        W23956  16.075   5.252   7.251  0.3172  0.0011  0.2127
19557W        W23957   6.611   5.103   9.080  0.0975  0.0052  0.1068
19558W        W23958  24.586   5.887  20.158  0.0582 -0.3777  0.2041
19559W        W23959  19.321   4.169   7.568  0.0641 -0.1763 -0.0640
19560W        W23960   1.132   3.861   7.129 -0.0618  0.0622 -0.4343
19561W        W23961   5.424   0.301   6.269 -0.0528 -0.4613 -0.1328
19562W        W23962   1.685   7.209   2.400  0.1572  0.0274  0.0874
19563W        W23963  24.175   2.232   9.403 -0.1130  0.1044  0.0166
19564W        W23964   6.776   0.621  15.980  0.0857 -0.0653  0.1359
19565W        W23965  30.129   2.719   9.556  0.2135  0.1598  0.0154
19566W        W23966  16.331   3.450  21.180 -0.0966 -0.1354  0.2821
19567W        W23967  22.936   4.526   4.913 -0.0651  0.0232  0.0046
19568W        W23968  12.405   4.866   7.534  0.0931 -0.1204  0.0365
19569W        W23969  27.905   4.522  19.132 -0.0833  0.0071  0.1027
19570W        W23970  29.260   1.728  19.154  0.2316  0.2231  0.0149
19571W        W23971   8.387   4.171  25.266 -0.1882 -0.2838  0.2919
19572W        W23972  26.373   0.294  11.157 -0.1593 -0.0838  0.1362
19573W        W23973  27.427   1.992  20.885  0.3458  0.2563 -0.0682
19574W        W23974  18.180   7.172  10.335  0.0519  0.0751  0.2731
19575W        W23975  19.358   3.433  20.507 -0.1319 -0.0577  0.1306
19576W        W23976   8.942   4.259  19.272 -0.1131  0.5606  0.2520
19577W        W23977  30.129   2.458   4.058 -0.2435 -0.0619 -0.0399
19578W        W23978  24.605   2.379   0.747 -0.2763  0.0332  0.1737
19579W        W23979   3.372   5.754   8.162 -0.0786  0.0238 -0.0789
19580W        W23980  16.676   5.868  18.893 -0.2284  0.1065 -0.0339
19581W        W23981  25.684   3.660  16.885 -0.2995  0.1984  0.2399
19582W        W23982  30.313   5.290   1.733 -0.1086 -0.0729  0.1888
19583W        W23983  21.428   0.818   5.706  0.1204 -0.1566  0.0600
19584W        W23984  31.194   6.415  21.844 -0.2833  0.2044 -0.0329
19585W        W23985  13.193   3.122  20.118 -0.0587 -0.0102 -0.1757
19586W        W23986  14.632   0.809   7.901 -0.1117  0.1588  0.0026
19587W        W23987   3.016   3.735   5.119  0.1222 -0.2567  0.1181
19588W        W23988  11.814   3.650  16.787  0.0379  0.0330  0.1956
19589W        W23989   3.199   4.111   7.184  0.1393 -0.2300 -0.1368
19590W        W23990  20.780   3.730   8.485  0.0683 -0.2725  0.3766
19591W        W23991  12.174   3.585  24.736  0.1220  0.0731  0.1740
19592W        W23992   8.084   0.283  16.083  0.1057  0.1051 -0.1031
19593W        W23993   1.744   2.116   7.991  0.0868 -0.1555 -0.0640
19594W        W23994   6.187   3.323  24.034 -0.0541 -0.1549 -0.1119
19595W        W23995  23.625   1.233  16.063  0.1419 -0.1328  0.0502
19596W        W23996  12.352   4.501   9.622  0.0882 -0.1991 -0.1025
19597W        W23997   8.104   3.660  25.296  0.1902  0.3206 -0.0554
19598W        W23998   2.513   5.105  15.205  0.1383 -0.0773  0.2132
19599W        W23999  17.074   2.487  10.917 -0.0795  0.2628 -0.1612
19600W        W24000  24.180   3.189  11.152  0.1348  0.2786  0.1952
19601W        W24001   8.477   1.620   5.527 -0.0714  0.1564  0.0381
19602W        W24002  19.726   0.598  11.503  0.0576  0.2841 -0.1446
19603W        W24003  21.764   1.775  21.214 -0.0483 -0.1773 -0.1695
19604W        W24004   7.736   2.646  17.605 -0.4013  0.0559  0.0118
19605W        W24005  27.832   5.639   6.443  0.5863 -0.0025  0.2686
19606W        W24006  20.972   1.741  22.654 -0.0942 -0.0933  0.0865
19607W        W24007   3.562   6.676  23.764  0.1476 -0.0240  0.1456
19608W        W24008   0.950   0.099  19.513  0.0205  0.0073  0.1744
19609W        W24009  15.257   3.345  24.749  0.0529 -0.2008 -0.0563
19610W        W24010   2.195   2.763  18.920 -0.1041 -0.0881 -0.0799
19611W        W24011   2.548   4.148   2.916  0.0741  0.2087 -0.2118
19612W        W24012   8.063   1.257  25.920 -0.1702 -0.1196 -0.0206
19613W        W24013   3.949   4.398  16.437  0.1373 -0.0687  0.0189
19614W        W24014  12.620   5.611  20.114 -0.1815  0.1436  0.1689
19615W        W24015  12.877   0.153  20.395  0.3053 -0.1906  0.0116
19616W        W24016   5.702   7.385   6.904 -0.0048 -0.4059  0.1241
19617W        W24017   3.401   7.747  22.396  0.0131 -0.1802 -0.1379
19618W        W24018   0.103   5.518   1.419  0.0213  0.0174  0.2297
19619W        W24019   0.320   4.605  24.592  0.0764 -0.1933 -0.0866
19620W        W24020  10.675   5.757  16.981 -0.3699 -0.0209  0.0986
19621W        W24021  16.299   1.584   1.337  0.4574 -0.0642 -0.1907
19622W        W24022  10.025   4.035   8.579  0.1182 -0.0819 -0.0863
19623W        W24023  12.668   6.258  25.271  0.0897 -0.0680  0.1537
19624W        W24024  30.840   2.659   3.730  0.2544  0.0614  0.2722
19625W        W24025  29.203   6.716  21.861  0.0744 -0.1273  0.4558
19626W        W24026   2.063   0.721   3.554  0.3327  0.1342 -0.2619
19627W        W24027  10.255   6.245  25.275 -0.5413  0.1433 -0.0464
19628W        W24028  23.351   7.466  18.787 -0.0739 -0.1056 -0.1535
19629W        W24029  26.274   4.327   1.867  0.2511 -0.2349 -0.1613
19630W        W24030   3.783   2.583  20.965  0.0919 -0.3165  0.3638
19631W        W24031  12.117   6.560  10.855 -0.0629 -0.2881 -0.0835
19632W        W24032  19.766   5.913   0.036  0.3055 -0.1083 -0.1773
19633W        W24033   6.735   6.353   8.700 -0.1606  0.1442  0.0532
19634W        W24034  26.203   2.017  19.366 -0.3360 -0.1522  0.1064
19635W        W24035  31.188   5.211   1.167  0.1225 -0.0636 -0.1122
19636W        W24036  19.107   6.972  25.261  0.1206 -0.4258  0.2217
19637W        W24037  12.114   3.948   6.563 -0.3546  0.2634  0.3362
19638W        W24038  23.228   3.722  20.271  0.1529 -0.2924 -0.0793
19639W        W24039   9.912   4.803  15.361  0.0249  0.0775  0.0189
19640W        W24040   1.979   3.521  24.759  0.0554 -0.0804 -0.0836
19641W        W24041   6.287   6.680  16.239 -0.0378 -0.0742 -0.1879
19642W        W24042  14.872   4.075  19.631  0.3010  0.0012 -0.1747
19643W        W24043  31.265   1.850  20.766 -0.0655 -0.0784  0.0103
19644W        W24044   0.339   2.717  25.310 -0.1294  0.3903 -0.0190
19645W        W24045  10.930   0.968  20.258 -0.0707 -0.1923 -0.4090
19646W        W24046  17.788   5.323   7.566  0.1304 -0.0409 -0.0183
19647W        W24047   9.571   3.546  18.792  0.0206  0.2533  0.2417
19648W        W24048  21.196   0.863   5.223  0.1201 -0.1692 -0.0690
19649W        W24049  29.949   4.482  22.537  0.3827 -0.0109 -0.0606
19650W        W24050  19.036   4.294  16.296  0.1651 -0.1442  0.0411
19651W        W24051   1.170   6.355  18.500  0.0324  0.0899 -0.2666
19652W        W24052   7.031   3.804  19.698 -0.0111  0.0275 -0.2565
19653W        W24053  11.314   5.883  20.226 -0.0571 -0.0991 -0.2961
19654W        W24054  19.097   0.396  22.618 -0.4326 -0.2354  0.1387
19655W        W24055  25.775   6.152   7.339  0.0221 -0.0402  0.0120
19656W        W24056  24.229   0.212  20.706 -0.0151 -0.1490 -0.1307
19657W        W24057  26.133   4.568  22.499 -0.0098  0.0721 -0.3100
19658W        W24058   1.626   5.047   4.672  0.1367 -0.2836  0.2819
19659W        W24059  30.397   1.665  16.298  0.1090 -0.0597  0.0423
19660W        W24060  22.188   2.744  17.922  0.1706  0.1557  0.2192
19661W        W24061  28.486   0.030   9.702 -0.1095 -0.1574  0.0581
19662W        W24062   3.334   2.097   1.258  0.3022  0.2015  0.1169
19663W        W24063  27.845   2.165  15.385 -0.0746 -0.0847  0.1040
19664W        W24064   5.556   6.962   5.078  0.2015  0.2318  0.0271
19665W        W24065  18.268   6.433   7.352 -0.0952  0.1779 -0.0163
19666W        W24066   0.460   2.807   0.812 -0.5194  0.0811  0.1251
19667W        W24067  13.210   6.380   4.323  0.0490 -0.1227 -0.1095
19668W        W24068  29.777   4.632   7.474  0.0587  0.1048  0.1675
19669W        W24069  11.294   2.351  24.209  0.2054 -0.0876 -0.1440
19670W        W24070  13.803   4.716  25.935 -0.0409  0.2439 -0.1495
19671W        W24071  13.846   4.914   0.344  0.3514 -0.1433 -0.0714
19672W        W24072   9.087   6.951  17.436  0.1613 -0.0292  0.0814
19673W        W24073  14.454   1.083  24.139  0.0620  0.0416  0.0824
19674W        W24074  18.901   6.476  20.256  0.1342  0.1226 -0.0403
19675W        W24075  12.147   1.556   6.487  0.1034  0.2122 -0.1198
19676W        W24076   3.565   2.592   1.437 -0.0644  0.1869 -0.2503
19677W        W24077   0.109   0.974  22.170  0.1817  0.0990 -0.0586
19678W        W24078  29.217   6.004  16.286  0.4198  0.2847 -0.1440
19679W        W24079  26.883   3.117   1.498  0.0279 -0.5507  0.2829
19680W        W24080   6.639   6.995  20.420 -0.0169 -0.2512  0.3101
19681W        W24081  16.349   2.449  20.621  0.1456 -0.0464  0.1198
19682W        W24082  20.099   4.084   4.260  0.2294  0.3152  0.0941
19683W        W24083  19.966   4.096  15.989 -0.3680 -0.1879 -0.0139
19684W        W24084  16.455   4.751   8.832  0.0928  0.1466 -0.1054
19685W        W24085  26.932   3.043  17.493  0.2849  0.1011 -0.0066
19686W        W24086   7.391   6.801  15.318  0.0637 -0.0199 -0.0627
19687W        W24087  26.878   5.221  19.493  0.2142 -0.1100 -0.1893
19688W        W24088  18.876   1.058  18.518  0.0973 -0.0361 -0.1794
19689W        W24089  23.527   3.948  10.536 -0.1913 -0.0593 -0.1182
19690W        W24090   5.249   2.172  23.394  0.0998  0.0134 -0.0194
19691W        W24091  15.707   7.709  19.839 -0.1538 -0.2445  0.1320
19692W        W24092  26.365   4.790  17.485  0.0368  0.1394  0.1472
19693W        W24093  15.413   0.846   4.929  0.0007 -0.0194 -0.0423
19694W        W24094   9.508   2.706  24.653 -0.0072 -0.0451 -0.1186
19695W        W24095   1.143   0.714  20.061 -0.3502  0.2778  0.0661
19696W        W24096  10.217   3.850   4.321 -0.1346 -0.4039  0.0596
19697W        W24097  31.363   5.448  25.116 -0.0427 -0.2241 -0.4837
19698W        W24098  12.073   5.425  20.753  0.2113 -0.1873  0.1226
19699W        W24099  28.331   2.827  25.177  0.2129 -0.1503  0.1997
19700W        W24100  15.932   4.148  10.275 -0.3418 -0.0826  0.1577
19701W        W24101  26.391   1.000  23.512  0.0851 -0.0461  0.2408
19702W        W24102  31.252   7.224  15.953 -0.2176 -0.2052  0.0220
19703W        W24103   7.404   1.947   4.530 -0.0483  0.0894  0.1415
19704W        W24104   9.182   1.017   2.374 -0.0339  0.1734 -0.3532
19705W        W24105  21.061   6.726   0.016 -0.1209  0.1266 -0.0530
19706W        W24106   5.921   6.456  16.435 -0.0174 -0.3746 -0.1187
19707W        W24107   5.486   0.895  16.560  0.0455 -0.0299 -0.1844
19708W        W24108   6.439   1.014   0.171 -0.1206 -0.3538  0.0778
19709W        W24109   5.133   6.754   8.058  0.1203  0.2616  0.0137
19710W        W24110  18.781   1.532  18.316  0.1352  0.0105  0.0307
19711W        W24111  29.037   4.396   3.724 -0.2033 -0.0271 -0.0759
19712W        W24112   5.963   2.777   6.097 -0.1141 -0.0111  0.1046
19713W        W24113   2.180   0.264   6.555  0.2446 -0.2181  0.0628
19714W        W24114   1.820   0.861   2.163 -0.1383  0.0787 -0.2214
19715W        W24115   0.623   1.177  18.068 -0.3250 -0.0712 -0.3601
19716W        W24116  30.571   6.539  22.323 -0.3518 -0.0732  0.3086
19717W        W24117  23.451   2.613   1.074 -0.0471 -0.0857  0.1866
19718W        W24118  11.407   6.862  15.319 -0.0064  0.1403 -0.3412
19719W        W24119  11.318   3.941  10.689  0.2020  0.2521 -0.2627
19720W        W24120  25.925   2.937   2.950  0.0534 -0.0229  0.0494
19721W        W24121  30.391   1.864  18.989  0.0023 -0.0759 -0.0053
19722W        W24122   2.105   5.074   2.295 -0.1470 -0.0736  0.2333
19723W        W24123  11.044   2.704  10.235 -0.0227 -0.0396 -0.1307
19724W        W24124   6.120   0.208   7.411  0.1938 -0.0045 -0.0843
19725W        W24125  26.435   7.324   9.273  0.0541 -0.0512 -0.0857
19726W        W24126   2.717   4.816  20.758  0.1622 -0.0785  0.1638
19727W        W24127  13.300   4.605   6.855  0.4159  0.4440  0.1870
19728W        W24128  16.309   5.062  22.731 -0.2887 -0.1906  0.0483
19729W        W24129  14.386   1.086  19.851  0.2181  0.0910  0.0332
19730W        W24130  12.475   1.762  19.756 -0.1494  0.0172 -0.1312
19731W        W24131   6.147   7.514   6.727 -0.0701 -0.0178 -0.1121
19732W        W24132   3.309   4.290  24.982 -0.0492 -0.1398 -0.1312
19733W        W24133  20.551   6.243  16.820  0.0482 -0.1839  0.3858
19734W        W24134   4.905   5.606   1.401 -0.3554  0.3306 -0.1254
19735W        W24135  11.993   0.582  24.691 -0.1058 -0.4620  0.3228
19736W        W24136  23.694   1.618   8.274  0.0339 -0.0632 -0.0452
19737W        W24137   8.427   0.420   6.655 -0.2364 -0.2887 -0.0222
19738W        W24138   9.708   2.775   7.347  0.0227  0.2606  0.2538
19739W        W24139  30.035   5.317   0.425  0.2938  0.0473  0.0208
19740W        W24140  28.832   1.868   1.800  0.0728  0.1093 -0.0733
19741W        W24141  11.154   1.765  22.304 -0.0092  0.4557 -0.0936
19742W        W24142  26.664   2.907   3.133  0.1463  0.0582 -0.1419
19743W        W24143  20.123   5.081  22.213 -0.0012  0.3160  0.0993
19744W        W24144  30.398   3.657  24.908  0.0719 -0.1437 -0.0804
19745W        W24145   3.388   3.426  18.329  0.0189 -0.0895 -0.0262
19746W        W24146  23.604   4.630  17.342  0.0801 -0.3029  0.2648
19747W        W24147   4.547   6.227  20.229  0.0826 -0.0635  0.1775
19748W        W24148  16.008   0.198  15.818 -0.2508 -0.0481 -0.1565
19749W        W24149   5.614   2.656  24.292  0.2151 -0.0736 -0.0311
19750W        W24150   0.152   2.231   1.380 -0.0756 -0.1876  0.1391
19751W        W24151  31.016   0.393  15.489 -0.2607 -0.0135 -0.0703
19752W        W24152  29.902   2.917  10.953  0.2865 -0.0351 -0.2829
19753W        W24153   3.871   7.007  21.331 -0.2374 -0.2460 -0.1451
19754W        W24154  27.821   5.789  25.422 -0.2551  0.0333  0.2718
19755W        W24155  15.193   1.868   0.259 -0.0005  0.3253 -0.0512
19756W        W24156   5.906   2.748  22.209 -0.1820 -0.2867 -0.1228
19757W        W24157  12.718   1.927   9.527 -0.1290 -0.0331 -0.1549
19758W        W24158  15.484   0.247  24.482  0.3215  0.0258 -0.1930
19759W        W24159  29.023   1.567  15.022  0.2243  0.2419 -0.0096
19760W        W24160   5.070   7.189   5.690 -0.0230  0.5239 -0.0869
19761W        W24161   4.408   7.435   7.498 -0.2911  0.1604  0.0648
19762W        W24162  23.508   0.725   2.991 -0.1564 -0.0819 -0.2297
19763W        W24163  28.699   4.215  20.285 -0.0219  0.0415  0.0662
19764W        W24164   1.953   3.606   6.361 -0.3298 -0.1347  0.1953
19765W        W24165  10.141   0.748  24.626 -0.1036  0.2573  0.1715
19766W        W24166  19.772   1.257  18.301 -0.2106 -0.0339  0.4160
19767W        W24167  15.273   5.962  24.350  0.1591  0.0292  0.3261
19768W        W24168  22.955   2.552   8.857  0.0589 -0.1094  0.3024
19769W        W24169  11.139   6.805  20.252 -0.1524 -0.2682  0.2589
19770W        W24170  30.358   5.805  16.099 -0.0733 -0.1855  0.2000
19771W        W24171   0.375   3.208  24.256  0.3755  0.3479 -0.0732
19772W        W24172  29.148   0.533   9.247  0.0708  0.0457  0.3781
19773W        W24173  12.368   7.839  22.888  0.0018 -0.3198  0.3855
19774W        W24174   7.877   7.500   9.388  0.1350 -0.2125  0.0305
19775W        W24175  20.620   5.109  21.284  0.1351 -0.3711 -0.0694
19776W        W24176  21.112   3.653   0.854  0.1538  0.0297  0.0381
19777W        W24177   4.442   5.125  25.390 -0.0408  0.1055  0.0678
19778W        W24178  13.635   5.906   5.886  0.1313 -0.0966 -0.2163
19779W        W24179  23.399   7.594   2.714 -0.1078  0.4305 -0.1291
19780W        W24180  16.428   1.085   5.667  0.1809 -0.1628 -0.1293
19781W        W24181  28.660   7.378   9.598 -0.4530 -0.2138 -0.0183
19782W        W24182   7.782   4.136  25.225  0.0795 -0.1299  0.3441
19783W        W24183   9.956   0.710  20.812 -0.3855 -0.0320 -0.1034
19784W        W24184  15.087   2.766   3.259 -0.1772 -0.1322  0.1389
19785W        W24185   0.274   6.578   8.540  0.0446  0.1261  0.0273
19786W        W24186  11.980   4.034  17.973  0.0981  0.1739 -0.2310
19787W        W24187  14.153   0.067  21.827  0.1463  0.1783 -0.3299
19788W        W24188  11.229   6.571   3.633 -0.0601  0.1398 -0.2103
19789W        W24189  26.558   6.651   5.926 -0.2180 -0.1595  0.2699
19790W        W24190  30.209   6.284  20.279  0.1997 -0.2292  0.0212
19791W        W24191   2.305   3.166   1.098  0.0118  0.0387  0.1644
19792W        W24192  14.606   4.798  20.717  0.1393 -0.2711  0.0736
19793W        W24193   5.401   7.722  15.481 -0.1274  0.0638  0.0932
19794W        W24194   6.893   0.641   2.399  0.1810  0.0385  0.0252
19795W        W24195  20.768   1.578  17.850  0.1167  0.0397 -0.0814
19796W        W24196  19.289   3.032  21.714  0.0739 -0.2073 -0.2134
19797W        W24197  14.527   2.157  20.570  0.0578 -0.2144 -0.0415
19798W        W24198  17.764   4.060  22.916  0.1442 -0.2282 -0.1721
19799W        W24199  10.822   3.519  17.244 -0.1742  0.0346  0.0853
19800W        W24200  10.093   5.778  15.253  0.0066 -0.0027 -0.0496
19801W        W24201  14.908   1.152  21.452  0.0079  0.1128  0.1147
19802W        W24202   0.670   1.917   8.833 -0.1323 -0.0079  0.0977
19803W        W24203  22.629   6.679  17.932  0.2703  0.3052  0.0722
19804W        W24204   1.000   0.034   5.029  0.1179 -0.1120  0.0238
19805W        W24205  14.208   1.664   4.529  0.0218 -0.0411  0.2221
19806W        W24206  31.147   2.127   2.763 -0.1830  0.0661  0.0947
19807W        W24207  21.110   2.623   5.206 -0.0722  0.0957  0.0435
19808W        W24208  17.709   6.719   7.996 -0.1187  0.1686 -0.0389
19809W        W24209  11.813   1.787  22.276  0.1783  0.1130 -0.2329
19810W        W24210  16.970   5.218   9.163  0.0198 -0.3574  0.2827
19811W        W24211  12.754   3.009  11.557 -0.0752  0.0752 -0.1406
19812W        W24212  14.080   7.388   5.957 -0.0312 -0.3588  0.0792
19813W        W24213  17.438   3.219   1.895 -0.1014 -0.1841  0.2241
19814W        W24214  10.518   6.797   4.766 -0.1737 -0.0240  0.1405
19815W        W24215   4.048   1.962   6.517  0.0923 -0.1365 -0.2500
19816W        W24216  13.639   7.785   5.938 -0.1536 -0.0606  0.0765
19817W        W24217   8.890   2.407  21.651  0.1021 -0.0855 -0.0698
19818W        W24218  14.524   4.815   6.959  0.2215 -0.2379  0.0339
19819W        W24219  30.121   0.892  23.815 -0.2095 -0.1521 -0.2336
19820W        W24220   5.975   4.522  21.277 -0.0506  0.2492 -0.1440
19821W        W24221  15.380   7.040   7.741 -0.0933  0.0404  0.1611
19822W        W24222  17.705   4.938  24.644  0.1773 -0.2085  0.0773
19823W        W24223  25.528   0.003  24.758  0.2923  0.1116 -0.1419
19824W        W24224   2.835   6.525  10.154  0.1157  0.5275  0.4377
19825W        W24225  24.733   4.955   0.069 -0.1611 -0.2214 -0.5890
19826W        W24226   0.329   5.317   4.560 -0.1573  0.1486  0.1437
19827W        W24227  15.154   0.066  20.558  0.0206 -0.0058  0.4192
19828W        W24228  26.416   4.466   7.758 -0.3779 -0.0401  0.0384
19829W        W24229  12.384   4.913  25.948 -0.0800 -0.2243  0.2826
19830W        W24230  29.747   5.607   4.244  0.0653  0.0609  0.2370
19831W        W24231   3.123   2.372   7.263  0.0975 -0.1080  0.1742
19832W        W24232   6.954   0.810  22.591  0.2318  0.1589  0.2110
19833W        W24233  24.989   0.872  20.446  0.0245 -0.1557 -0.1057
19834W        W24234  22.988   4.408  21.873  0.1335  0.1692  0.2180
19835W        W24235  23.395   3.455   6.988 -0.0365  0.1732 -0.1403
19836W        W24236   1.206   1.649  18.408 -0.1615 -0.0546  0.1155
19837W        W24237   8.307   2.577  22.951 -0.1297 -0.0006 -0.2241
19838W        W24238  17.680   3.112   6.267  0.1884 -0.1733  0.1266
19839W        W24239   8.937   1.059  25.029  0.2028 -0.2153  0.1820
19840W        W24240  25.348   3.506  25.420  0.0038 -0.1329 -0.0289
19841W        W24241  15.323   3.582  10.066  0.0598  0.0722  0.1502
19842W        W24242  15.620   4.132  17.819  0.2172 -0.1740  0.0023
19843W        W24243   5.473   5.547  20.719 -0.1845 -0.3350 -0.0886
19844W        W24244  11.176   7.557  11.498  0.1752  0.3548  0.0187
19845W        W24245  28.700   4.394   7.183  0.0943  0.0312  0.0069
19846W        W24246   2.943   2.356  20.501 -0.1486  0.0369 -0.0797
19847W        W24247   8.728   2.719   6.469 -0.1264  0.0363 -0.1601
19848W        W24248  13.601   1.460   2.420 -0.3296 -0.1599 -0.1432
19849W        W24249   4.154   1.705  19.422 -0.0766  0.0732  0.0325
19850W        W24250  18.061   1.432   5.848 -0.1920  0.0404  0.0467
19851W        W24251  21.822   7.578   8.289 -0.1847 -0.0167 -0.2839
19852W        W24252  13.172   2.370  15.536 -0.0716  0.0043  0.1750
19853W        W24253  17.204   0.750  14.980 -0.2274  0.1567 -0.1360
19854W        W24254  14.933   4.749   1.326 -0.3319  0.2869  0.2738
19855W        W24255  28.876   1.312  21.509  0.3196 -0.1604 -0.1955
19856W        W24256  14.262   3.183   7.259  0.0417  0.0703  0.1912
19857W        W24257  27.152   0.471   4.704  0.1319 -0.0251  0.0188
19858W        W24258  19.735   3.687   2.705  0.0380  0.0134 -0.0643
19859W        W24259   5.960   6.122  23.346 -0.0193  0.3931 -0.0913
19860W        W24260   9.877   5.230  22.474 -0.1870 -0.0936  0.0930
19861W        W24261  15.150   0.967  24.822  0.3339  0.1878 -0.1516
19862W        W24262  14.303   7.628   2.177 -0.0708  0.2590 -0.1523
19863W        W24263  30.644   0.395  15.923  0.1821 -0.0496 -0.1584
19864W        W24264  18.750   1.332  21.196 -0.0167  0.0415 -0.0189
19865W        W24265  29.160   7.320   2.679 -0.0270 -0.1222 -0.0001
19866W        W24266  22.484   3.259  16.760 -0.1180 -0.1899 -0.1680
19867W        W24267  19.956   7.323   4.964 -0.0813  0.1529  0.0375
19868W        W24268   3.048   6.852   7.526 -0.5210  0.1680 -0.2709
19869W        W24269  27.054   4.946  19.842 -0.2676 -0.1490 -0.1491
19870W        W24270   0.026   5.463  15.004 -0.0995 -0.1469  0.0590
19871W        W24271  14.209   4.042   1.175  0.3020  0.2014 -0.0387
19872W        W24272   5.699   4.114  20.987  0.0475 -0.0826  0.3681
19873W        W24273  28.090   1.355   8.549 -0.5082  0.0858 -0.1090
19874W        W24274  18.267   6.140  18.531  0.3043 -0.2395  0.0605
19875W        W24275   0.315   7.544  21.226 -0.1317 -0.1159  0.1650
19876W        W24276  24.775   1.609  16.176 -0.2602 -0.1795  0.2193
19877W        W24277  29.870   7.110  24.223 -0.1076  0.0888  0.0134
19878W        W24278  15.818   6.652  16.907 -0.0592 -0.0738 -0.0567
19879W        W24279  31.130   3.068  24.966 -0.3598  0.0318 -0.1280
19880W        W24280   2.496   7.279  15.136 -0.2827 -0.1261 -0.0363
19881W        W24281   7.015   6.548  24.030  0.2469  0.2389 -0.0302
19882W        W24282   5.423   1.882   3.299  0.2807 -0.3055  0.0903
19883W        W24283  15.483   2.493   4.474 -0.1492  0.0722  0.0799
19884W        W24284  11.267   6.843   6.846  0.0618  0.2077  0.2363
19885W        W24285   8.565   6.428   8.331  0.3010 -0.3542 -0.1423
19886W        W24286   9.312   0.924   3.730 -0.2732 -0.1591  0.0514
19887W        W24287  24.556   6.729  20.324 -0.0720 -0.1539 -0.0185
19888W        W24288  16.513   4.910   9.820 -0.0304 -0.1245  0.0141
19889W        W24289  11.142   2.073   4.327  0.1018 -0.0531  0.2544
19890W        W24290  17.880   3.200  15.379  0.1856  0.0525 -0.1291
19891W        W24291   9.620   4.113  22.778  0.1250  0.2021 -0.2169
19892W        W24292  23.551   1.628  15.705  0.0727  0.3030  0.0905
19893W        W24293  30.446   6.709  15.114 -0.0959  0.1872  0.1185
19894W        W24294  26.511   3.985   5.425 -0.1673  0.1836 -0.0585
19895W        W24295  26.701   4.424  20.910  0.0918  0.1072  0.3286
19896W        W24296  15.876   2.573  17.981 -0.0316  0.0022  0.0267
19897W        W24297  27.555   4.785   3.227 -0.3544  0.2973  0.0470
19898W        W24298  14.414   0.338  18.190 -0.2331  0.2805  0.3885
19899W        W24299  19.639   3.745   7.787  0.1454 -0.1892 -0.0499
19900W        W24300  17.652   2.302  24.013 -0.0466  0.3900 -0.0897
19901W        W24301  29.606   6.366  18.177 -0.2050  0.0279  0.2371
19902W        W24302   5.570   0.615  23.346  0.0364 -0.2641  0.0539
19903W        W24303  17.618   6.606  18.908  0.2175 -0.1675 -0.0906
19904W        W24304  13.723   1.293  24.774 -0.2526  0.1789  0.1121
19905W        W24305   8.060   7.211  19.121  0.0242  0.3439  0.0666
19906W        W24306  28.852   4.293  17.401  0.1840 -0.0100  0.1566
19907W        W24307  19.648   0.182  25.059 -0.0206 -0.3844  0.0152
19908W        W24308  10.342   7.400  20.427  0.0181 -0.0662 -0.1171
19909W        W24309  19.342   5.087   4.649 -0.3140  0.1829 -0.0260
19910W        W24310  21.254   7.834   4.366 -0.2812  0.0424 -0.0378
19911W        W24311  24.517   7.177  10.479  0.0483 -0.1183  0.1136
19912W        W24312  24.029   6.682  21.630  0.1646  0.0902  0.1925
19913W        W24313  19.932   4.324   9.785 -0.0227  0.0300  0.0014
19914W        W24314   9.008   3.406  20.436  0.0451  0.1244  0.1704
19915W        W24315  15.168   0.413   7.338  0.2884  0.0538 -0.2279
19916W        W24316   7.862   2.971   6.728  0.1572 -0.1091 -0.2759
19917W        W24317   3.536   7.757   3.702  0.0321  0.0747 -0.0967
19918W        W24318   3.684   1.164   1.269 -0.0069 -0.0858  0.0881
19919W        W24319   4.643   0.537  15.637  0.3100  0.3318  0.0539
19920W        W24320  14.077   2.917   4.446  0.5663  0.0808  0.0085
19921W        W24321  29.258   7.471  18.893  0.0712 -0.0753 -0.1332
19922W        W24322  13.132   2.951  19.663  0.5947 -0.0197  0.3779
19923W        W24323  25.618   4.022  24.344 -0.0825  0.0012  0.0220
19924W        W24324  24.831   0.177   0.574 -0.1512  0.0294 -0.1282
19925W        W24325  28.860   6.708  18.100  0.0816  0.1014  0.0100
19926W        W24326  12.404   3.479  19.093 -0.2779 -0.2626  0.3150
19927W        W24327  27.577   7.294   3.930  0.3949 -0.1424  0.4515
19928W        W24328  30.977   3.323  17.009  0.2913  0.1312  0.2807
19929W        W24329  14.439   7.293  14.980  0.1530  0.2150  0.0635
19930W        W24330  26.152   7.802  10.424  0.0739 -0.2282 -0.1786
19931W        W24331  23.902   0.975  15.603  0.3223  0.0042  0.1531
19932W        W24332  19.540   3.255  18.412 -0.0975 -0.0292 -0.0229
19933W        W24333   6.199   3.286  10.115  0.0307  0.1838 -0.0083
19934W        W24334  11.615   7.218   8.112 -0.0734  0.1616 -0.1361
19935W        W24335   2.247   1.165   5.525 -0.0609  0.3028 -0.0880
19936W        W24336   0.509   0.397  23.797 -0.3331 -0.1061  0.2884
19937W        W24337  31.110   0.853  14.646 -0.0476 -0.2115  0.1019
19938W        W24338  16.113   6.086  24.553 -0.2249  0.2441 -0.0802
19939W        W24339  21.578   5.716   5.872 -0.1061  0.1302  0.2467
19940W        W24340   2.995   7.387  21.049 -0.5148  0.1721 -0.0924
19941W        W24341  25.253   1.022  18.293  0.0964  0.0840  0.1315
19942W        W24342   4.389   7.312   1.257  0.0139 -0.1743 -0.3846
19943W        W24343   0.239   6.681  21.772  0.2834 -0.0846  0.1059
19944W        W24344  30.122   1.732  25.929 -0.0920 -0.1743  0.1786
19945W        W24345  18.389   6.406  15.664 -0.1288  0.0346  0.0764
19946W        W24346  21.524   7.393  24.548 -0.1595  0.1269 -0.0615
19947W        W24347   6.300   6.471   3.168 -0.1535  0.0074  0.0304
19948W        W24348  25.078   6.380   3.491  0.0836 -0.0068 -0.1143
19949W        W24349  19.874   3.369  10.026  0.0229  0.1885  0.1719
19950W        W24350   5.236   1.121  17.315  0.1044  0.0022 -0.0743
19951W        W24351  10.282   3.035  19.954  0.0892  0.0259  0.0293
19952W        W24352  16.157   0.644   2.084  0.2723 -0.0589 -0.0413
19953W        W24353  29.039   3.190   7.801 -0.0124  0.0032  0.1412
19954W        W24354  29.459   4.210  23.218 -0.3516 -0.1751  0.1457
19955W        W24355   8.375   3.060   3.728  0.4195  0.0575 -0.1276
19956W        W24356  15.456   1.846  17.318 -0.3984  0.0042 -0.2238
19957W        W24357  26.730   5.566   7.138 -0.0739  0.1098  0.1670
19958W        W24358   6.294   0.816   3.082 -0.1866 -0.2592 -0.2212
19959W        W24359  12.403   4.532  24.759  0.1691  0.1958  0.0367
19960W        W24360  31.100   2.393   8.688 -0.2130  0.0433  0.3361
19961W        W24361  31.087   4.026  19.076  0.0392  0.3596  0.0680
19962W        W24362   2.935   6.826  21.810  0.0283  0.0278  0.0374
19963W        W24363  17.101   4.808  17.957  0.0749 -0.1414  0.3893
19964W        W24364  15.205   2.643   5.817  0.2919 -0.0683  0.0224
19965W        W24365   6.020   5.511  15.327  0.0125 -0.1086 -0.2153
19966W        W24366  10.611   6.989  16.807 -0.0950  0.1683 -0.2466
19967W        W24367  10.405   4.847  24.737 -0.0987 -0.0504  0.1849
19968W        W24368  22.463   1.364  20.717  0.1583  0.1180  0.1450
19969W        W24369  22.585   5.096  24.269 -0.0822  0.1778 -0.0213
19970W        W24370  23.555   3.126  22.633  0.1639 -0.1056  0.0577
19971W        W24371  20.779   3.156   3.829  0.2846  0.0438 -0.0409
19972W        W24372   1.106   5.424   8.738  0.2301  0.0851 -0.3012
19973W        W24373   4.246   3.987   5.890 -0.3220  0.1201  0.0086
19974W        W24374  10.353   3.643   6.842  0.2877  0.0181  0.0569
19975W        W24375  13.835   1.899   2.082  0.0891 -0.2525  0.0568
19976W        W24376  15.536   2.888   3.126  0.4773  0.0677 -0.1545
19977W        W24377   7.920   1.544   9.372 -0.2089 -0.2653 -0.0753
19978W        W24378   1.077   0.388   1.516  0.0936  0.2282  0.1440
19979W        W24379  20.084   4.234   4.784 -0.2662 -0.1899 -0.2500
19980W        W24380  28.093   1.242  17.598  0.1156 -0.1415 -0.0137
19981W        W24381   0.964   2.293   2.060 -0.2214 -0.1255  0.3091
19982W        W24382  31.323   4.775   2.459  0.0408 -0.2490 -0.1468
19983W        W24383   1.425   4.402   0.279 -0.0800 -0.0802  0.0717
19984W        W24384  14.639   7.575   0.730  0.1088 -0.1222 -0.0128
19985W        W24385  23.281   6.250   3.776  0.1249  0.2687  0.1077
19986W        W24386  19.759   3.085  16.193  0.1824 -0.1180  0.0082
19987W        W24387  18.111   2.709  10.172  0.1970 -0.2866 -0.1801
19988W        W24388   6.098   2.508  11.256  0.2217 -0.1090 -0.1676
19989W        W24389  27.876   1.656  25.168 -0.1403 -0.1142  0.1245
19990W        W24390  18.110   2.334   9.197 -0.0665  0.2269 -0.2037
19991W        W24391  25.007   6.317   1.804 -0.1200  0.1038  0.0121
19992W        W24392   4.582   3.596  14.665  0.0739 -0.0594  0.1981
19993W        W24393   1.634   6.640  16.835 -0.1794  0.0099 -0.0601
19994W        W24394  13.147   1.165   9.493 -0.0848 -0.1907 -0.4978
19995W        W24395  20.957   3.194  20.168  0.0952 -0.2142 -0.1262
19996W        W24396   0.108   6.720   8.108  0.0204 -0.1293 -0.0627
19997W        W24397  31.322   4.189  20.103 -0.2046 -0.1391 -0.3722
19998W        W24398  21.557   6.707  10.872  0.0799  0.0759 -0.1331
19999W        W24399  19.917   5.199  25.692 -0.2983  0.1209 -0.0605
20000W        W24400   4.556   6.781  15.808  0.1560 -0.0834 -0.1066
20001W        W24401   5.213   7.301   0.565  0.0149  0.2045 -0.2213
20002W        W24402  14.986   1.389  25.034  0.0464  0.1850 -0.1130
20003W        W24403  20.688   0.285   8.128  0.1685  0.1271  0.0968
20004W        W24404  27.712   7.853  25.014 -0.2601 -0.0336 -0.0965
20005W        W24405  14.274   0.321   5.057 -0.1282 -0.3339 -0.1723
20006W        W24406   1.680   3.832  20.751  0.2976 -0.1714 -0.0680
20007W        W24407  12.413   3.307  17.440 -0.0157  0.0891  0.0729
20008W        W24408  17.338   5.918   7.978 -0.0294  0.0414 -0.5914
20009W        W24409   4.119   6.787   0.420 -0.3006  0.2917 -0.0617
20010W        W24410  24.720   6.917   2.661  0.2173 -0.2305  0.1749
20011W        W24411  23.656   0.028  22.657  0.0738 -0.0143 -0.2564
20012W        W24412   5.355   4.226   8.024 -0.0498  0.0245  0.0780
20013W        W24413  19.080   7.277  22.293 -0.1163  0.1820  0.1625
20014W        W24414   9.141   1.371   9.994  0.1670  0.0976  0.1607
20015W        W24415  24.468   5.908   8.143 -0.1801 -0.0436 -0.1954
20016W        W24416   3.370   5.415   6.495  0.2835 -0.1065 -0.2218
20017W        W24417  15.842   3.658  10.094  0.3991  0.1640  0.1643
20018W        W24418  10.082   1.844   3.055 -0.2578  0.1267  0.1405
20019W        W24419  13.438   1.000  22.212  0.0556  0.2493  0.3238
20020W        W24420  23.955   2.834   3.997 -0.1089 -0.1427 -0.2474
20021W        W24421   7.783   3.269  24.673 -0.1761 -0.1557  0.2146
20022W        W24422  19.540   0.691   9.126  0.2505  0.0718 -0.1058
20023W        W24423  24.341   6.638   6.263 -0.2920  0.0711 -0.0452
20024W        W24424   5.799   3.317  15.391  0.0101  0.0282  0.0854
20025W        W24425   8.553   6.177  15.474  0.0681 -0.0220  0.4375
20026W        W24426   8.950   2.903  10.067  0.2781  0.1080  0.1820
20027W        W24427  20.310   0.496   4.162 -0.1905 -0.1575  0.0685
20028W        W24428  29.893   6.219  22.341  0.2779 -0.2263 -0.0781
20029W        W24429  14.748   6.874  10.322 -0.0782  0.0966  0.0932
20030W        W24430   5.481   5.773  21.259 -0.0733  0.1441  0.0974
20031W        W24431  31.103   7.354  17.727 -0.4548  0.0023  0.1771
20032W        W24432  11.592   3.701   9.240 -0.0800 -0.1012  0.1344
20033W        W24433  12.924   2.864   6.030  0.0774  0.0499  0.0803
20034W        W24434  24.130   0.505  15.801  0.1139 -0.1878  0.0517
20035W        W24435  30.236   5.754   4.052 -0.3222 -0.0795  0.0707
20036W        W24436   0.766   4.363  22.087  0.0839 -0.2413  0.1878
20037W        W24437   6.523   0.173  25.907 -0.0644  0.1767 -0.1803
20038W        W24438   9.467   3.156   2.366  0.0618 -0.2333 -0.1425
20039W        W24439  25.016   1.288  19.644  0.0500 -0.0674 -0.1972
20040W        W24440  18.635   1.964  11.080  0.1548 -0.0962 -0.3630
20041W        W24441  21.930   3.233  25.675 -0.2420  0.0064  0.2115
20042W        W24442  26.172   0.247  25.492  0.2311  0.0978 -0.2409
20043W        W24443  10.645   0.380  16.146 -0.2100 -0.0156 -0.2004
20044W        W24444   2.734   7.778   8.544  0.1297  0.2233 -0.0782
20045W        W24445  19.762   7.545  21.692  0.1901  0.1779 -0.1053
20046W        W24446   9.421   3.198   7.206 -0.2025 -0.0650 -0.1172
20047W        W24447  16.803   3.024  18.686  0.2557  0.0753  0.2636
20048W        W24448  13.773   4.072   3.225  0.0883 -0.2591 -0.0586
20049W        W24449   1.649   5.698   8.187 -0.2924  0.0787 -0.2504
20050W        W24450  14.029   7.753  16.811  0.2357  0.0083 -0.1554
20051W        W24451  27.335   0.535   8.901  0.0470  0.1206  0.1072
20052W        W24452  28.925   2.890   9.089 -0.2209 -0.2096  0.1105
20053W        W24453   2.739   2.347   3.250 -0.0400  0.0504  0.4270
20054W        W24454  30.987   5.939  22.952 -0.2432 -0.0214  0.0170
20055W        W24455  18.257   0.385  25.251 -0.2102 -0.0185 -0.0590
20056W        W24456  13.783   3.578   2.068  0.4479  0.0463  0.1984
20057W        W24457   5.427   2.917   1.526  0.0045  0.1905  0.0401
20058W        W24458  14.106   2.138   6.343  0.3599  0.0277  0.0622
20059W        W24459  23.405   3.069  16.920  0.1255 -0.0885  0.1574
20060W        W24460  30.676   1.490  18.784 -0.1964  0.0081 -0.2277
20061W        W24461  12.994   6.845   9.743  0.0247  0.1874 -0.1917
20062W        W24462   8.454   5.072   5.966  0.2280  0.2422  0.1726
20063W        W24463  15.761   4.876   2.807  0.0811  0.1576 -0.0718
20064W        W24464   4.933   7.825  22.203 -0.1216 -0.0884  0.0410
20065W        W24465  19.508   4.705   4.343  0.1421  0.1851 -0.0311
20066W        W24466   6.351   5.077  15.375  0.1754  0.0056  0.1728
20067W        W24467  28.276   0.874   6.026 -0.1198  0.1375  0.0805
20068W        W24468  13.742   5.673   2.829 -0.3101  0.1998 -0.1398
20069W        W24469  15.737   3.225  19.726  0.1321  0.1612  0.1620
20070W        W24470  10.148   5.375  21.333 -0.1592  0.0524  0.2836
20071W        W24471  15.061   4.341  24.501  0.1902  0.1831 -0.1504
20072W        W24472   3.261   6.366  23.525  0.1354  0.2119  0.0333
20073W        W24473  26.413   5.800   3.643  0.4096  0.0981  0.0414
20074W        W24474  10.990   7.001  25.209  0.0983 -0.4138  0.1838
20075W        W24475   6.087   4.213  22.800 -0.2555  0.1862 -0.3672
20076W        W24476   3.896   2.500   9.001 -0.1500  0.0248 -0.0518
20077W        W24477  22.990   0.265   4.920 -0.0528 -0.1512 -0.0145
20078W        W24478   5.881   1.048   3.853  0.0552 -0.0539  0.0950
20079W        W24479   3.798   3.044  22.398 -0.2575  0.2888 -0.0566
20080W        W24480  22.743   7.067  22.672 -0.0845  0.0650  0.0219
20081W        W24481  12.825   1.425  10.300 -0.0558 -0.3685  0.1433
20082W        W24482  13.979   0.830  24.142 -0.1479  0.1068 -0.0729
20083W        W24483  23.933   5.374  23.562  0.1807  0.2860  0.0310
20084W        W24484  28.170   7.016   4.446  0.1995  0.1112  0.1237
20085W        W24485   0.386   2.358   3.829  0.1280 -0.0581 -0.5325
20086W        W24486   5.217   6.955   7.040  0.1551 -0.0532 -0.0609
20087W        W24487   9.431   2.633   4.416 -0.2233 -0.1455 -0.0078
20088W        W24488  26.576   0.837   6.371 -0.0549  0.1939  0.0780
20089W        W24489   8.322   2.584  14.530  0.1256 -0.0995 -0.0007
20090W        W24490  22.981   3.349  16.846 -0.1527 -0.1937  0.0641
20091W        W24491  21.185   7.479   7.600  0.1925 -0.0956 -0.4655
20092W        W24492   8.253   3.928  25.698  0.2715  0.0830  0.0843
20093W        W24493   6.142   3.726   5.237  0.0525  0.2397 -0.0772
20094W        W24494  31.056   0.878   1.364 -0.0082  0.1939  0.1354
20095W        W24495   8.858   2.148   9.607 -0.1371  0.1443 -0.0461
20096W        W24496  18.249   1.457   9.839 -0.1039 -0.1636  0.3823
20097W        W24497  28.368   0.359  19.768  0.0498  0.0714  0.1643
20098W        W24498   7.463   2.226  19.060 -0.3893 -0.1829 -0.0820
20099W        W24499  24.726   1.729  22.908  0.1131 -0.1570  0.0074
20100W        W24500  15.637   3.570  16.844 -0.0086  0.0675  0.1424
20101W        W24501  12.300   0.816  16.290 -0.3235  0.0861 -0.1068
20102W        W24502  19.352   1.601  10.987 -0.0610 -0.0383 -0.2069
20103W        W24503  22.187   0.225  21.253 -0.1004  0.1953 -0.1165
20104W        W24504  12.689   3.753  16.046  0.1237 -0.0936 -0.1952
20105W        W24505   0.235   1.015   3.006 -0.2389 -0.0454  0.0462
20106W        W24506  29.214   0.264   9.689 -0.2067 -0.2063 -0.0850
20107W        W24507   9.855   1.489  24.940 -0.0541  0.3198  0.5933
20108W        W24508  30.353   6.853  25.726  0.3280  0.0726  0.2569
20109W        W24509  30.815   5.101   3.062 -0.0024 -0.0690  0.3074
20110W        W24510   1.791   4.864  19.372  0.0126  0.1101 -0.0343
20111W        W24511  18.116   4.260  15.400  0.0962 -0.1055  0.1128
20112W        W24512  20.639   3.086  16.319 -0.0540  0.0573  0.2020
20113W        W24513   1.988   1.149   6.278  0.1683  0.1470 -0.1689
20114W        W24514  14.277   3.360   1.520 -0.1280  0.2706  0.1457
20115W        W24515  18.958   2.623   5.971  0.1630 -0.0173 -0.1025
20116W        W24516   5.122   2.576  17.494  0.0391  0.1958  0.0889
20117W        W24517   3.304   7.277   2.460 -0.0892  0.1107  0.0163
20118W        W24518  24.955   4.078  23.768 -0.1152  0.0821  0.0110
20119W        W24519  29.877   0.603  25.622 -0.1078  0.0630  0.2452
20120W        W24520   0.193   2.437   6.951  0.1358  0.0933 -0.1501
20121W        W24521  21.467   5.384   2.688 -0.0856 -0.1945  0.0962
20122W        W24522  11.872   0.700  10.948  0.1104 -0.1653  0.1312
20123W        W24523   7.296   0.719  20.352 -0.0417 -0.2139 -0.2534
20124W        W24524   4.763   5.705  25.894  0.0429  0.3298  0.1770
20125W        W24525   7.620   3.382  25.504  0.3709 -0.0084 -0.0682
20126W        W24526  24.451   1.998  10.533 -0.2021  0.1089 -0.1019
20127W        W24527  23.693   5.071   4.324  0.0748  0.1152  0.2420
20128W        W24528  17.633   3.214  24.866 -0.0746 -0.0439  0.0131
20129W        W24529  27.143   3.122  17.980 -0.2250 -0.0264  0.0695
20130W        W24530   8.608   1.018  17.925 -0.0861  0.1694 -0.1422
20131W        W24531  23.326   3.656  19.423  0.0280  0.0175 -0.1136
20132W        W24532  14.177   2.620  23.531  0.1539 -0.2279  0.1916
20133W        W24533   1.029   2.721  15.471  0.0459  0.1780  0.1128
20134W        W24534   6.688   5.408   1.592  0.3998  0.0141 -0.0513
20135W        W24535   2.035   4.878   6.983  0.3572 -0.1396  0.0543
20136W        W24536  17.256   2.350  19.853 -0.0259  0.1803  0.3826
20137W        W24537  28.548   1.126   3.793  0.3551  0.0821  0.0055
20138W        W24538   3.402   4.255  25.489  0.4152 -0.1812  0.1039
20139W        W24539   1.818   2.236  16.810  0.2008 -0.3217 -0.0181
20140W        W24540  25.471   0.253  18.789 -0.1016 -0.5235  0.1143
20141W        W24541   0.353   5.334  15.362  0.4160  0.3952  0.0468
20142W        W24542  28.314   0.599  25.915 -0.1543 -0.1253  0.1751
20143W        W24543  17.216   4.875  21.105 -0.0650  0.1745  0.0549
20144W        W24544   4.796   2.240  16.347 -0.1786  0.1060  0.0984
20145W        W24545   1.680   7.689  17.678 -0.2618  0.0229  0.1840
20146W        W24546  28.163   1.379   5.290 -0.1857  0.3763 -0.1432
20147W        W24547  16.711   0.728  14.992 -0.0095  0.1458  0.2539
20148W        W24548  15.539   3.034   8.822  0.1909 -0.0218  0.0975
20149W        W24549  13.592   6.044  25.983 -0.1339 -0.3320 -0.0518
20150W        W24550  23.036   6.162  10.151  0.0747  0.4527 -0.0601
20151W        W24551  20.302   2.932   0.677 -0.2202  0.1959  0.4323
20152W        W24552   7.979   2.542  10.352 -0.1764  0.1638 -0.1906
20153W        W24553   8.607   5.668  19.887 -0.2529 -0.1935 -0.1474
20154W        W24554   8.162   1.490  16.125  0.2291  0.1970  0.0022
20155W        W24555  13.318   3.422  17.973 -0.0378 -0.5022 -0.0045
20156W        W24556   3.455   0.259   6.452 -0.1389  0.1639  0.0157
20157W        W24557  15.166   7.663  10.139  0.0716  0.0511 -0.3018
20158W        W24558  16.637   1.306  17.224  0.2154  0.2704 -0.0777
20159W        W24559  17.080   2.248   5.463  0.0899 -0.0724  0.1176
20160W        W24560  14.272   6.992  16.005 -0.1021  0.0164 -0.0753
20161W        W24561  16.634   6.549   0.193  0.0635  0.1480 -0.2198
20162W        W24562  23.030   2.440   2.029 -0.3257  0.0472 -0.0227
20163W        W24563  11.408   5.904   4.091  0.0238 -0.2125  0.1547
20164W        W24564  16.193   5.778  19.073  0.1213 -0.4100 -0.0136
20165W        W24565  15.488   6.428  24.296 -0.1103  0.0326 -0.0966
20166W        W24566  21.274   6.048   4.352  0.0782  0.1764  0.0371
20167W        W24567  10.463   7.095  25.346  0.0710 -0.0923  0.3725
20168W        W24568  14.954   6.070  19.781  0.0631 -0.0409 -0.2175
20169W        W24569   2.895   4.734   6.152 -0.1282 -0.1322 -0.1489
20170W        W24570  16.025   5.108  23.559  0.0723  0.2042 -0.1388
20171W        W24571   2.612   6.354  16.643 -0.0318  0.0672  0.1979
20172W        W24572   2.300   0.931   5.115  0.3058 -0.2337  0.3528
20173W        W24573   9.980   0.538   2.139  0.0072  0.0092  0.1146
20174W        W24574   8.885   4.944   1.191 -0.1294 -0.2187 -0.1027
20175W        W24575   1.130   1.334  24.694 -0.0903 -0.0076  0.0472
20176W        W24576  27.555   1.010  18.232  0.1674 -0.3236 -0.3403
20177W        W24577  24.126   5.435  24.596 -0.0378  0.0837  0.0763
20178W        W24578  10.004   4.053  21.832  0.0137  0.0446  0.1878
20179W        W24579   5.074   3.230  19.098  0.4711  0.1225  0.0271
20180W        W24580  23.105   0.389   6.362 -0.0340 -0.0646 -0.0418
20181W        W24581   1.936   7.262  23.100  0.2879 -0.0771 -0.3359
20182W        W24582  18.601   2.508  19.563  0.0483  0.4549  0.1929
20183W        W24583   5.945   2.737  17.112 -0.1218  0.0744 -0.1998
20184W        W24584  22.775   2.436  19.904 -0.4888 -0.2123  0.1995
20185W        W24585  28.310   5.797  25.288 -0.1639  0.3028 -0.0493
20186W        W24586  18.784   5.763   4.717 -0.0914  0.2173  0.0597
20187W        W24587  18.738   2.565  17.030 -0.2024 -0.0595  0.1896
20188W        W24588   2.356   7.413  25.475  0.1877 -0.2403 -0.1564
20189W        W24589   4.209   5.651   4.326  0.2690  0.2033  0.0549
20190W        W24590  16.129   5.696   0.796 -0.0575  0.1646  0.0383
20191W        W24591   2.647   6.551   0.381 -0.1176  0.4051 -0.0792
20192W        W24592  10.414   5.856   4.352 -0.0303  0.1519  0.3950
20193W        W24593   7.672   1.743   0.062 -0.0087  0.0033 -0.1374
20194W        W24594  10.045   5.934  19.921  0.0964  0.0228  0.0273
20195W        W24595  12.546   3.752   7.774  0.0622  0.0663 -0.1107
20196W        W24596   4.415   3.622  21.348 -0.0920  0.1860 -0.1933
20197W        W24597  13.055   5.282   0.397 -0.1839 -0.3151  0.0323
20198W        W24598   1.303   3.733  18.634 -0.1673 -0.0914 -0.3147
20199W        W24599   0.440   3.323   6.866 -0.0311 -0.1704 -0.3457
20200W        W24600   9.900   0.475  10.918  0.2434 -0.1098 -0.1298
20201W        W24601  25.139   6.405   0.980  0.1605 -0.2208  0.0008
20202W        W24602  27.382   1.341  19.856  0.2014  0.0004 -0.1617
20203W        W24603  15.751   2.539  23.690  0.0337 -0.3153 -0.4974
20204W        W24604  19.311   5.329   9.139  0.0626  0.2127 -0.0359
20205W        W24605  23.329   3.207  11.100 -0.3268  0.0027  0.0278
20206W        W24606  26.317   3.477  21.878  0.0112  0.1499 -0.0853
20207W        W24607  12.686   2.603   2.809  0.1910  0.0158 -0.0384
20208W        W24608  10.655   2.644  17.758  0.4695 -0.2547  0.1714
20209W        W24609  13.047   3.198  24.104 -0.1403  0.1784  0.1100
20210W        W24610  16.751   4.736  24.637 -0.0014  0.1620  0.1865
20211W        W24611  14.138   2.512   4.151 -0.1081  0.1170  0.0773
20212W        W24612  14.238   0.249   8.555  0.3390 -0.4601 -0.0178
20213W        W24613   4.715   1.920   7.330  0.0518 -0.0714  0.1731
20214W        W24614  27.055   2.570  22.643  0.1498  0.1635  0.0621
20215W        W24615  11.893   6.591   2.877 -0.1794  0.0558 -0.3663
20216W        W24616   7.406   7.069   7.640  0.0277 -0.0868  0.0647
20217W        W24617   9.939   3.993   3.652 -0.1370 -0.0221 -0.1018
20218W        W24618   4.285   2.681  20.479 -0.0192  0.0357 -0.0235
20219W        W24619  26.003   0.181   3.403 -0.0009 -0.0351 -0.2036
20220W        W24620   3.725   5.936  20.296  0.1844  0.0130  0.0547
20221W        W24621  26.001   0.250   9.173  0.1860  0.0904 -0.2943
20222W        W24622  26.159   6.096  10.090 -0.0016  0.0172  0.0433
20223W        W24623  23.668   7.742   5.780  0.2375  0.3446 -0.1270
20224W        W24624  10.141   4.007  25.703 -0.0109  0.5294  0.0450
20225W        W24625   6.613   5.187  19.337 -0.0346 -0.2546 -0.2321
20226W        W24626   9.732   7.129   0.888 -0.1400 -0.1286  0.2169
20227W        W24627  21.673   4.189  16.110 -0.2883 -0.0134 -0.3058
20228W        W24628  25.173   7.098  24.413  0.2057  0.1385 -0.1036
20229W        W24629  17.148   0.568  16.668 -0.1154 -0.2035 -0.0213
20230W        W24630   8.990   0.434   3.155 -0.0722  0.0776 -0.0702
20231W        W24631  12.473   4.438  18.931  0.2469  0.0753 -0.1755
20232W        W24632   7.206   0.629   4.862  0.1558 -0.1077 -0.1877
20233W        W24633  12.553   6.387   6.357 -0.0207  0.1624  0.0447
20234W        W24634  15.730   0.601  16.021  0.0874  0.1478  0.2020
20235W        W24635   2.479   6.199   1.330  0.0516 -0.3627 -0.0797
20236W        W24636  10.234   0.249   7.996  0.5347  0.0257 -0.1320
20237W        W24637   3.573   2.098  22.573  0.0097 -0.0427 -0.0224
20238W        W24638  23.682   0.219  17.391 -0.1152  0.1976 -0.3187
20239W        W24639   4.788   1.215   2.868  0.3288  0.0580 -0.0699
20240W        W24640  27.277   5.411   7.116  0.1486  0.0329  0.1734
20241W        W24641  17.552   3.794   7.780  0.0700 -0.0293 -0.3076
20242W        W24642  29.604   1.883  25.476 -0.0097  0.2317 -0.0818
20243W        W24643  21.269   3.131   4.270 -0.0153  0.1337  0.1761
20244W        W24644  19.441   0.196   6.995 -0.2412 -0.1162  0.0408
20245W        W24645   3.707   5.854   2.437  0.1199  0.2595 -0.3041
20246W        W24646  21.733   7.005   8.411  0.1945 -0.2398  0.2029
20247W        W24647  18.986   2.667  18.866 -0.2263  0.1436  0.1092
20248W        W24648  17.112   3.634  10.788  0.2559  0.4828  0.0608
20249W        W24649   5.322   4.440   6.980  0.0690  0.3388 -0.0027
20250W        W24650  20.131   1.058  22.186  0.0564  0.0004  0.0128
20251W        W24651  29.633   3.850  17.215  0.0820 -0.0145 -0.2222
20252W        W24652   5.321   7.482   9.606 -0.0455  0.1237 -0.1072
20253W        W24653  22.658   4.979   3.835 -0.0722 -0.0014 -0.1795
20254W        W24654  23.133   5.793  16.694 -0.2622 -0.0898 -0.4709
20255W        W24655  21.790   6.792  19.930  0.1850 -0.4262  0.2426
20256W        W24656  31.359   6.234   1.631 -0.2081 -0.0879  0.2044
20257W        W24657   2.773   5.435   0.819 -0.2122 -0.0825 -0.0669
20258W        W24658  17.940   5.417   5.039 -0.0388  0.0700 -0.1936
20259W        W24659   1.959   6.561  25.701 -0.1807  0.0923 -0.0385
20260W        W24660  11.446   1.738  24.113  0.1365  0.3270  0.0228
20261W        W24661   0.789   3.521  24.269 -0.0997 -0.1621 -0.4641
20262W        W24662  28.731   2.128   9.016  0.1029 -0.0769  0.2319
20263W        W24663   6.694   5.890  24.249  0.0883  0.2007 -0.3178
20264W        W24664   1.385   7.465  17.353 -0.3673 -0.1610  0.3166
20265W        W24665  26.792   2.071   7.794 -0.0734 -0.1445  0.1492
20266W        W24666  23.809   0.688  25.173  0.3496 -0.2887  0.1405
20267W        W24667  13.497   1.104  20.448  0.1569  0.2121 -0.2153
20268W        W24668  24.648   1.754   8.727  0.0725  0.1605  0.0005
20269W        W24669  21.572   3.894   4.774  0.3709  0.0295  0.0572
20270W        W24670   3.172   7.103   2.934  0.1970  0.1086 -0.3553
20271W        W24671  16.902   1.804   9.347 -0.3706 -0.3205 -0.1663
20272W        W24672   2.950   3.394  24.755  0.1637  0.0398  0.1243
20273W        W24673  31.257   5.229   9.468 -0.2303  0.0812  0.5055
20274W        W24674   2.393   0.323   0.146 -0.3641  0.1059  0.1049
20275W        W24675  13.212   1.709   0.130 -0.2545 -0.1700  0.0182
20276W        W24676   6.097   3.295  19.518  0.1835 -0.1057 -0.0512
20277W        W24677  17.112   0.845   6.382  0.1713  0.4447 -0.0918
20278W        W24678   3.387   1.494  15.668 -0.4694 -0.0021  0.0736
20279W        W24679  27.487   7.328  25.695  0.1581  0.0327 -0.0287
20280W        W24680  16.270   3.031   1.887  0.0185  0.0619  0.0790
20281W        W24681   2.822   2.666   6.930 -0.2846  0.2090 -0.2473
20282W        W24682  23.484   5.503  25.712  0.2271 -0.0980  0.0148
20283W        W24683  13.440   7.553  24.901  0.1665  0.0059 -0.0416
20284W        W24684   9.531   3.344  20.439 -0.1953 -0.3566  0.0007
20285W        W24685   7.054   3.655   3.963  0.1142 -0.2767 -0.0433
20286W        W24686  16.107   7.256   4.276 -0.0754 -0.1571  0.1971
20287W        W24687   5.601   5.699   5.348 -0.0138  0.3844 -0.2285
20288W        W24688  25.644   3.428  22.292  0.2640  0.2724 -0.0705
20289W        W24689  11.872   1.901  19.032 -0.0142  0.0198  0.1637
20290W        W24690  30.315   6.541  16.911 -0.1727  0.1165 -0.1363
20291W        W24691   0.011   3.308   5.259 -0.0778 -0.3725  0.0814
20292W        W24692  29.078   7.457   7.986 -0.0469 -0.0023 -0.0357
20293W        W24693   2.242   6.292   6.810  0.4748 -0.1406  0.2392
20294W        W24694  17.988   7.262  25.237 -0.1015 -0.0121  0.1905
20295W        W24695   5.999   0.433   4.527 -0.2736  0.1502 -0.1526
20296W        W24696  22.355   5.249  17.824 -0.3312  0.1283  0.0014
20297W        W24697  16.288   0.730  15.962 -0.1685  0.2047 -0.1688
20298W        W24698  28.178   2.928  22.328  0.0220  0.0540 -0.0051
20299W        W24699  10.586   1.639  22.055  0.0441 -0.0225 -0.1193
20300W        W24700  23.269   4.123  19.347 -0.1286  0.0759 -0.1751
20301W        W24701  29.703   6.081  20.372  0.1441 -0.0564 -0.1670
20302W        W24702  21.336   6.428  20.789 -0.1186  0.0600  0.1273
20303W        W24703  20.804   7.250  18.962  0.0716  0.1981  0.0159
20304W        W24704  24.633   6.041   3.478  0.1155  0.0669  0.0096
20305W        W24705   4.760   6.715  25.945 -0.1323 -0.2372  0.0051
20306W        W24706  17.183   1.005  19.757 -0.1819  0.2130 -0.0659
20307W        W24707  13.363   5.432  16.722 -0.0081  0.1323 -0.0296
20308W        W24708   1.780   1.875  24.566  0.0103 -0.0683  0.1084
20309W        W24709  26.866   7.154  20.711  0.3541 -0.0251  0.0778
20310W        W24710   5.800   3.470   6.147  0.1701 -0.3624  0.1812
20311W        W24711  28.649   4.845  19.796  0.1449  0.1534 -0.0865
20312W        W24712   2.216   5.523  21.033 -0.0620 -0.1188 -0.2708
20313W        W24713   6.570   4.474  22.796  0.0253  0.0504  0.2438
20314W        W24714   8.358   6.993   2.144 -0.0507 -0.2165 -0.0400
20315W        W24715  13.960   5.810  21.612 -0.1799  0.1038 -0.0371
20316W        W24716  28.891   5.973  21.951 -0.1483  0.2312  0.3412
20317W        W24717  11.331   6.967   0.310  0.1569 -0.1094 -0.0937
20318W        W24718   9.654   5.506  25.423  0.1343  0.2325 -0.1796
20319W        W24719  27.711   6.325   4.991 -0.0581  0.1528 -0.1127
20320W        W24720  30.772   1.752  15.972  0.1660 -0.0512 -0.0170
20321W        W24721   1.399   6.234  19.956  0.0040 -0.1538  0.0309
20322W        W24722  23.715   2.059  23.309 -0.1947 -0.1019 -0.0878
20323W        W24723  12.197   0.180  15.639  0.0408 -0.0419  0.0508
20324W        W24724  28.292   1.803  24.966 -0.0410  0.0643  0.2578
20325W        W24725   8.109   1.175   9.876  0.2863 -0.1807 -0.0616
20326W        W24726   7.752   3.473  23.840 -0.2606 -0.0018  0.3307
20327W        W24727   3.188   2.679   3.980 -0.2903  0.0749 -0.1116
20328W        W24728  23.461   3.017   9.129 -0.0513  0.0104  0.1479
20329W        W24729  26.313   3.619   4.816 -0.2166 -0.3680 -0.0426
20330W        W24730   4.069   1.893   3.993 -0.1279  0.0077 -0.3849
20331W        W24731   5.470   6.294  20.536 -0.0167  0.2103  0.0671
20332W        W24732  12.224   7.717   9.864 -0.0411 -0.2013 -0.0848
20333W        W24733  25.584   3.842   8.796 -0.0764  0.0523  0.2553
20334W        W24734  14.528   2.765  10.565 -0.0001 -0.0184 -0.0754
20335W        W24735  29.581   7.214   4.539  0.0638 -0.0766  0.1062
20336W        W24736  13.386   2.095   6.638 -0.0400 -0.0361  0.1490
20337W        W24737  16.037   3.145   8.084 -0.0308 -0.2780 -0.1750
20338W        W24738  12.226   6.019   6.146  0.2937  0.0264 -0.3207
20339W        W24739  10.914   4.093  21.304  0.1277  0.1785 -0.3003
20340W        W24740  10.059   7.225   1.346 -0.1850 -0.1627 -0.0339
20341W        W24741  27.977   1.155  24.408  0.0754  0.0826 -0.0554
20342W        W24742  30.715   0.529   7.927 -0.0929  0.2954  0.1099
20343W        W24743  14.991   0.019   9.677  0.0867  0.0331  0.0545
20344W        W24744  15.019   6.032  11.154 -0.5458  0.0001 -0.2724
20345W        W24745   5.961   0.770   8.042 -0.0028  0.0210  0.1475
20346W        W24746  21.591   5.911   6.307 -0.1475  0.4528  0.1007
20347W        W24747  20.645   3.060   2.973 -0.2338  0.0877 -0.0188
20348W        W24748   6.938   3.724   7.813  0.1532 -0.1295 -0.1995
20349W        W24749  20.852   1.112  16.623 -0.1795 -0.0201  0.0872
20350W        W24750  28.534   5.383  17.118  0.1181 -0.0213  0.1242
20351W        W24751  25.789   6.501  25.237  0.1322 -0.1764  0.1903
20352W        W24752   7.559   1.269  18.026 -0.2235 -0.2043  0.2248
20353W        W24753  29.323   6.433  24.715  0.1280 -0.0249  0.3152
20354W        W24754  30.927   6.044   1.418 -0.0653 -0.2066  0.4033
20355W        W24755  30.699   1.989  18.567 -0.1600  0.0828 -0.1787
20356W        W24756   8.936   6.347   6.809  0.2354 -0.0117  0.0675
20357W        W24757  23.901   1.205  25.896  0.2374 -0.1507 -0.1859
20358W        W24758  18.501   3.735  24.816  0.2453  0.0957  0.0177
20359W        W24759   0.882   4.317   1.274  0.1477 -0.1665 -0.0854
20360W        W24760  22.911   6.277   2.750 -0.0650  0.2435 -0.0806
20361W        W24761  23.945   3.738   1.711 -0.4787 -0.2148  0.0300
20362W        W24762   5.431   0.285  21.005 -0.0914 -0.2501 -0.2918
20363W        W24763  17.687   2.113   2.629 -0.0427  0.2463  0.0992
20364W        W24764  26.002   4.657  26.032  0.0396  0.0444 -0.3332
20365W        W24765  17.807   1.290  10.008  0.0714  0.0916  0.1029
20366W        W24766   9.107   2.117  24.151  0.5030 -0.1020 -0.1804
20367W        W24767  24.217   4.229   7.218  0.0069 -0.3503 -0.0990
20368W        W24768   1.378   5.042  20.272  0.0800  0.0060 -0.0808
20369W        W24769  23.384   1.224   5.631  0.3177 -0.2172 -0.0365
20370W        W24770  31.386   6.985  25.557 -0.1227 -0.2174  0.1298
20371W        W24771  27.342   5.633   3.527  0.0983  0.1449  0.4000
20372W        W24772  24.808   4.258  19.782 -0.1752  0.0404  0.0272
20373W        W24773  24.450   3.908   1.567 -0.0356 -0.0958 -0.1330
20374W        W24774  22.186   6.267  11.413 -0.0999  0.2062  0.0381
20375W        W24775   6.266   6.655  22.902 -0.0736  0.1472  0.1538
20376W        W24776  13.821   2.088   3.193 -0.1537 -0.1381  0.1523
20377W        W24777   9.288   6.782  24.101  0.1714 -0.0485 -0.1840
20378W        W24778   9.522   3.584  22.963 -0.1211  0.3121  0.0789
20379W        W24779  13.160   4.346  15.905  0.1001  0.1892 -0.1653
20380W        W24780   6.338   7.731  14.890  0.1182 -0.0697 -0.0441
20381W        W24781  20.456   1.698  24.038 -0.1325 -0.1274 -0.3054
20382W        W24782  19.147   4.456   4.554 -0.1909 -0.0989 -0.2372
20383W        W24783  17.193   2.426  18.254  0.2593 -0.3848  0.3387
20384W        W24784  28.276   1.537  15.885 -0.2973 -0.0209  0.0516
20385W        W24785  11.161   5.159   7.082  0.1305 -0.0123 -0.0731
20386W        W24786  26.832   1.592   4.384 -0.0155  0.0644  0.1390
20387W        W24787  11.907   3.194  23.652 -0.1976 -0.1837  0.0342
20388W        W24788   4.088   7.021   9.532 -0.0899 -0.1777 -0.0714
20389W        W24789   9.549   4.815   6.510  0.0409 -0.0447  0.0289
20390W        W24790  27.124   4.860   9.654 -0.0995 -0.3819  0.0083
20391W        W24791  22.639   6.543   3.065  0.0506  0.1412  0.1024
20392W        W24792   4.936   5.584  20.139 -0.1180  0.2459  0.0368
20393W        W24793   0.867   7.772  21.755 -0.0224  0.0843  0.3106
20394W        W24794  25.561   3.297  20.787  0.0829  0.3349  0.2280
20395W        W24795  24.801   5.833   0.508 -0.2553 -0.1081  0.3252
20396W        W24796  26.812   1.307   6.772  0.1381  0.1674 -0.1644
20397W        W24797   1.085   5.882   1.159 -0.4043 -0.1848  0.2171
20398W        W24798   8.006   0.975   5.128  0.0898  0.4310 -0.2506
20399W        W24799   5.263   1.204  22.091  0.0166 -0.0806 -0.0069
20400W        W24800  28.334   2.843   6.715 -0.1610 -0.1184 -0.0473
20401W        W24801   9.942   4.869  24.281  0.0639  0.1207  0.1337
20402W        W24802   6.861   5.486  17.921 -0.1221  0.0730 -0.2042
20403W        W24803  16.516   5.468  24.193 -0.2844  0.0925 -0.2915
20404W        W24804   5.520   6.647   8.434  0.1146  0.0283  0.0715
20405W        W24805  24.181   7.005   6.576  0.0802  0.0223 -0.0465
20406W        W24806   2.903   2.255   9.902  0.1622 -0.1933  0.0621
20407W        W24807  22.161   7.229   8.485 -0.2200 -0.3032 -0.0761
20408W        W24808   1.093   7.629  24.389 -0.1920  0.0706 -0.0024
20409W        W24809   6.300   7.362  20.448 -0.0986  0.0244 -0.0342
20410W        W24810  20.696   0.971  16.067 -0.0346  0.3287 -0.0048
20411W        W24811  18.409   7.154  10.774 -0.4205 -0.0129 -0.0761
20412W        W24812  17.479   4.888   8.675 -0.3762  0.0617 -0.2255
20413W        W24813  27.001   5.870   1.445  0.0233  0.0193  0.0159
20414W        W24814  29.590   3.057   5.299  0.2006 -0.0571 -0.2856
20415W        W24815  10.510   1.685  19.652  0.2271 -0.1134  0.2097
20416W        W24816   3.161   6.034  18.922 -0.3195  0.2201 -0.2124
20417W        W24817  14.057   2.125   2.551 -0.2136 -0.0127  0.1246
20418W        W24818  23.821   7.074  19.201  0.0265  0.3126 -0.1014
20419W        W24819   5.876   5.123   6.002 -0.0711 -0.4354 -0.0556
20420W        W24820  26.640   3.295  16.648 -0.0059 -0.3418  0.1368
20421W        W24821  28.953   6.504  23.172 -0.1984  0.1651  0.0317
20422W        W24822  31.436   1.044  18.504 -0.1710 -0.0353  0.0538
20423W        W24823  30.582   6.927   9.478 -0.1014  0.0326 -0.1026
20424W        W24824  22.240   5.838  17.747 -0.1730  0.0032  0.1878
20425W        W24825  14.945   7.527   2.938 -0.1395  0.3824  0.1297
20426W        W24826  17.236   0.756   4.106  0.1280 -0.0035 -0.0262
20427W        W24827   2.851   5.061  24.702 -0.2882 -0.0678  0.1128
20428W        W24828   8.912   0.302  20.314  0.0464  0.1202  0.1773
20429W        W24829   3.034   2.517   6.359  0.1000 -0.1132 -0.0019
20430W        W24830  16.806   3.674  15.805  0.1933  0.0387  0.0357
20431W        W24831  25.368   6.120   6.910  0.0606  0.1367 -0.2289
20432W        W24832  12.574   5.052  17.583 -0.0595  0.1116 -0.3444
20433W        W24833  25.625   7.025  22.878  0.1103 -0.2465 -0.0788
20434W        W24834   1.532   3.699   3.803  0.4386  0.1015  0.1465
20435W        W24835   1.075   3.908   8.504  0.5196 -0.0157 -0.2648
20436W        W24836  24.564   6.313   2.157 -0.1294 -0.0584  0.2315
20437W        W24837   1.003   2.486  18.070 -0.0858 -0.0168  0.0348
20438W        W24838  20.102   5.725   7.217 -0.1986  0.3318 -0.1990
20439W        W24839  28.972   4.179  25.691 -0.2817  0.2440  0.1128
20440W        W24840  14.060   0.813   8.718 -0.2139  0.0939  0.0959
20441W        W24841  15.280   7.816   5.870 -0.1019  0.0356 -0.2239
20442W        W24842  25.508   3.387  16.010  0.1921  0.4152  0.0488
20443W        W24843  18.633   2.296  18.767 -0.2474  0.0581  0.0562
20444W        W24844  21.918   6.741  15.783 -0.4328  0.1060  0.2931
20445W        W24845   9.212   2.079  10.631 -0.0887  0.1720  0.0456
20446W        W24846  18.868   4.934   7.262  0.2242  0.0170  0.3657
20447W        W24847  23.788   3.280   1.766  0.1131  0.2192 -0.2322
20448W        W24848   2.940   4.408  20.972 -0.0951 -0.0399 -0.2710
20449W        W24849   0.240   0.446  21.996  0.1974 -0.0589 -0.1281
20450W        W24850  23.342   5.817  21.613 -0.0738  0.2063  0.0306
20451W        W24851   0.471   4.130   0.430  0.0649  0.1627  0.1070
20452W        W24852  12.110   7.664  16.288 -0.0824 -0.3438  0.2717
20453W        W24853   5.693   7.749   7.596 -0.0045  0.2031 -0.0105
20454W        W24854  17.153   0.205   4.534 -0.0138  0.1116  0.0930
20455W        W24855  10.547   3.183   7.020 -0.1181  0.1810 -0.0408
20456W        W24856  24.427   1.730  23.930 -0.0593  0.0502  0.1676
20457W        W24857  10.709   5.060  17.500  0.1596  0.3171 -0.2597
20458W        W24858  24.808   5.844   2.148 -0.0460 -0.2963 -0.1593
20459W        W24859  14.554   4.441   1.123 -0.2244  0.3056  0.0787
20460W        W24860  29.187   0.510   3.745 -0.0722  0.0393 -0.0172
20461W        W24861   9.259   7.496  26.081 -0.1762  0.0156  0.0074
20462W        W24862  17.884   1.067  23.836 -0.0079 -0.5207 -0.1900
20463W        W24863  14.323   5.129   7.342  0.1246  0.1471 -0.2491
20464W        W24864  27.339   7.520  21.315 -0.1672  0.1731 -0.2199
20465W        W24865  25.326   6.426   2.189  0.1883 -0.2787 -0.2307
20466W        W24866   2.028   0.050  16.850  0.1372 -0.2865 -0.0992
20467W        W24867  13.206   5.585   4.670 -0.0851 -0.2826  0.0765
20468W        W24868  18.905   6.148  16.450  0.0229  0.2344  0.1732
20469W        W24869   9.302   7.357   8.301  0.2192  0.1235  0.1945
20470W        W24870  15.176   1.795   1.287  0.5364  0.0987 -0.1801
20471W        W24871   3.256   0.254  24.294  0.1335 -0.0210 -0.1800
20472W        W24872  17.332   2.798  17.978  0.0759  0.2292  0.0986
20473W        W24873  28.753   3.233  22.220 -0.0746 -0.0870 -0.1818
20474W        W24874  19.825   1.937   9.288 -0.0827 -0.0688 -0.2333
20475W        W24875   5.012   2.483   2.663  0.4217 -0.3287  0.3328
20476W        W24876  15.258   7.269  24.809 -0.1249 -0.1002  0.0289
20477W        W24877   6.862   7.029  24.072 -0.1700  0.1462 -0.1220
20478W        W24878  11.700   2.472  10.636 -0.3157 -0.2767 -0.0356
20479W        W24879   9.692   4.541  21.766  0.0782  0.1372  0.3669
20480W        W24880  15.549   1.310   2.468 -0.4053 -0.0007  0.3181
20481W        W24881  25.599   6.940   9.450 -0.2409  0.5524  0.0593
20482W        W24882   3.534   1.491  18.737 -0.0545 -0.2248  0.2801
20483W        W24883   9.802   1.888   0.069  0.1194  0.0215 -0.2056
20484W        W24884  26.885   4.670  24.078  0.2932 -0.0933  0.1265
20485W        W24885  20.441   1.097  11.752  0.0964  0.0076 -0.1484
20486W        W24886   7.690   1.302  13.905  0.1204 -0.0540  0.2981
20487W        W24887  25.665   0.821   6.664  0.0096 -0.0950  0.0238
20488W        W24888  11.886   0.312   9.061  0.1524  0.1028  0.3500
20489W        W24889  26.299   1.336  17.749  0.0905 -0.0507 -0.1123
20490W        W24890   4.090   2.541   7.372 -0.0796  0.0797 -0.2294
20491W        W24891  18.252   4.087   4.929  0.0427  0.2781  0.3140
20492W        W24892  10.429   0.157  19.687  0.2503 -0.0382  0.1546
20493W        W24893   0.556   6.303   4.815 -0.0522  0.0164 -0.1173
20494W        W24894  19.126   7.108   6.083 -0.3955  0.0977  0.0258
20495W        W24895   3.622   1.729   7.294  0.1499  0.0640 -0.3775
20496W        W24896   3.112   5.333   5.417 -0.1894  0.0218  0.0717
20497W        W24897  17.104   4.354  17.263  0.1549  0.1472 -0.1005
20498W        W24898  24.608   0.459  19.034  0.0095  0.0695 -0.0174
20499W        W24899   8.296   6.177  16.847 -0.2238 -0.0887  0.1966
20500W        W24900   8.893   0.962  15.986 -0.0774 -0.1402  0.2358
20501W        W24901  15.093   2.686   1.326  0.1270  0.0312 -0.2408
20502W        W24902   2.774   0.176  24.219 -0.0931 -0.1727  0.1755
20503W        W24903  15.760   3.374   9.110  0.0498 -0.1660 -0.2456
20504W        W24904  14.939   2.211  21.734 -0.1410  0.1658  0.0309
20505W        W24905  10.367   2.151   9.469 -0.2120  0.0122 -0.1287
20506W        W24906  18.401   0.995  22.943  0.0060 -0.2569 -0.2246
20507W        W24907   7.977   2.004  18.937  0.0229 -0.0444  0.1852
20508W        W24908   8.326   5.292   0.531  0.3058 -0.2787  0.1509
20509W        W24909  13.490   0.663  11.214  0.1326  0.0525  0.0298
20510W        W24910  16.132   2.966  15.691 -0.1622 -0.1628  0.0845
20511W        W24911  22.156   5.732   9.020  0.1073 -0.0322 -0.1114
20512W        W24912  25.884   3.549   3.034 -0.2170  0.1518 -0.0433
20513W        W24913  13.415   5.304   8.047 -0.0424 -0.4046 -0.2653
20514W        W24914  12.165   1.583   3.643  0.0990 -0.0059  0.3398
20515W        W24915  14.220   7.653  24.421 -0.2793 -0.1858 -0.2778
20516W        W24916  12.156   7.159   4.313 -0.1735 -0.0953 -0.2962
20517W        W24917  22.680   0.231  18.859 -0.2050  0.0178 -0.2522
20518W        W24918  29.790   0.730   7.859 -0.0438  0.1132  0.0149
20519W        W24919   6.829   7.438  10.147  0.0512 -0.4005  0.0835
20520W        W24920  23.471   5.813  21.058  0.0896  0.0280 -0.2258
20521W        W24921  22.765   3.955  24.139  0.0790  0.2125  0.0078
20522W        W24922  23.955   0.935   3.271  0.1507  0.0882  0.0847
20523W        W24923  25.187   4.557   9.293  0.1384  0.0222 -0.1976
20524W        W24924  26.102   1.775   0.508 -0.0824 -0.0924  0.1930
20525W        W24925  14.803   2.382  19.063  0.1845  0.0780  0.1173
20526W        W24926  19.615   3.058   9.651 -0.3336  0.2330 -0.2179
20527W        W24927   9.547   4.105  11.064 -0.2086  0.1332  0.0954
20528W        W24928  25.975   7.218  18.282 -0.2028  0.1484  0.0791
20529W        W24929  11.427   1.518  21.047  0.0744  0.0135 -0.0264
20530W        W24930  25.394   7.325   1.862  0.1542  0.1840 -0.1881
20531W        W24931  20.795   1.180   8.703 -0.0180 -0.2343 -0.0437
20532W        W24932  29.645   2.182   1.805 -0.3105 -0.4968  0.0193
20533W        W24933  11.999   4.876   2.161 -0.0005 -0.1666 -0.2188
20534W        W24934  29.147   3.665   6.617 -0.0620  0.2167  0.3301
20535W        W24935   7.332   5.893   1.469 -0.2575 -0.0906 -0.0207
20536W        W24936  31.106   2.823  19.990  0.0338  0.0148  0.3763
20537W        W24937  23.220   5.230   2.000 -0.2996 -0.0809  0.1280
20538W        W24938  25.338   2.817  20.903 -0.0563  0.2897 -0.2100
20539W        W24939  15.383   4.781  22.750 -0.0380  0.0187  0.1683
20540W        W24940   7.025   3.064  23.399  0.2250 -0.1487  0.0889
20541W        W24941  14.880   2.721  18.191 -0.0571 -0.0191  0.3896
20542W        W24942  23.681   7.819   9.707  0.1894  0.0458  0.0351
20543W        W24943  23.230   0.967   3.316  0.2516 -0.1741 -0.3053
20544W        W24944  13.363   2.632   9.864  0.0176  0.0817  0.2141
20545W        W24945   8.819   4.643  17.431 -0.0619  0.3429 -0.0734
20546W        W24946   1.068   7.671  22.760 -0.0984 -0.1181  0.0121
20547W        W24947   3.643   4.708  19.154 -0.2441 -0.4154 -0.1354
20548W        W24948  13.113   7.287   7.757 -0.1742  0.2438 -0.0635
20549W        W24949   4.107   2.309  25.152  0.2462 -0.0761  0.0025
20550W        W24950  24.879   2.420   4.902  0.1702 -0.1387  0.1000
20551W        W24951   1.691   3.324  23.412 -0.0780  0.2898 -0.3468
20552W        W24952   5.409   0.067  23.921 -0.0840  0.2102  0.2203
20553W        W24953   7.832   4.217  22.991 -0.1110  0.0404 -0.1060
20554W        W24954  12.785   3.411  25.431  0.2972  0.2151 -0.1098
20555W        W24955  29.520   5.294  22.882  0.0457  0.1777 -0.1236
20556W        W24956  27.465   4.904   9.251  0.2860 -0.0015 -0.0690
20557W        W24957  16.734   0.538  16.230  0.4001 -0.1710  0.0921
20558W        W24958   4.587   6.574   3.025 -0.1071 -0.1309  0.0268
20559W        W24959   5.547   5.177   1.386 -0.3216  0.1755  0.1179
20560W        W24960  19.685   0.487   8.609  0.0657  0.1785  0.0706
20561W        W24961  14.653   3.350   5.904  0.0649 -0.1046  0.0907
20562W        W24962  23.485   6.418  16.052 -0.0337 -0.3072 -0.1087
20563W        W24963  18.629   4.119   9.814  0.1128  0.0108 -0.2552
20564W        W24964   0.895   5.604   5.772 -0.3054  0.0167  0.1067
20565W        W24965   7.314   0.920  21.665 -0.0481  0.0012  0.1943
20566W        W24966  13.618   3.628  21.908  0.2595 -0.1576 -0.1563
20567W        W24967  10.775   2.504  10.591 -0.0907 -0.0169 -0.0992
20568W        W24968  14.831   1.005   2.368  0.1341  0.3267  0.0765
20569W        W24969   0.803   1.684   6.724 -0.3146 -0.1987  0.0144
20570W        W24970   7.634   5.335   2.171 -0.3508  0.0422 -0.0128
20571W        W24971  30.320   2.769  24.612 -0.1879  0.2147 -0.0000
20572W        W24972   0.742   5.962  22.416 -0.0553 -0.0912  0.0602
20573W        W24973  21.774   4.789  10.705 -0.0236 -0.0898  0.1445
20574W        W24974  29.369   1.800   4.109  0.2608  0.0208 -0.0391
20575W        W24975  20.615   5.347   4.427  0.0542 -0.2119  0.0934
20576W        W24976  25.196   7.578   8.437 -0.1144 -0.0477  0.3608
20577W        W24977   4.389   6.295  21.526 -0.0040 -0.0200  0.2526
20578W        W24978   9.235   1.050   8.278  0.0971  0.0669  0.0436
20579W        W24979   4.919   4.724  19.337 -0.2490  0.0552 -0.0402
20580W        W24980  24.418   5.990  17.530  0.0853  0.1455 -0.1326
20581W        W24981  16.925   5.305  19.981  0.2090  0.2049  0.5131
20582W        W24982  28.778   5.078   4.811 -0.0800 -0.0682  0.0741
20583W        W24983   2.227   4.504   2.752  0.1979 -0.1857 -0.0103
20584W        W24984  16.131   1.469  25.091  0.1210 -0.0328 -0.1522
20585W        W24985  29.005   3.098  18.410 -0.2705 -0.1029  0.0340
20586W        W24986  19.157   5.090  18.913  0.1782  0.1946 -0.1441
20587W        W24987   3.234   1.782  16.799 -0.0669 -0.1413 -0.2369
20588W        W24988  16.860   3.968   4.655 -0.4256  0.1586 -0.0337
20589W        W24989   5.107   1.557   5.714 -0.0711  0.1687  0.3668
20590W        W24990  15.085   5.345   5.577  0.1237  0.1846 -0.0206
20591W        W24991  29.270   2.857   8.656  0.0084  0.0441 -0.1436
20592W        W24992  26.008   7.186  14.987 -0.0128  0.2639  0.0885
20593W        W24993  14.746   6.467  17.340  0.0203 -0.0734 -0.3465
20594W        W24994  18.821   6.939  19.258 -0.3069  0.0459  0.0595
20595W        W24995  20.423   7.311  16.518  0.0616 -0.0277  0.1599
20596W        W24996  18.812   0.255   7.139  0.0471 -0.1371  0.0898
20597W        W24997  25.074   0.441   5.366 -0.0964 -0.1519  0.2222
20598W        W24998  18.321   5.433  15.673  0.0859 -0.2550  0.1601
20599W        W24999   3.457   0.130   8.233  0.0211 -0.1195  0.1313
20600W        W25000  16.213   5.497  15.555 -0.0453 -0.2261  0.0629
20601W        W25001  23.283   2.694   3.535  0.2685 -0.3825 -0.3183
20602W        W25002   1.165   2.356   6.386 -0.0781  0.1988 -0.3497
20603W        W25003   0.426   3.979  18.404  0.0562  0.0530  0.2125
20604W        W25004  23.921   4.587   8.790 -0.1381  0.0765 -0.1624
20605W        W25005   2.059   0.390   5.997 -0.2445 -0.2628  0.0815
20606W        W25006  15.483   1.562   3.006 -0.0154  0.1212 -0.0275
20607W        W25007   5.922   4.503  15.892 -0.0757  0.0884  0.0663
20608W        W25008   0.714   4.774   1.384 -0.1023 -0.0479 -0.0118
20609W        W25009  16.671   6.371   8.481 -0.1937  0.2603 -0.0587
20610W        W25010  23.529   3.622   7.830  0.1082  0.3081 -0.2163
20611W        W25011  15.437   2.252   1.153 -0.0099 -0.2311 -0.0225
20612W        W25012   2.935   5.923   8.968  0.0662  0.1486  0.0664
20613W        W25013   8.472   5.398   9.773 -0.1270 -0.2372 -0.2595
20614W        W25014  16.197   0.980  25.831 -0.4201  0.2067  0.0567
20615W        W25015  30.128   6.826   9.190 -0.2254 -0.2033 -0.1818
20616W        W25016   4.240   5.551  15.532  0.0507  0.1028 -0.0510
20617W        W25017  15.884   4.182  24.598 -0.0282 -0.0800 -0.0496
20618W        W25018   4.659   6.501   6.448  0.3463  0.0219 -0.1705
20619W        W25019  13.259   0.280   9.973 -0.1029 -0.2829 -0.0198
20620W        W25020  10.683   0.114   3.292 -0.2948 -0.1062 -0.3856
20621W        W25021   5.398   0.617   3.210 -0.1750  0.1142  0.0390
20622W        W25022  22.975   3.301   1.111 -0.2813  0.0821  0.0772
20623W        W25023   9.808   7.707  15.114  0.1536 -0.0503 -0.0065
20624W        W25024   4.353   0.976  16.575 -0.2168 -0.3381 -0.1585
20625W        W25025  23.186   7.112  21.710  0.0488  0.1519  0.1020
20626W        W25026  10.556   0.873  10.209 -0.1532 -0.1576 -0.0968
20627W        W25027   0.250   4.165  21.264  0.0593  0.0018  0.3408
20628W        W25028  26.229   7.770   0.168  0.1955  0.1913  0.1957
20629W        W25029  20.710   6.244   6.025 -0.0730 -0.3002  0.1235
20630W        W25030  12.978   4.903   8.979  0.2949 -0.0058  0.0671
20631W        W25031  20.787   5.388  16.935 -0.0073  0.1381  0.1392
20632W        W25032  16.065   5.158  16.060  0.0254 -0.0967 -0.1980
20633W        W25033   5.874   2.960  20.749 -0.1118  0.0166 -0.3824
20634W        W25034  27.121   2.004   4.536  0.2363  0.0144 -0.2587
20635W        W25035  17.982   5.171  17.860  0.2284 -0.0575 -0.0246
20636W        W25036  24.816   4.556   4.434 -0.1356  0.1140  0.0580
20637W        W25037   8.598   7.435  23.661  0.0344  0.1269 -0.2340
20638W        W25038  22.755   1.702   1.480 -0.1644 -0.3151 -0.0316
20639W        W25039   4.719   4.431  17.481 -0.0740  0.0796 -0.2111
20640W        W25040  27.968   6.091  19.320 -0.0915 -0.0660  0.4485
20641W        W25041  28.949   5.610   7.449  0.1118  0.1092 -0.1062
20642W        W25042   2.451   3.022   0.307 -0.2215 -0.0454  0.0180
20643W        W25043  17.510   4.692  10.644  0.1030 -0.1469 -0.1275
20644W        W25044  17.065   6.459  25.842  0.0048 -0.3562 -0.1926
20645W        W25045  24.632   4.240   3.269  0.3568  0.3272  0.0530
20646W        W25046  30.170   3.839   1.822 -0.0366  0.0151 -0.0047
20647W        W25047  17.154   6.916  23.712 -0.2843 -0.2425  0.2247
20648W        W25048  28.770   6.110  21.495 -0.2234  0.3260 -0.0874
20649W        W25049  11.894   6.038  24.668  0.4397 -0.3101 -0.1017
20650W        W25050  20.722   4.075  23.661  0.1190  0.1416  0.0134
20651W        W25051   4.700   3.471   5.046  0.1577  0.0106 -0.0067
20652W        W25052  14.829   4.237   0.614  0.0519  0.1674 -0.0371
20653W        W25053  16.402   7.242   2.786 -0.1349 -0.1686 -0.2246
20654W        W25054   4.206   0.290   4.387  0.1394  0.0012  0.2537
20655W        W25055   4.879   1.874   3.213 -0.0946 -0.1416 -0.3091
20656W        W25056  17.280   3.286  22.600  0.0849 -0.0183  0.0340
20657W        W25057  29.541   2.612  21.797 -0.0263 -0.0330  0.2333
20658W        W25058   8.624   1.271   5.884 -0.1997  0.1784  0.0149
20659W        W25059  11.369   6.171  25.446 -0.2049  0.0918 -0.1032
20660W        W25060  27.276   2.812   1.611  0.1193  0.3397 -0.0826
20661W        W25061  23.846   1.970  11.112  0.1662 -0.0688  0.3239
20662W        W25062  29.487   4.145   7.749 -0.0637  0.1095  0.0933
20663W        W25063  16.830   0.161   7.282 -0.2022 -0.1064  0.2458
20664W        W25064  24.153   6.786  20.586  0.0506  0.0878 -0.2160
20665W        W25065  14.214   2.561   0.954 -0.0748  0.3027  0.3391
20666W        W25066  29.674   7.316  17.445  0.1996 -0.0716 -0.1986
20667W        W25067  14.301   1.605  16.329  0.1938  0.1592  0.2185
20668W        W25068   1.076   7.558   9.355  0.0149  0.1219 -0.0426
20669W        W25069  10.842   2.542  21.872  0.0892  0.0776 -0.1770
20670W        W25070  15.016   0.661  23.129  0.1338 -0.1776 -0.1846
20671W        W25071   6.415   6.815  15.803  0.0891  0.2180  0.0361
20672W        W25072  17.362   5.948   4.452 -0.5900 -0.0552 -0.2148
20673W        W25073  25.825   6.894  25.674  0.0343 -0.2694  0.0878
20674W        W25074   6.569   2.407  22.662 -0.3643 -0.1581  0.0127
20675W        W25075  10.816   6.569  16.609  0.0476  0.0717 -0.0419
20676W        W25076   5.546   7.502  25.188 -0.1912  0.2114  0.1225
20677W        W25077  29.300   2.899  24.476  0.1568  0.1334  0.0391
20678W        W25078   5.112   6.489   9.377 -0.2263  0.0613 -0.2298
20679W        W25079  18.686   3.446  20.429 -0.2390  0.0932 -0.0404
20680W        W25080  23.874   0.511  18.550  0.0838 -0.0287 -0.1177
20681W        W25081  16.232   4.954   2.701  0.0765 -0.2391 -0.1278
20682W        W25082  17.626   4.106   0.452 -0.2054  0.1300 -0.1657
20683W        W25083  17.369   6.147  16.553 -0.1894  0.1066 -0.0460
20684W        W25084  16.683   3.358  11.045  0.1126 -0.1106  0.1059
20685W        W25085  25.009   7.451   3.555 -0.1071 -0.0373 -0.1059
20686W        W25086  29.412   5.256  25.700 -0.0590  0.0002 -0.2311
20687W        W25087  21.905   2.263   4.117 -0.0552  0.1012 -0.0270
20688W        W25088   6.640   1.088  24.812  0.1506 -0.3112 -0.2464
20689W        W25089  24.812   3.097   6.387 -0.0428 -0.1441 -0.0211
20690W        W25090   8.695   4.201   3.197 -0.0847  0.3880  0.1340
20691W        W25091   1.733   5.527  25.640  0.3732 -0.1947  0.1400
20692W        W25092  25.570   4.087  16.124 -0.1936  0.0069  0.1559
20693W        W25093   1.197   6.208  25.637 -0.1657  0.1936 -0.0864
20694W        W25094   3.170   6.474  17.590 -0.0308 -0.1364  0.2340
20695W        W25095  17.340   4.341  16.822 -0.1902 -0.0343 -0.0930
20696W        W25096  17.430   1.057   0.632  0.2094 -0.1090 -0.0046
20697W        W25097   3.742   0.046  25.896 -0.0237 -0.0659  0.1394
20698W        W25098  15.181   2.216  16.560 -0.0566 -0.1677 -0.0505
20699W        W25099   8.247   6.472  21.703 -0.0750 -0.1578  0.0700
20700W        W25100   1.649   2.813  23.252  0.0272  0.3225 -0.2187
20701W        W25101  28.802   1.748   4.963 -0.0660  0.4407 -0.3542
20702W        W25102  29.593   3.959   6.298 -0.1532 -0.0661 -0.0386
20703W        W25103  20.520   3.676   5.580  0.0187  0.3924  0.2547
20704W        W25104  17.510   4.754   0.799  0.1719 -0.1334 -0.0311
20705W        W25105   3.852   0.495   0.819  0.0977  0.0748  0.0165
20706W        W25106  25.220   0.528  23.993  0.2261  0.1530  0.0621
20707W        W25107  28.777   7.659   8.585  0.1216  0.0946 -0.0941
20708W        W25108  18.753   5.281   4.964  0.0262 -0.1400  0.0217
20709W        W25109  22.811   7.522  20.501  0.0999 -0.3115 -0.1574
20710W        W25110  10.471   4.620   6.604 -0.0146 -0.1816 -0.1474
20711W        W25111   8.201   0.754  15.376  0.3408 -0.0364  0.1205
20712W        W25112  16.223   0.932   9.328 -0.2539 -0.4723 -0.0365
20713W        W25113  11.746   5.697   3.375  0.1596  0.1526  0.0393
20714W        W25114  27.547   2.654   5.704  0.2486 -0.0489 -0.2959
20715W        W25115  26.421   1.881  23.041 -0.1281 -0.1102 -0.1429
20716W        W25116  20.067   3.453  20.021 -0.0177 -0.2162 -0.1087
20717W        W25117  15.770   0.207   4.353  0.0457  0.2982 -0.1809
20718W        W25118   4.973   6.934   2.342  0.0774  0.0596  0.1521
20719W        W25119  26.426   1.803  17.652 -0.0424 -0.2275  0.4048
20720W        W25120  15.314   4.515   1.607  0.0015 -0.0662 -0.0635
20721W        W25121   7.106   3.603  16.963 -0.0747 -0.0832 -0.1653
20722W        W25122  19.812   4.985  24.764  0.2138  0.3363 -0.2207
20723W        W25123  20.012   7.490  24.094 -0.2219 -0.3059  0.0425
20724W        W25124  21.249   7.509  10.171 -0.0299  0.1035  0.0982
20725W        W25125  20.144   5.747  23.651  0.1845  0.0756 -0.1991
20726W        W25126  16.579   3.265   3.672 -0.0040 -0.0618  0.1088
20727W        W25127   1.684   2.121  21.871  0.0175  0.0986 -0.2928
20728W        W25128   2.218   3.752   5.935  0.4091 -0.0853  0.3643
20729W        W25129  26.473   0.048  23.398 -0.0337 -0.0795  0.1192
20730W        W25130  24.195   5.628   3.190  0.0010  0.1239 -0.0327
20731W        W25131  30.071   7.688   0.278 -0.2098  0.1043  0.0453
20732W        W25132  13.530   0.306  10.390  0.1952  0.1309 -0.2828
20733W        W25133  16.542   4.512  18.847 -0.0099  0.0129  0.0282
20734W        W25134  29.054   7.409   0.827 -0.0614  0.0014  0.3483
20735W        W25135   7.901   5.111   0.805  0.1763 -0.0567 -0.0360
20736W        W25136  11.179   2.701   5.011  0.0567 -0.3051 -0.0191
20737W        W25137  22.552   3.664  21.480  0.0409 -0.1291  0.0810
20738W        W25138   9.160   6.321   4.806  0.0440  0.1169 -0.1063
20739W        W25139  15.784   7.026  24.777  0.2682  0.1100  0.1517
20740W        W25140  17.432   1.448   9.699  0.0651 -0.1615 -0.1011
20741W        W25141  19.691   0.548  18.555  0.0853 -0.1522 -0.2655
20742W        W25142   4.572   0.897   3.619  0.0637 -0.0103  0.2853
20743W        W25143  13.663   1.106  23.769 -0.0096  0.0395  0.1058
20744W        W25144  27.817   2.688  22.030 -0.0243  0.0095 -0.2370
20745W        W25145   5.564   3.926  16.576  0.0082 -0.1462  0.1625
20746W        W25146  19.952   3.780   0.972 -0.0160 -0.0928  0.0457
20747W        W25147  28.578   2.602  24.782  0.1396 -0.2023 -0.1138
20748W        W25148  23.736   7.343  24.847  0.1596  0.0786  0.0596
20749W        W25149   4.733   1.531   6.536 -0.2537 -0.1462  0.0365
20750W        W25150   0.096   1.119   9.761  0.0712  0.0985 -0.1848
20751W        W25151   3.538   0.980  20.329  0.0639  0.3821 -0.0098
20752W        W25152   4.497   6.447   9.947 -0.1127  0.0555 -0.3384
20753W        W25153  21.585   1.575  16.510  0.2694  0.1248  0.0073
20754W        W25154   5.729   5.012   6.527 -0.0764  0.0516  0.3026
20755W        W25155  27.923   4.021   5.167 -0.2964 -0.0839  0.0941
20756W        W25156   7.423   0.475   2.733  0.0490 -0.1907  0.0991
20757W        W25157   1.913   5.919  22.386  0.3159 -0.2082  0.0280
20758W        W25158  24.001   0.729   8.412  0.0463  0.0663 -0.1370
20759W        W25159  21.721   2.453   4.621  0.0834 -0.1402  0.2490
20760W        W25160  10.290   5.437  25.379 -0.1152 -0.0325 -0.2886
20761W        W25161  11.536   0.973  16.218  0.0469 -0.1152 -0.2972
20762W        W25162  13.119   6.493   0.664  0.1330 -0.0281 -0.1861
20763W        W25163  13.664   3.308   3.904 -0.0246 -0.0527 -0.0820
20764W        W25164   6.161   3.172   5.938 -0.0474 -0.2371  0.2390
20765W        W25165   2.326   6.885  16.749  0.1568  0.3019 -0.0316
20766W        W25166  11.902   5.254   8.711 -0.2103 -0.5952  0.3866
20767W        W25167   3.588   4.793  10.597 -0.2697 -0.0192  0.0196
20768W        W25168   4.404   2.890  10.203 -0.1883 -0.3084  0.0392
20769W        W25169  23.319   1.956  25.985 -0.0462 -0.1755 -0.0390
20770W        W25170   7.432   0.000   5.597  0.0568 -0.3108 -0.1776
20771W        W25171  22.991   6.030  20.874 -0.1262 -0.2617 -0.1960
20772W        W25172  12.611   0.147  18.485  0.0679  0.1793  0.3762
20773W        W25173   7.583   5.604  19.615  0.0307  0.1710 -0.0834
20774W        W25174   3.118   1.321   6.083 -0.1272  0.0256 -0.2144
20775W        W25175  29.355   0.152  24.471 -0.2200  0.0607 -0.3082
20776W        W25176   8.361   7.425  15.254 -0.0430 -0.3531  0.1053
20777W        W25177  11.289   4.706  20.196 -0.1836  0.2134 -0.1075
20778W        W25178   4.958   1.785  18.663  0.1524  0.1102 -0.0211
20779W        W25179  13.872   3.389  17.613 -0.2639  0.1450 -0.0230
20780W        W25180   1.600   4.114  21.212  0.3399 -0.1507  0.1681
20781W        W25181  22.924   5.643  21.401 -0.1357 -0.2684 -0.3646
20782W        W25182  15.586   1.745   8.995 -0.1618 -0.2370  0.3613
20783W        W25183   6.442   3.566  17.456 -0.0864  0.1514  0.1518
20784W        W25184   5.438   3.118  18.127 -0.0392  0.2527  0.0408
20785W        W25185  15.999   7.594   7.752 -0.0336  0.1066  0.0771
20786W        W25186  14.580   1.236   7.607  0.2790  0.2290  0.0944
20787W        W25187  28.523   3.863   5.514 -0.0892 -0.2656  0.0234
20788W        W25188  20.990   6.910   9.330  0.1008  0.0613 -0.2281
20789W        W25189  14.890   6.917  16.692  0.3038  0.1782 -0.2873
20790W        W25190   1.842   1.116  24.033  0.2463  0.1024  0.3660
20791W        W25191  24.525   6.953   7.696 -0.1879  0.1110  0.1278
20792W        W25192  13.198   4.787  23.518  0.1172 -0.2900 -0.0474
20793W        W25193  19.822   6.063   3.865  0.1420 -0.0493 -0.1724
20794W        W25194   5.166   2.814   6.512  0.2046  0.0042  0.2116
20795W        W25195  13.371   4.504   0.401 -0.1137  0.2652  0.1201
20796W        W25196  14.980   1.935   6.565 -0.1875  0.0049  0.2493
20797W        W25197  29.284   3.654   7.759 -0.1097  0.1032  0.2648
20798W        W25198   6.188   1.476   0.332 -0.0893  0.2735  0.2288
20799W        W25199   2.443   5.803  16.300 -0.2789 -0.1690  0.1902
20800W        W25200   8.143   5.043  24.220  0.1567  0.0355 -0.1216
20801W        W25201  13.608   2.529  23.437 -0.0661 -0.2513  0.0656
20802W        W25202   3.060   3.301  25.783 -0.1633 -0.1752  0.1231
20803W        W25203   2.625   1.737  20.056 -0.1347 -0.0117  0.0676
20804W        W25204   6.912   5.037   5.969  0.3288 -0.0701  0.1218
20805W        W25205   8.139   5.167   2.404 -0.2331  0.1926 -0.1014
20806W        W25206  29.810   2.889   2.223  0.1098 -0.0330 -0.0138
20807W        W25207   2.792   3.644  14.392  0.0235  0.0236  0.2028
20808W        W25208  21.001   7.147  22.436 -0.5571  0.3326 -0.1180
20809W        W25209  20.305   5.369   9.332  0.2234  0.1458  0.2810
20810W        W25210   0.398   0.540  25.990  0.0374  0.1285 -0.3489
20811W        W25211   7.099   5.362  14.758  0.0501  0.0087 -0.2632
20812W        W25212   8.589   0.529  15.956 -0.0066  0.1458 -0.2237
20813W        W25213  16.462   5.263  19.739  0.0071 -0.0683 -0.2273
20814W        W25214   6.552   5.534  15.662  0.1633 -0.3237 -0.2268
20815W        W25215   6.993   6.090  25.907  0.2241 -0.0754 -0.0855
20816W        W25216  27.246   1.472   5.681  0.0278  0.1035 -0.1651
20817W        W25217   4.932   3.281   6.888 -0.3073 -0.0383  0.0373
20818W        W25218   4.966   4.734   3.085  0.0786  0.3204  0.0219
20819W        W25219  27.318   7.342  19.335 -0.0886  0.1452 -0.2295
20820W        W25220  25.111   1.444   9.707  0.0521 -0.0906  0.0823
20821W        W25221  16.472   7.461  16.442  0.0750  0.1113 -0.0217
20822W        W25222  16.326   1.842   0.496 -0.2993 -0.0818 -0.2883
20823W        W25223  23.847   0.230  24.839  0.1836 -0.1164 -0.1628
20824W        W25224  18.376   0.003  15.996 -0.0505  0.1219 -0.2035
20825W        W25225   5.971   7.488  22.253  0.2376 -0.0361 -0.3170
20826W        W25226  17.476   0.320   3.275  0.3978  0.1709  0.1593
20827W        W25227  14.598   2.862   9.391  0.1490 -0.3774 -0.0494
20828W        W25228  27.892   2.492   1.039  0.4314 -0.0744  0.1384
20829W        W25229   2.876   5.125  16.816  0.0898  0.2752 -0.7604
20830W        W25230  19.640   3.210   5.296  0.1329 -0.0327  0.0275
20831W        W25231  24.477   5.728  10.835  0.0472 -0.1965 -0.0399
20832W        W25232   5.863   6.908  19.829 -0.1137 -0.0937  0.1044
20833W        W25233  22.001   6.813   3.080  0.2668  0.0585 -0.2843
20834W        W25234  15.550   0.431   1.412 -0.0228  0.2200 -0.0794
20835W        W25235   8.141   0.304   0.355  0.0614  0.2043  0.2560
20836W        W25236  27.677   1.500   9.876 -0.0767  0.0293 -0.0110
20837W        W25237   9.678   6.932  10.538  0.0043 -0.0367  0.1400
20838W        W25238  27.530   7.217  17.377 -0.0344  0.1246  0.1999
20839W        W25239   5.130   5.805  17.121  0.2043  0.0515 -0.1260
20840W        W25240  14.652   7.572   2.514  0.1156 -0.0599 -0.1572
20841W        W25241  28.728   2.990   0.888  0.1187 -0.0895  0.1008
20842W        W25242  16.439   1.217  24.598  0.2759 -0.0297 -0.0109
20843W        W25243  23.767   5.983   7.472  0.1426  0.0841 -0.1900
20844W        W25244   1.373   7.731   6.690  0.0725 -0.0536  0.0673
20845W        W25245  29.890   5.895  23.919  0.1186  0.1191  0.0999
20846W        W25246  17.266   6.842   4.069 -0.1649  0.1640  0.5498
20847W        W25247  26.472   6.951   3.257 -0.2184 -0.0290 -0.3387
20848W        W25248  21.654   2.058   4.955 -0.0366 -0.2986 -0.2410
20849W        W25249  14.059   2.914   7.666  0.0195 -0.0747 -0.0826
20850W        W25250  30.726   1.363   9.578 -0.1817  0.3772  0.1432
20851W        W25251  27.325   2.283  25.540 -0.0803 -0.2203 -0.1091
20852W        W25252  29.493   6.903  19.601 -0.0367 -0.2526 -0.1044
20853W        W25253  15.615   7.724  18.661 -0.1352 -0.0745 -0.0245
20854W        W25254  21.839   5.637   2.431  0.1209  0.2842 -0.0620
20855W        W25255   0.503   5.229   7.296  0.3217 -0.0494 -0.0104
20856W        W25256   2.355   1.911   8.262 -0.0500 -0.0244 -0.0136
20857W        W25257   6.492   3.045  19.299 -0.3159  0.4239 -0.2101
20858W        W25258  25.153   3.200  21.159 -0.0508  0.0928  0.1317
20859W        W25259  19.799   0.295   9.853  0.0295  0.0893 -0.0492
20860W        W25260  16.277   4.045  21.158  0.1300 -0.1304  0.2928
20861W        W25261  26.991   1.563  19.646 -0.0422 -0.1422  0.0172
20862W        W25262  17.567   6.567   9.986  0.1413  0.1435  0.1210
20863W        W25263  25.962   2.144   5.855  0.1854  0.1888 -0.1255
20864W        W25264  18.905   4.368   6.146  0.1620  0.0516 -0.1333
20865W        W25265  28.181   0.633  21.545  0.0085  0.0815 -0.0958
20866W        W25266  11.361   4.484  16.918  0.0714 -0.1224  0.1809
20867W        W25267  28.057   7.278   1.988 -0.0596  0.0297  0.1846
20868W        W25268  17.503   1.126   0.050 -0.1892  0.0059  0.2881
20869W        W25269   5.597   4.605  25.789 -0.0954 -0.3949  0.0605
20870W        W25270  22.493   1.722  24.154 -0.0594 -0.1410 -0.0587
20871W        W25271  15.420   0.710  22.735 -0.0949 -0.2007  0.0657
20872W        W25272   0.792   7.183  18.204  0.1408 -0.3452  0.0231
20873W        W25273  21.250   2.162  11.476  0.0945 -0.1248 -0.2211
20874W        W25274  27.453   0.468   1.756  0.4452 -0.0475 -0.1610
20875W        W25275   8.923   6.219   7.454 -0.1411 -0.1011 -0.1970
20876W        W25276  31.339   5.890  19.337  0.0456 -0.3863 -0.3223
20877W        W25277  17.482   4.361   5.426 -0.2256  0.1163 -0.0115
20878W        W25278  22.385   1.137  10.508  0.9413 -0.0443  0.3107
20879W        W25279  21.051   2.835   7.384 -0.0676 -0.0008  0.1605
20880W        W25280   7.127   1.639   8.939  0.2121 -0.0901 -0.1870
20881W        W25281   1.834   2.872  22.253  0.0344  0.3699  0.2393
20882W        W25282  23.678   6.689  22.340 -0.3471  0.1771 -0.0340
20883W        W25283  18.792   1.910  17.481 -0.1339 -0.2210 -0.2840
20884W        W25284  24.827   1.257  18.146 -0.0168 -0.2698  0.0186
20885W        W25285  22.636   7.535  25.569 -0.0129 -0.1223  0.0809
20886W        W25286   0.064   5.693  24.727 -0.3419  0.0581 -0.0132
20887W        W25287   5.454   2.396   9.884 -0.0879 -0.2591 -0.0657
20888W        W25288  19.010   3.543   8.384  0.3189 -0.0371 -0.1773
20889W        W25289   0.606   0.697  24.296  0.1999  0.0320  0.0162
20890W        W25290  10.040   4.948  21.594 -0.1246  0.4788 -0.0805
20891W        W25291  13.474   0.123   2.904  0.0788  0.1256 -0.0098
20892W        W25292  18.858   5.206  10.857 -0.1146  0.5247  0.1083
20893W        W25293  11.876   0.558   5.559 -0.0220 -0.0830  0.1001
20894W        W25294  22.703   5.930   6.797 -0.0234 -0.1142 -0.6082
20895W        W25295  12.002   6.017  17.423  0.0706 -0.2497 -0.2650
20896W        W25296   2.639   6.908   3.122  0.0223  0.1638  0.0912
20897W        W25297  29.097   1.284   1.871  0.0985 -0.2611  0.1795
20898W        W25298  18.826   4.632  23.875 -0.4155 -0.0189 -0.1194
20899W        W25299   8.756   2.193   1.983  0.0131  0.2025 -0.0912
20900W        W25300  30.830   1.867   9.808  0.2246 -0.0698  0.2711
20901W        W25301  11.084   0.255  17.105 -0.0640 -0.3255 -0.4063
20902W        W25302   0.627   4.137   3.889  0.0439  0.0160  0.0710
20903W        W25303  19.788   2.139   5.562  0.0768 -0.0178  0.2778
20904W        W25304  10.804   4.689  22.929 -0.2684 -0.2244 -0.2664
20905W        W25305  18.436   2.544  18.215 -0.3285 -0.0353  0.1924
20906W        W25306   0.438   0.944  10.466  0.2654  0.1922 -0.0181
20907W        W25307  18.385   7.185   0.899  0.1194  0.1884 -0.0108
20908W        W25308  29.721   4.153   8.316 -0.2490 -0.0821  0.0205
20909W        W25309  18.481   2.826   5.970  0.1803  0.0628 -0.0405
20910W        W25310  29.498   7.769   6.022  0.2894  0.1678  0.1977
20911W        W25311   9.834   7.017  18.217  0.1285 -0.4075 -0.0561
20912W        W25312  29.796   0.822  25.189  0.2358  0.1523 -0.3272
20913W        W25313  18.611   2.840   4.646  0.4466  0.3050  0.1593
20914W        W25314  10.958   1.496  10.836  0.1705 -0.0427 -0.2340
20915W        W25315  13.505   2.964   6.798  0.1536  0.1089 -0.0207
20916W        W25316   0.828   5.749  24.976 -0.1402  0.0672  0.1506
20917W        W25317   6.078   0.588  19.671 -0.0886  0.2681  0.0060
20918W        W25318  13.711   4.403   7.186  0.1008  0.1198 -0.0332
20919W        W25319   7.917   3.820   4.969 -0.1292 -0.2297  0.3745
20920W        W25320  17.031   0.394  15.776  0.0070  0.0122  0.1196
20921W        W25321  24.035   5.791   5.846  0.2899  0.0299 -0.0498
20922W        W25322  10.644   3.731   4.108  0.1835 -0.0671 -0.2610
20923W        W25323   0.439   4.178   2.899  0.0360 -0.1238 -0.0431
20924W        W25324   9.389   7.251  22.862 -0.0918 -0.3882 -0.0967
20925W        W25325  11.302   1.516   1.353  0.1050  0.3371 -0.0972
20926W        W25326   2.484   0.965   2.666  0.0585  0.2115  0.2973
20927W        W25327   1.518   1.669  25.449  0.1552  0.2245 -0.0172
20928W        W25328   6.399   0.818  16.439 -0.0564 -0.0591  0.0459
20929W        W25329  21.770   1.998  15.714  0.0131 -0.0064 -0.1053
20930W        W25330   3.341   4.736   3.380 -0.2489 -0.0307 -0.1062
20931W        W25331  23.111   6.739   3.890 -0.0851  0.1732 -0.2070
20932W        W25332  16.414   2.620   6.786 -0.0724 -0.0160 -0.2173
20933W        W25333  26.575   0.302  17.438  0.0970 -0.1681 -0.0232
20934W        W25334  27.651   5.258   0.125 -0.1237  0.1563  0.1626
20935W        W25335   6.756   6.288   6.737  0.0659  0.1249 -0.0217
20936W        W25336  28.085   0.049  15.159 -0.0925 -0.2833 -0.0001
20937W        W25337  15.197   6.088   2.668  0.1472 -0.1759 -0.0483
20938W        W25338   5.947   6.831   3.160 -0.2567  0.3323 -0.0283
20939W        W25339  31.251   2.013  23.143  0.1326  0.1918  0.3073
20940W        W25340   3.799   6.233  15.815 -0.0191  0.1374  0.0744
20941W        W25341   8.737   0.315  24.253  0.0529 -0.1776 -0.1031
20942W        W25342  11.468   4.901  24.510 -0.1733  0.0007 -0.0651
20943W        W25343  15.705   3.139  10.143  0.0319  0.0298 -0.3966
20944W        W25344  11.539   2.811  15.464 -0.0168 -0.2277  0.0069
20945W        W25345  14.847   6.477   7.095  0.4730  0.0254  0.1419
20946W        W25346  28.576   3.761  17.319  0.3571  0.1307  0.0091
20947W        W25347   6.192   5.037   5.148 -0.0911  0.0484 -0.1105
20948W        W25348  22.097   2.207   6.084 -0.2153 -0.0776  0.1174
20949W        W25349   4.993   5.894   6.912  0.0777  0.1505  0.2195
20950W        W25350  21.418   2.022  25.188  0.0158 -0.1489  0.1854
20951W        W25351  24.287   1.088   4.607 -0.0842 -0.0592 -0.0054
20952W        W25352   8.064   7.821  21.357 -0.0021  0.2515 -0.1154
20953W        W25353  12.948   2.994  16.137 -0.2165 -0.2311 -0.0776
20954W        W25354   9.079   5.964   0.264 -0.1533  0.1048 -0.1015
20955W        W25355  26.465   7.498  22.705 -0.0782  0.0505  0.1094
20956W        W25356   2.472   5.944  22.592  0.3462 -0.1222  0.0260
20957W        W25357   4.431   0.008  16.926 -0.2240  0.1219  0.1755
20958W        W25358  21.740   3.322   4.092  0.0227 -0.0141 -0.0001
20959W        W25359  26.410   0.188  22.117  0.3510  0.0750  0.1360
20960W        W25360  21.662   0.435  16.983  0.1262 -0.2065  0.1900
20961W        W25361  24.548   5.078   5.102  0.3251 -0.2237  0.1066
20962W        W25362   3.978   7.445   0.947  0.0849  0.1389 -0.0998
20963W        W25363   3.181   0.467   9.404  0.1132 -0.0446  0.0641
20964W        W25364  30.253   4.119  22.043 -0.0327 -0.1504  0.0046
20965W        W25365  28.456   5.322  25.652  0.3452 -0.0633 -0.2390
20966W        W25366  12.559   4.131   2.727 -0.0892 -0.0389  0.4099
20967W        W25367  22.049   4.823   0.540 -0.2227  0.0316  0.1387
20968W        W25368  31.092   5.873   6.944  0.0235  0.0531  0.1549
20969W        W25369  29.164   1.360  21.041  0.0609  0.2350  0.0488
20970W        W25370   5.742   2.225  16.403  0.0341 -0.1025  0.0611
20971W        W25371  26.491   0.908   4.559  0.2301  0.0230  0.0496
20972W        W25372   9.564   2.383  23.681  0.2152 -0.1781 -0.3068
20973W        W25373  25.597   2.208  23.835 -0.0770  0.0632 -0.1481
20974W        W25374  23.774   3.081  20.644  0.1348 -0.1511 -0.1465
20975W        W25375  10.841   6.647  10.431  0.1984 -0.1620 -0.0834
20976W        W25376  28.298   7.508  20.304  0.0870  0.2942  0.0077
20977W        W25377   4.209   0.670   4.741  0.3929  0.0752  0.0491
20978W        W25378  20.511   7.420  21.239  0.2280 -0.0056 -0.0643
20979W        W25379  14.194   7.590   0.489 -0.2264 -0.0264  0.1790
20980W        W25380  28.362   2.618  20.091  0.0999 -0.0199 -0.1161
20981W        W25381  27.333   5.085   2.052  0.0649 -0.3111 -0.1071
20982W        W25382  29.670   5.082   7.750  0.1190 -0.1207  0.3588
20983W        W25383   2.204   2.420   1.882 -0.0609 -0.1540 -0.2119
20984W        W25384   4.047   1.482  17.645 -0.2060  0.0224 -0.0597
20985W        W25385  29.943   0.228   2.982 -0.3857  0.0717 -0.1248
20986W        W25386  19.044   0.798  26.009  0.1174  0.2317  0.1553
20987W        W25387   8.932   3.744  16.005 -0.0390 -0.0382  0.0448
20988W        W25388  27.707   3.936   6.545  0.2624 -0.1126  0.1195
20989W        W25389  18.164   7.794   2.959  0.2884 -0.0647  0.1990
20990W        W25390  19.116   4.852  20.406 -0.1335 -0.1080  0.1500
20991W        W25391   4.181   1.721   1.742  0.0251  0.1117 -0.0209
20992W        W25392  17.703   6.094   9.461 -0.0642  0.0190 -0.0871
20993W        W25393  12.661   1.643   0.920  0.0230  0.1234  0.1542
20994W        W25394  14.563   4.296  22.247 -0.1677 -0.1362  0.0946
20995W        W25395  22.920   2.274   5.531  0.0509 -0.1056 -0.0069
20996W        W25396  17.025   3.820  21.925 -0.2083  0.0711  0.0056
20997W        W25397  19.927   4.398  16.989  0.0927  0.2164 -0.3998
20998W        W25398   0.903   5.047  22.203 -0.2122  0.1036 -0.1889
20999W        W25399  12.230   3.165  15.857 -0.0942 -0.3465  0.1098
21000W        W25400  14.232   1.934   7.103  0.2360 -0.0290 -0.0877
21001W        W25401  16.391   1.191  24.076 -0.2191 -0.0147  0.1250
21002W        W25402  23.651   0.211   1.984  0.1121  0.2370 -0.1735
21003W        W25403   7.258   7.539   8.668 -0.0303 -0.0707 -0.1338
21004W        W25404   0.203   5.280   0.289 -0.0957  0.0687  0.0603
21005W        W25405   8.257   5.417  24.595 -0.0349 -0.0978 -0.0999
21006W        W25406  25.924   0.115  19.190  0.0158  0.2612  0.0369
21007W        W25407  27.682   0.497  25.001  0.0054  0.2138  0.0935
21008W        W25408   7.247   1.388  25.507 -0.0909  0.2489 -0.0885
21009W        W25409  10.544   6.358  22.727 -0.0614 -0.0794 -0.0366
21010W        W25410  16.958   1.429   4.898  0.2634 -0.2435  0.0136
21011W        W25411   9.744   0.127   7.953  0.2286 -0.0196  0.0964
21012W        W25412  30.821   3.599  21.287  0.2436  0.1212  0.1272
21013W        W25413   2.131   5.886   7.114  0.0057 -0.1598  0.2834
21014W        W25414  18.104   0.981   6.596  0.0455 -0.0267  0.1876
21015W        W25415  12.320   7.388  21.727 -0.1680  0.0951 -0.0548
21016W        W25416   3.487   4.104  20.063  0.0475 -0.1717  0.0832
21017W        W25417  25.021   4.095  21.378 -0.2432 -0.2074 -0.1978
21018W        W25418  26.926   0.496   6.147 -0.3045  0.0612 -0.0844
21019W        W25419   9.000   7.671  22.523 -0.0824 -0.3291 -0.0786
21020W        W25420  19.266   5.164   6.491 -0.2669 -0.1974 -0.2100
21021W        W25421   4.842   4.461  14.621 -0.0394  0.1300 -0.1630
21022W        W25422   2.312   1.362  23.013 -0.1054 -0.1915  0.1653
21023W        W25423   7.579   0.305  16.153  0.4524 -0.0195 -0.0832
21024W        W25424  21.803   5.997   2.814  0.0523 -0.0690  0.0970
21025W        W25425  31.265   1.539   1.748  0.1667 -0.1301 -0.0012
21026W        W25426   2.036   3.202  25.194  0.0319  0.2610  0.1027
21027W        W25427  12.598   2.876   1.542  0.1808 -0.2499  0.1163
21028W        W25428   7.002   4.739   0.284 -0.2501 -0.0322  0.3398
21029W        W25429   8.050   0.398   5.821 -0.1179 -0.1486  0.1292
21030W        W25430  12.082   4.863  18.763  0.2305 -0.0330  0.2906
21031W        W25431  13.900   5.177  25.984  0.0090 -0.0071 -0.0914
21032W        W25432  20.242   3.419   1.239 -0.0894 -0.1874  0.0961
21033W        W25433   3.979   6.520  17.463 -0.2325  0.0803  0.0053
21034W        W25434  10.572   1.867  25.772  0.1784 -0.2140  0.2547
21035W        W25435  10.519   5.320  20.451 -0.3692 -0.0862  0.0420
21036W        W25436  13.120   2.518   6.853  0.1204 -0.1070  0.1673
21037W        W25437   1.612   6.283  15.513  0.0485 -0.0776 -0.1449
21038W        W25438   8.217   6.523   6.028  0.1778 -0.3245 -0.0672
21039W        W25439   7.067   5.280  19.093  0.3159  0.0209  0.2281
21040W        W25440  29.654   6.207   5.635  0.3788  0.3281  0.3318
21041W        W25441  13.490   4.033  24.218  0.2048  0.0349 -0.0227
21042W        W25442   4.550   2.609  24.294  0.1300 -0.0615  0.3780
21043W        W25443   3.601   4.319  18.193 -0.2489  0.0694  0.3484
21044W        W25444  23.585   6.690  23.474  0.1534  0.4962  0.1086
21045W        W25445   2.422   2.430  17.762 -0.0722  0.4226  0.1763
21046W        W25446  18.361   2.584   9.665  0.0669  0.1808 -0.2119
21047W        W25447   3.805   6.315  19.466 -0.0927 -0.2118 -0.0714
21048W        W25448  26.258   7.726  24.559 -0.0080 -0.1006 -0.2410
21049W        W25449   1.726   4.072   5.339  0.3410 -0.0176 -0.1505
21050W        W25450  25.491   5.999  19.402  0.3894 -0.0854  0.1981
21051W        W25451  22.057   2.004   4.544 -0.0619  0.1577 -0.0611
21052W        W25452  29.256   2.031   9.938 -0.1593 -0.3690  0.1677
21053W        W25453  26.807   4.494  17.366  0.0505 -0.0894  0.1705
21054W        W25454   6.329   7.282  25.455  0.2682 -0.2854  0.0016
21055W        W25455  16.228   6.848  22.795  0.2548  0.0169 -0.2283
21056W        W25456  10.488   1.218   7.707 -0.0154 -0.2209 -0.1357
21057W        W25457  12.953   7.542  24.715  0.0436 -0.2352  0.1036
21058W        W25458  31.298   0.766  18.934  0.1528  0.1499  0.1266
21059W        W25459  27.123   1.414   6.352  0.0625  0.2865  0.1102
21060W        W25460   0.458   5.870  23.256  0.1063 -0.1460 -0.0620
21061W        W25461  28.640   2.443  16.063  0.1026 -0.0349 -0.0806
21062W        W25462  23.294   0.752  22.324  0.0410 -0.3466 -0.0103
21063W        W25463  14.871   6.435   6.112  0.1407  0.1489  0.0639
21064W        W25464  27.222   4.984  23.948  0.1545  0.0310  0.1508
21065W        W25465  23.026   6.342   2.257  0.0341  0.0045  0.1704
21066W        W25466  13.204   4.903  16.584 -0.2440 -0.0258  0.1581
21067W        W25467  29.281   6.193  23.338  0.0559 -0.3582  0.1986
21068W        W25468  23.669   2.826  22.119 -0.1448  0.0236  0.0816
21069W        W25469   2.498   4.945   2.609 -0.2676  0.2087 -0.1384
21070W        W25470   5.427   1.888   8.489 -0.0286 -0.1381 -0.1696
21071W        W25471  14.195   1.233   1.153 -0.0528  0.2282  0.2352
21072W        W25472  10.882   5.533  20.125  0.0474  0.0707 -0.2308
21073W        W25473   3.421   1.862  15.383  0.0618  0.0377 -0.1686
21074W        W25474  17.889   6.303   8.186 -0.0541 -0.2878  0.4645
21075W        W25475  29.082   2.022  20.578 -0.1848 -0.1206 -0.1448
21076W        W25476  31.246   4.652  15.612 -0.1018 -0.0148 -0.0471
21077W        W25477   5.657   2.832  26.011  0.0545  0.1207 -0.0703
21078W        W25478  23.960   1.370   9.231  0.0208 -0.1166  0.1689
21079W        W25479   5.009   3.834  19.307 -0.3272 -0.2278 -0.0032
21080W        W25480   1.250   5.128  15.035  0.2010  0.1560 -0.0780
21081W        W25481  25.932   2.481  22.655  0.3038  0.1068  0.0666
21082W        W25482  14.394   5.071   4.013 -0.0870 -0.0118 -0.2635
21083W        W25483  21.203   7.054  17.486 -0.0606  0.2501  0.0194
21084W        W25484   2.219   0.316   1.414 -0.0570 -0.0158  0.0530
21085W        W25485   7.029   6.964  16.765  0.0239 -0.0777 -0.4557
21086W        W25486   5.564   4.649   4.323 -0.1422  0.3493  0.1887
21087W        W25487   0.186   3.409  15.434 -0.1427  0.3703  0.2694
21088W        W25488   6.477   1.200   5.143 -0.1314 -0.1115  0.0955
21089W        W25489  11.475   6.343  18.761 -0.1369 -0.0185 -0.3767
21090W        W25490  26.922   4.124  21.585 -0.1697  0.1189 -0.1475
21091W        W25491  20.507   5.207   0.168 -0.3293 -0.0389  0.0687
21092W        W25492  14.617   2.826  23.259  0.1147  0.2950 -0.1617
21093W        W25493  20.837   6.716  17.302  0.0526  0.2111 -0.0109
21094W        W25494  18.761   5.668  11.562 -0.3012 -0.0553 -0.1045
21095W        W25495   8.484   3.985   8.651 -0.6192 -0.0359 -0.0774
21096W        W25496  18.713   6.128   9.477 -0.2648 -0.1757  0.1090
21097W        W25497  19.404   4.090   5.728  0.1806 -0.2990  0.1473
21098W        W25498  20.213   1.611  10.554 -0.0857 -0.1439  0.3441
21099W        W25499  17.389   0.653   4.534  0.2149  0.0251  0.3045
21100W        W25500   6.516   7.413   4.674  0.0253  0.2103  0.1049
21101W        W25501  30.393   1.574  25.035  0.0738  0.0097 -0.1288
21102W        W25502   1.836   4.634  15.313 -0.2484 -0.0097 -0.3225
21103W        W25503  23.478   7.854  21.176 -0.2335 -0.3913  0.1485
21104W        W25504  22.062   1.404   9.609 -0.0233 -0.0718  0.1219
21105W        W25505   8.789   1.876   6.497 -0.0481  0.0269 -0.4132
21106W        W25506  22.858   4.301  16.048  0.2475  0.0228  0.1292
21107W        W25507   9.033   7.447  10.078  0.0372  0.0906 -0.1550
21108W        W25508  12.072   0.973   1.647 -0.1545  0.0021 -0.1551
21109W        W25509  29.631   3.971   2.113  0.2054  0.0085  0.2960
21110W        W25510   6.031   1.409  15.295 -0.1678  0.1478  0.0085
21111W        W25511   1.122   1.472  17.678  0.0554  0.3116  0.2339
21112W        W25512  15.781   3.608   5.696 -0.0101 -0.0206 -0.1076
21113W        W25513  17.212   2.243  22.313  0.1794  0.2000  0.0453
21114W        W25514  30.801   1.193  17.443 -0.2182 -0.0530 -0.0228
21115W        W25515   6.921   3.991   2.885  0.1551 -0.1390  0.2833
21116W        W25516  17.023   7.211   8.442 -0.1329 -0.1320 -0.2696
21117W        W25517  12.330   0.944  24.889 -0.2288 -0.2703  0.0405
21118W        W25518   7.444   2.983   3.624  0.0302 -0.0239  0.0155
21119W        W25519  16.781   5.087   1.296  0.0826  0.1661  0.0905
21120W        W25520  24.625   0.798   3.853  0.1709 -0.3089 -0.1147
21121W        W25521   6.155   6.566   5.763  0.0955 -0.2383 -0.1950
21122W        W25522   5.742   4.053  16.146  0.0117 -0.2059  0.3243
21123W        W25523  21.569   2.242  24.223 -0.3455  0.0801  0.0779
21124W        W25524  19.261   1.872   8.199 -0.1459 -0.1553 -0.1679
21125W        W25525  21.947   4.917   7.680  0.1172  0.1886 -0.2168
21126W        W25526  16.301   4.701  25.300 -0.0754 -0.0955 -0.2214
21127W        W25527  12.500   2.205   4.380  0.2114 -0.1557 -0.3337
21128W        W25528   6.734   7.402   8.501  0.3355  0.2648  0.0729
21129W        W25529  21.496   2.848  23.832 -0.2341  0.2809 -0.0648
21130W        W25530   6.564   5.019  21.803 -0.0208 -0.1303 -0.2886
21131W        W25531   4.190   3.283   9.886  0.1894  0.1876 -0.0252
21132W        W25532  16.754   2.966  25.333  0.0417  0.0336  0.0244
21133W        W25533  15.036   3.797  24.649 -0.0823  0.1622  0.2493
21134W        W25534  29.551   5.366  18.557  0.0407  0.0355 -0.0477
21135W        W25535  12.758   1.544  26.024  0.3896  0.1705  0.1433
21136W        W25536  22.938   0.819   2.351  0.0660  0.0940 -0.0364
21137W        W25537   1.914   2.101   1.644  0.0428  0.1444  0.0955
21138W        W25538  29.986   0.206  26.014 -0.1534 -0.0929  0.0048
21139W        W25539  15.306   1.935   3.773  0.2233  0.0839  0.0320
21140W        W25540  20.289   1.712   1.517 -0.0748 -0.3536  0.3247
21141W        W25541  20.054   5.115  22.770 -0.2385 -0.2641 -0.0033
21142W        W25542  26.393   6.799   4.396  0.1593 -0.2497  0.1262
21143W        W25543  23.934   4.462  19.890  0.0136  0.1200 -0.0765
21144W        W25544  13.848   4.193   6.523 -0.1138 -0.3559  0.1853
21145W        W25545   7.916   4.298   6.346 -0.2298  0.2750  0.2864
21146W        W25546  12.847   3.380  22.619  0.0900 -0.2106  0.4660
21147W        W25547   4.479   7.011  22.727  0.2725 -0.2545  0.0544
21148W        W25548  26.430   3.770   8.228 -0.3055 -0.1193 -0.1266
21149W        W25549  26.602   3.151  25.140 -0.0669 -0.0846  0.0307
21150W        W25550  26.893   5.926  23.363 -0.0224  0.1556 -0.4749
21151W        W25551  30.539   3.932  23.946  0.0084 -0.2131  0.1307
21152W        W25552   2.209   7.563   8.849  0.2640  0.1512 -0.0164
21153W        W25553   6.980   3.937  10.081 -0.0507 -0.0837 -0.0148
21154W        W25554  16.719   7.307   7.457 -0.0916  0.2640  0.2740
21155W        W25555  29.714   0.747  10.419  0.1491 -0.1164  0.0842
21156W        W25556   4.791   4.442  15.994 -0.0521  0.0769  0.1585
21157W        W25557  13.316   5.323  18.126 -0.1452 -0.0386  0.2540
21158W        W25558  21.583   7.121   6.219 -0.4014  0.0826 -0.2855
21159W        W25559  13.862   2.191  16.681 -0.0798  0.0260  0.1559
21160W        W25560  29.175   4.062  22.407  0.1248  0.0484 -0.2533
21161W        W25561  11.788   2.888  15.899 -0.0201 -0.3002  0.0148
21162W        W25562  21.715   0.290  23.323  0.0707  0.1480  0.3082
21163W        W25563   0.801   2.100   2.469  0.1265  0.2378 -0.0907
21164W        W25564  19.037   7.575   2.826  0.0610  0.0006 -0.2408
21165W        W25565   0.315   2.143   9.791 -0.0615  0.2067  0.0098
21166W        W25566  20.488   0.328  20.394 -0.0762  0.0363  0.2607
21167W        W25567   8.818   2.992  25.147 -0.0023  0.0975 -0.0517
21168W        W25568  18.141   7.420   6.316 -0.2838  0.0960 -0.1117
21169W        W25569   3.649   4.658  24.553  0.0177  0.2283  0.1522
21170W        W25570  15.181   4.490  17.719 -0.1534 -0.1393  0.0878
21171W        W25571  27.595   1.576   2.720 -0.0369  0.0340  0.0017
21172W        W25572   9.243   6.706   9.672  0.2017  0.3795  0.1197
21173W        W25573   4.214   4.818  19.282  0.0039  0.1532  0.1293
21174W        W25574   7.825   2.278  22.660 -0.2787 -0.2577 -0.1745
21175W        W25575   6.874   4.083  15.915  0.0082  0.0729  0.0648
21176W        W25576  25.273   2.235  25.164 -0.0690  0.2077 -0.1526
21177W        W25577   8.458   7.554   4.917  0.1042 -0.0182 -0.2206
21178W        W25578  24.693   1.152  10.521 -0.3816  0.3364  0.1166
21179W        W25579  11.178   4.986   7.523  0.1376  0.1367 -0.2799
21180W        W25580  11.790   5.199  17.307 -0.1963 -0.1722  0.2437
21181W        W25581  10.003   4.700   3.045 -0.0011  0.0795  0.1563
21182W        W25582   1.508   4.954   1.120 -0.0312  0.2434  0.0535
21183W        W25583   8.863   2.422   9.191 -0.0653  0.0059 -0.1230
21184W        W25584  21.558   1.063   3.826 -0.1075  0.0836  0.0287
21185W        W25585  21.108   7.631  20.081  0.1285  0.0608  0.2008
21186W        W25586  14.901   5.062   5.198 -0.1568  0.0574  0.0263
21187W        W25587  28.496   5.716  17.662 -0.0556 -0.1128 -0.0245
21188W        W25588   1.350   7.098  20.726 -0.0270  0.3278  0.3174
21189W        W25589  14.107   2.764   1.632 -0.1146 -0.1256  0.2665
21190W        W25590   6.219   2.723   0.679  0.0660 -0.2021 -0.3657
21191W        W25591  26.903   5.440  23.162 -0.0059 -0.0641 -0.1231
21192W        W25592  29.681   7.300   2.518  0.0617 -0.1303 -0.0137
21193W        W25593  16.332   1.841  16.567 -0.3757  0.0272 -0.0215
21194W        W25594  18.401   7.669   5.721  0.0946  0.1848 -0.3758
21195W        W25595  22.832   0.826   6.535  0.1131  0.1278 -0.0504
21196W        W25596  28.264   2.646   1.581 -0.2601 -0.1258 -0.0318
21197W        W25597  10.887   3.308  22.405 -0.0060 -0.2656  0.0692
21198W        W25598   7.625   1.231   3.010 -0.0498 -0.1336 -0.0517
21199W        W25599  24.754   1.908  21.456  0.2827  0.0123 -0.0430
21200W        W25600   0.917   2.184   7.757 -0.0150 -0.4587 -0.2795
21201W        W25601  20.409   2.633   7.966  0.0431  0.0344  0.2340
21202W        W25602  30.451   7.311  16.376 -0.2972 -0.1133  0.1160
21203W        W25603  23.804   4.752   0.233  0.0227 -0.0235  0.1382
21204W        W25604  10.950   2.750   0.675  0.2246  0.2475 -0.2591
21205W        W25605  18.315   3.007  21.252  0.2767 -0.0312  0.3748
21206W        W25606  20.826   0.979   1.193 -0.2174  0.1909 -0.1139
21207W        W25607   3.897   7.596   7.750  0.0613  0.0711 -0.0018
21208W        W25608  23.791   6.771   5.810 -0.0775 -0.2061  0.0477
21209W        W25609  19.847   0.454  17.798  0.4026 -0.1169 -0.2176
21210W        W25610   8.226   6.648  10.202 -0.5094  0.1292  0.1123
21211W        W25611  27.707   1.718  15.315 -0.1664 -0.0978  0.1250
21212W        W25612  15.774   1.555   8.077 -0.2486  0.0858 -0.1588
21213W        W25613  17.586   2.392  17.835  0.0354 -0.2013  0.1688
21214W        W25614  23.884   4.271  15.406  0.0632 -0.1682 -0.2959
21215W        W25615   9.317   6.654  16.200  0.0449  0.4908  0.1814
21216W        W25616  19.441   4.039   9.741  0.1444 -0.0502 -0.1210
21217W        W25617  21.851   5.327   9.046  0.1666  0.1479  0.0043
21218W        W25618  19.194   3.964   6.802 -0.0669 -0.1103  0.3521
21219W        W25619  29.981   3.030   2.992  0.1854  0.0419 -0.1016
21220W        W25620  22.882   7.232   1.571 -0.0548 -0.4530 -0.0519
21221W        W25621  12.819   5.914  10.677 -0.0761  0.1383  0.0098
21222W        W25622  24.044   5.746   4.906  0.1430  0.0035  0.1454
21223W        W25623  10.660   0.220  21.154 -0.0624  0.1365  0.0787
21224W        W25624  28.916   0.879  24.103 -0.1759 -0.0775 -0.1772
21225W        W25625  25.684   6.429  25.855 -0.0095  0.0677 -0.1047
21226W        W25626  15.074   0.388  10.039 -0.0518  0.2027  0.1159
21227W        W25627  28.652   0.639  11.012  0.0024  0.1425 -0.3215
21228W        W25628   3.122   4.513  19.213  0.1876  0.3808  0.1442
21229W        W25629  24.495   6.935  23.073 -0.1128 -0.1962 -0.1864
21230W        W25630  25.549   5.421  16.619  0.2513  0.1151 -0.0171
21231W        W25631  29.087   6.069   7.454 -0.0901 -0.4800  0.0027
21232W        W25632  13.013   6.175   3.907  0.0163  0.1331 -0.1128
21233W        W25633  13.742   4.388  21.855 -0.0788  0.1001  0.0415
21234W        W25634  23.247   5.921   3.318 -0.0202  0.2032  0.0694
21235W        W25635  23.859   2.885   2.054 -0.2331 -0.1390 -0.2066
21236W        W25636  11.423   0.188  20.258  0.1783 -0.0422 -0.0504
21237W        W25637  11.908   5.401   4.809  0.0030 -0.0967  0.0651
21238W        W25638  25.321   7.342  23.594  0.1658 -0.2053 -0.2361
21239W        W25639  14.477   6.577  23.162  0.2380 -0.0560 -0.0738
21240W        W25640  23.024   4.437  23.233  0.1156 -0.1195 -0.1133
21241W        W25641   3.587   4.360  23.216 -0.0605  0.2280  0.0464
21242W        W25642  20.296   1.275  22.721 -0.0212 -0.0912 -0.1338
21243W        W25643  13.562   5.254  22.867  0.2596 -0.0918  0.0828
21244W        W25644  26.509   1.290   3.359  0.1293  0.1245  0.1061
21245W        W25645  28.350   7.425   7.758 -0.0032 -0.1222  0.3257
21246W        W25646  18.184   3.141  24.820 -0.0131  0.0311 -0.1584
21247W        W25647  10.143   7.710  25.369 -0.0997  0.2673  0.1069
21248W        W25648  30.146   3.919   2.326 -0.1659 -0.0558  0.0624
21249W        W25649  12.480   6.051   7.680 -0.0880 -0.2225  0.0027
21250W        W25650  17.304   4.230   0.097  0.1125  0.0449 -0.0879
21251W        W25651   6.399   6.148   9.769 -0.2553 -0.1106 -0.0922
21252W        W25652  25.303   1.005  17.737  0.1497  0.3400 -0.2372
21253W        W25653  26.105   1.380   5.259 -0.0517  0.0007  0.0924
21254W        W25654  24.410   2.097   8.431 -0.0304 -0.2267  0.0663
21255W        W25655  22.844   3.765  17.832 -0.0467  0.1390 -0.0576
21256W        W25656  10.628   3.749  19.721 -0.0821  0.3438 -0.0753
21257W        W25657  21.423   7.012   0.261  0.3280 -0.0031 -0.2786
21258W        W25658   5.663   4.654   6.007  0.1691 -0.2800  0.0048
21259W        W25659   4.934   6.945   0.744 -0.0228 -0.3528 -0.1712
21260W        W25660  18.648   5.522  24.110  0.0744 -0.2738  0.0955
21261W        W25661   4.812   4.311   5.844 -0.2181  0.0341  0.1715
21262W        W25662  31.274   7.446   0.327 -0.1154  0.1457  0.0180
21263W        W25663  18.949   3.091  22.786 -0.1853  0.6572 -0.1275
21264W        W25664  14.519   6.082   4.484  0.1215  0.0556 -0.0378
21265W        W25665   1.647   6.215  22.720 -0.0808 -0.0159 -0.0158
21266W        W25666  20.521   5.887  17.811 -0.2142 -0.3190  0.2421
21267W        W25667  14.184   3.935  15.673  0.2572 -0.0028 -0.0435
21268W        W25668  18.144   2.374  25.048  0.1883  0.0591 -0.1259
21269W        W25669  19.345   4.737  16.327  0.1944  0.3164  0.2106
21270W        W25670   9.352   1.242   5.278  0.0170  0.2195  0.1882
21271W        W25671   2.448   5.938  14.167 -0.2961 -0.0991  0.0641
21272W        W25672   9.243   4.363  23.073 -0.1344  0.2685 -0.0025
21273W        W25673   4.546   4.255   3.329  0.4539 -0.0551  0.3656
21274W        W25674   9.082   0.756  20.337  0.0803 -0.1622  0.0627
21275W        W25675   6.094   3.141   8.766  0.2596 -0.3963  0.2002
21276W        W25676   4.817   4.443   6.843  0.0512 -0.1984 -0.1162
21277W        W25677   5.798   0.790   1.790  0.0419 -0.0960 -0.1388
21278W        W25678  27.516   1.044   7.075 -0.1000  0.0179 -0.0754
21279W        W25679  28.472   6.984   1.708 -0.1753 -0.1203  0.0084
21280W        W25680  25.858   0.900   6.205 -0.0057 -0.1343 -0.1808
21281W        W25681  21.535   5.571   1.536  0.0307  0.5186 -0.0541
21282W        W25682   7.571   6.526  19.182  0.0189 -0.1382 -0.1740
21283W        W25683  11.364   3.654  16.605 -0.1415  0.0347 -0.3124
21284W        W25684   5.823   0.780  17.733  0.1657  0.0957  0.0837
21285W        W25685  29.956   6.795  26.075 -0.2258 -0.1989  0.2168
21286W        W25686  30.457   0.987   4.155  0.2054  0.1502  0.0663
21287W        W25687   4.799   4.725  24.443  0.2810  0.0546 -0.1549
21288W        W25688  13.267   6.586  23.631  0.0044  0.0712 -0.0111
21289W        W25689  25.180   6.331   4.361 -0.0099 -0.2298  0.0557
21290W        W25690   0.928   0.757   1.936  0.5615 -0.0842  0.0332
21291W        W25691  18.044   0.938  11.480  0.0871 -0.1451  0.0119
21292W        W25692  22.349   2.453  25.599  0.2343 -0.2006  0.0729
21293W        W25693  21.751   3.711   6.850  0.0092  0.0035  0.0650
21294W        W25694  22.061   4.810   5.561 -0.0118 -0.3840 -0.1409
21295W        W25695  30.570   4.240   2.127  0.2731  0.3890 -0.1047
21296W        W25696   9.833   0.765   8.928  0.2714  0.3513  0.2001
21297W        W25697  14.239   0.390  17.012  0.3291  0.0265  0.2421
21298W        W25698  12.874   2.741   7.683 -0.2152  0.0213 -0.2116
21299W        W25699  14.262   6.208   8.139 -0.2758  0.4046  0.1240
21300W        W25700  25.468   7.362  16.523  0.1816 -0.0951  0.1026
21301W        W25701  19.738   3.796   5.536 -0.1972  0.0783 -0.0812
21302W        W25702   2.597   6.524   1.711  0.0170  0.0305 -0.0326
21303W        W25703  26.941   5.797   0.885  0.1340 -0.0631 -0.0282
21304W        W25704  25.887   2.613   5.072  0.1246  0.0048  0.1874
21305W        W25705  28.639   1.489  10.384  0.1764 -0.0554  0.2973
21306W        W25706   5.460   7.651   0.311 -0.1604  0.0081 -0.0678
21307W        W25707   2.956   5.135  19.331 -0.1240 -0.1398 -0.1591
21308W        W25708   7.646   4.643  15.639  0.1593  0.1493  0.2532
21309W        W25709  16.091   4.587  24.408  0.0129 -0.0824 -0.2679
21310W        W25710  19.553   3.238  20.071 -0.2199 -0.0805 -0.0579
21311W        W25711  23.810   1.295  23.630 -0.3719 -0.0348 -0.3869
21312W        W25712  22.971   4.779  16.143  0.1017 -0.0711  0.0633
21313W        W25713  21.996   4.218   2.345  0.1472  0.0388 -0.1737
21314W        W25714   6.704   4.324   2.619  0.0807 -0.0436  0.3312
21315W        W25715  25.988   3.490  22.679  0.0482  0.1874  0.1000
21316W        W25716   8.393   2.476  17.532  0.1508  0.2859 -0.0152
21317W        W25717  30.929   4.265  19.857 -0.1117 -0.0574 -0.1195
21318W        W25718  28.369   0.930  25.489 -0.0703  0.1239  0.0460
21319W        W25719  11.295   3.888   8.367  0.0568  0.0996  0.1910
21320W        W25720  13.333   6.479   9.867 -0.1476  0.0693 -0.0320
21321W        W25721  29.151   3.542  25.146 -0.1951 -0.2537  0.0931
21322W        W25722  12.204   4.658   0.762  0.2038  0.0480  0.1605
21323W        W25723  18.649   0.823   7.146 -0.0299 -0.0657  0.0365
21324W        W25724  30.873   6.553  15.423  0.1041 -0.0233 -0.5054
21325W        W25725  26.947   4.177  19.480 -0.1751 -0.0797  0.0153
21326W        W25726  18.676   2.870  11.179 -0.0974  0.3457  0.1169
21327W        W25727  29.344   7.200  22.012 -0.0395  0.3320  0.1564
21328W        W25728   3.185   5.507  18.967  0.1026  0.0909  0.0353
21329W        W25729  22.447   5.145   9.827  0.0605  0.0394 -0.1796
21330W        W25730  19.026   7.401  17.591 -0.2527  0.4058 -0.1396
21331W        W25731  11.978   5.187   1.759  0.0925 -0.0430  0.0446
21332W        W25732  11.808   2.321   3.280 -0.3267 -0.1860  0.0826
21333W        W25733   9.592   3.155  21.578  0.1145  0.4261 -0.0367
21334W        W25734  12.048   2.214  16.802  0.0814 -0.0803 -0.2543
21335W        W25735  24.127   6.437   3.340 -0.1995 -0.4515  0.1731
21336W        W25736  13.844   7.424  25.271 -0.3400  0.2277 -0.2925
21337W        W25737  28.320   1.200   6.624  0.2221 -0.0260  0.0976
21338W        W25738  18.073   0.582  24.041  0.0870 -0.0525 -0.1686
21339W        W25739  24.836   5.193  16.340  0.0241 -0.2397  0.2217
21340W        W25740  22.361   2.630  21.652 -0.1362  0.3755  0.3185
21341W        W25741  26.532   7.278  26.002 -0.2682  0.0553 -0.1408
21342W        W25742  24.438   2.873  17.235 -0.0747  0.2778  0.1809
21343W        W25743   9.448   5.146  23.528  0.1022  0.0385  0.2333
21344W        W25744   9.486   7.143  21.605 -0.0880  0.0425 -0.3325
21345W        W25745   5.856   1.890  15.866 -0.1868 -0.0998 -0.1432
21346W        W25746  15.829   7.579   0.069 -0.0029  0.3320 -0.0878
21347W        W25747  25.575   6.712  18.409 -0.0950  0.1747 -0.4096
21348W        W25748  31.441   2.248   7.384  0.3602  0.1524  0.0980
21349W        W25749  13.786   2.511   8.030 -0.2462  0.0066  0.0133
21350W        W25750  28.828   3.487  16.993 -0.1806  0.1815 -0.0917
21351W        W25751   7.737   3.596   9.586 -0.2554  0.3124 -0.2951
21352W        W25752   8.798   6.635   7.168  0.0585 -0.2084  0.1737
21353W        W25753  17.366   7.376  17.189 -0.1895 -0.3377 -0.0412
21354W        W25754  10.709   1.203   1.966 -0.0178  0.1282 -0.1681
21355W        W25755  29.013   2.439   8.762  0.1756 -0.3356  0.0111
21356W        W25756  19.671   2.517   6.687 -0.0658 -0.2714  0.0683
21357W        W25757  19.753   0.131  20.422 -0.0087  0.1059  0.2110
21358W        W25758  11.045   6.166   0.245 -0.1152 -0.3545 -0.4977
21359W        W25759   9.853   1.239   5.864 -0.5497  0.0965  0.0157
21360W        W25760   6.111   0.720  25.116 -0.1920 -0.1828 -0.3463
21361W        W25761  13.772   7.432   3.621  0.0988  0.1327  0.1395
21362W        W25762  15.079   2.074  19.528 -0.2697  0.0227 -0.2368
21363W        W25763  16.600   2.694  23.192 -0.4745  0.0774 -0.0218
21364W        W25764  22.106   5.227  24.106  0.2016 -0.0795  0.1295
21365W        W25765   9.722   0.150   0.769 -0.1996  0.1219  0.1715
21366W        W25766  21.711   3.761   3.865  0.0037  0.0417  0.2672
21367W        W25767   8.294   1.895   9.666  0.1802 -0.0086 -0.0532
21368W        W25768   2.589   6.873   1.215  0.2217  0.1736 -0.1028
21369W        W25769  29.457   0.500  15.456 -0.1315  0.0683 -0.1044
21370W        W25770  21.908   3.883   3.341 -0.0752  0.0425 -0.1033
21371W        W25771  22.629   3.044   1.518  0.0861 -0.1031  0.2694
21372W        W25772   7.455   1.178  15.578 -0.1028  0.0670 -0.0514
21373W        W25773  27.196   7.653  19.965 -0.2066  0.2090 -0.2194
21374W        W25774  15.495   1.602  19.695  0.2796  0.2271 -0.1141
21375W        W25775  18.556   7.587   7.095  0.1248 -0.1648  0.1382
21376W        W25776  20.667   3.242  24.155 -0.1951 -0.2968 -0.1052
21377W        W25777  22.822   1.775   5.017 -0.0020 -0.0225 -0.0058
21378W        W25778   7.423   7.559   5.065  0.2930  0.0163  0.0238
21379W        W25779  28.012   4.901  18.239  0.1531 -0.0721 -0.2170
21380W        W25780  11.303   4.583  22.098 -0.0130 -0.0762  0.0301
21381W        W25781  25.964   2.318  21.133 -0.1637  0.2639 -0.0914
21382W        W25782  10.681   7.686   4.498 -0.1620  0.0221  0.1194
21383W        W25783   5.233   4.274  16.771 -0.2219 -0.0558  0.0462
21384W        W25784  13.219   1.775   6.240  0.3418  0.0562 -0.0916
21385W        W25785  31.358   4.057  22.161  0.0814  0.3246  0.1300
21386W        W25786  24.318   2.584  15.378 -0.1975  0.0562 -0.4800
21387W        W25787  29.714   3.613   8.598  0.3880 -0.0212  0.0334
21388W        W25788   0.203   2.544  17.480  0.0491 -0.0571 -0.1507
21389W        W25789  31.163   0.425   3.555  0.1881 -0.1645 -0.0644
21390W        W25790   1.146   2.989   4.399 -0.0330 -0.0062  0.2279
21391W        W25791  29.354   6.005   2.288 -0.2093 -0.2489  0.1972
21392W        W25792  18.634   5.295  25.778 -0.1597 -0.2690 -0.1945
21393W        W25793  19.186   6.785  10.226 -0.0047  0.0908 -0.0419
21394W        W25794  24.301   2.611   3.714  0.0222  0.0800  0.4324
21395W        W25795   1.004   1.188  24.165 -0.0488 -0.2548  0.1694
21396W        W25796   0.283   4.071   6.716 -0.0594  0.3592 -0.1783
21397W        W25797  29.645   5.259   5.315  0.2466 -0.1030 -0.0402
21398W        W25798  13.898   5.935   5.429  0.3145 -0.1740  0.1498
21399W        W25799   4.172   5.951   7.104 -0.1735  0.2521 -0.1093
21400W        W25800  14.464   4.378   1.779  0.2732  0.1078 -0.2739
21401W        W25801  17.387   6.835  10.360  0.0133  0.0260 -0.2034
21402W        W25802   3.503   7.510  22.964  0.0821  0.0901 -0.2219
21403W        W25803  19.079   0.832  10.953 -0.1100 -0.1146  0.1169
21404W        W25804  29.419   1.322   4.256  0.1537 -0.1563  0.4358
21405W        W25805  16.327   2.698  25.005  0.0753 -0.0141  0.2166
21406W        W25806   6.035   6.711   4.214  0.2414 -0.1913  0.1527
21407W        W25807  29.859   3.970   8.858 -0.1298  0.0608 -0.0106
21408W        W25808  13.254   1.205  17.535  0.0451 -0.1085  0.3152
21409W        W25809  16.600   4.189  10.837  0.0605  0.0402 -0.0792
21410W        W25810  22.585   4.032  19.950 -0.0399 -0.0286 -0.1836
21411W        W25811   6.370   6.537  14.873 -0.0314  0.1046  0.0792
21412W        W25812  15.886   0.490   8.558 -0.2052 -0.0241 -0.1002
21413W        W25813   0.015   3.188  18.729  0.0807  0.0755 -0.0497
21414W        W25814  12.855   6.534   5.016  0.0945 -0.1855 -0.1714
21415W        W25815  12.670   3.355  17.023  0.0648  0.1160 -0.2110
21416W        W25816  12.212   3.843   3.246  0.2147 -0.0799  0.0815
21417W        W25817   9.216   5.452  24.316  0.2176  0.2241  0.0021
21418W        W25818  21.463   0.173  15.026 -0.2265  0.0498 -0.0025
21419W        W25819  25.645   6.157   1.100  0.0207 -0.0768  0.2562
21420W        W25820  16.503   0.152  25.660  0.1486  0.0666  0.3706
21421W        W25821  18.497   0.083  19.020  0.1195 -0.2470  0.0511
21422W        W25822  13.030   0.486   6.248 -0.0520 -0.0920  0.0091
21423W        W25823  13.048   6.787   9.252  0.0097  0.1581  0.4431
21424W        W25824  11.887   7.715  18.655  0.0302 -0.1777 -0.0708
21425W        W25825  10.040   1.081  23.153 -0.1692 -0.0387  0.1691
21426W        W25826   8.542   3.114   6.865  0.1223 -0.0484 -0.1180
21427W        W25827   6.391   2.022   3.585  0.0481  0.1378  0.0305
21428W        W25828  26.353   5.838   9.068 -0.0581  0.1153 -0.2040
21429W        W25829   5.203   0.651   0.511 -0.0683  0.1077  0.0687
21430W        W25830   9.415   5.710   3.101 -0.1017  0.0412  0.2203
21431W        W25831   6.098   2.686  17.685 -0.1379  0.2206 -0.2930
21432W        W25832  21.832   1.611   4.904 -0.0427 -0.1663 -0.2410
21433W        W25833  22.596   1.055  19.500  0.1644  0.0152  0.1260
21434W        W25834  27.994   3.224  21.222  0.0972 -0.3035  0.1373
21435W        W25835  12.602   2.501   1.851 -0.1382 -0.0395 -0.2400
21436W        W25836  28.988   6.874  16.276 -0.0345  0.1529 -0.3923
21437W        W25837   8.027   1.987  24.217 -0.0840 -0.1030  0.1177
21438W        W25838  30.904   6.972  18.643  0.0803  0.0503  0.0349
21439W        W25839  19.056   1.903  10.153  0.0913 -0.1809 -0.4357
21440W        W25840   3.226   0.901   4.872  0.0085  0.1839  0.1883
21441W        W25841   2.713   6.115   5.579  0.0301 -0.1372  0.3014
21442W        W25842   8.901   1.856  10.066 -0.3059 -0.2466 -0.2682
21443W        W25843  28.844   6.330   9.393 -0.0224 -0.4500 -0.0824
21444W        W25844   0.105   5.081  15.734  0.0026  0.0313  0.0961
21445W        W25845   6.349   1.062   4.045 -0.1424 -0.2656 -0.0256
21446W        W25846   4.747   1.189  18.513  0.2241  0.0913  0.0365
21447W        W25847  19.138   1.389  18.767  0.0924 -0.2924 -0.1943
21448W        W25848   7.822   3.446   8.809 -0.0378 -0.2226  0.1358
21449W        W25849   6.726   5.788  10.267 -0.0791  0.1279 -0.0677
21450W        W25850   5.093   4.864  10.519  0.2082  0.1038  0.1747
21451W        W25851  12.691   2.396   5.889 -0.0253 -0.1778  0.1217
21452W        W25852  11.022   7.742   6.730  0.0399  0.1253 -0.1581
21453W        W25853  19.980   2.115  10.554  0.1706 -0.1609  0.2326
21454W        W25854   7.764   4.870   4.006 -0.1966 -0.0349  0.1629
21455W        W25855   2.117   6.457  24.916  0.2109 -0.2557 -0.1016
21456W        W25856  15.484   4.422   2.598  0.0345 -0.2578 -0.0638
21457W        W25857  10.900   1.068   7.515 -0.2559 -0.4255  0.3509
21458W        W25858   3.995   1.503  18.586 -0.0020  0.3935 -0.3875
21459W        W25859   6.619   2.595   5.614 -0.1663 -0.0653 -0.1429
21460W        W25860   6.534   1.268  15.647 -0.1295  0.0132 -0.0410
21461W        W25861  11.212   3.719   5.123 -0.0769 -0.3924 -0.0734
21462W        W25862   1.691   3.919   9.127 -0.0796 -0.3145 -0.1534
21463W        W25863   0.312   4.042  20.759  0.0079 -0.0174  0.0964
21464W        W25864  15.011   3.158   1.361 -0.0011  0.1695 -0.0020
21465W        W25865   0.948   7.409  18.724  0.1889 -0.1387  0.2605
21466W        W25866  15.149   6.179   7.717  0.1021  0.2205  0.0763
21467W        W25867  13.719   0.954   5.747 -0.2833 -0.0927  0.2181
21468W        W25868  10.788   7.686   6.285 -0.1022  0.1623 -0.0032
21469W        W25869  21.586   1.715  11.185  0.1447 -0.0408  0.0921
21470W        W25870   2.806   0.499  15.049 -0.1008  0.3426 -0.3526
21471W        W25871  28.853   1.211  22.057  0.3097 -0.2178 -0.0259
21472W        W25872  17.639   5.192  20.888  0.4393  0.0113 -0.1926
21473W        W25873  11.915   5.603  24.933  0.1195  0.1350 -0.1225
21474W        W25874   7.955   4.988   6.829 -0.0987  0.1137 -0.1917
21475W        W25875  13.563   0.840   3.545 -0.1979  0.1023 -0.3225
21476W        W25876  27.910   2.861   2.548  0.0927  0.1522 -0.1476
21477W        W25877  24.132   7.445  19.134  0.1980 -0.0142 -0.1100
21478W        W25878  25.261   4.043  18.256  0.0414 -0.2331 -0.1899
21479W        W25879  11.538   1.536  24.648  0.1025  0.1362 -0.1854
21480W        W25880   1.751   3.468  18.658 -0.1402 -0.0179  0.1142
21481W        W25881  12.628   6.588  20.014  0.0594 -0.1845 -0.3075
21482W        W25882  31.075   3.551  22.324 -0.2575 -0.1164  0.0991
21483W        W25883  16.021   7.360  16.286 -0.4219  0.1871 -0.2407
21484W        W25884  20.515   5.324  20.431  0.2096 -0.0801 -0.2807
21485W        W25885  24.683   1.589   0.251  0.2424 -0.2880  0.0896
21486W        W25886   0.073   1.612  17.669 -0.0622 -0.3881  0.1861
21487W        W25887   6.663   1.397   7.597  0.3541 -0.0706  0.1825
21488W        W25888  27.996   1.035   5.623  0.1233 -0.0041  0.0739
21489W        W25889   3.045   2.795   9.099  0.0489 -0.0805 -0.0773
21490W        W25890  26.720   7.121  22.936 -0.2542  0.2267  0.0902
21491W        W25891  29.194   2.070   7.275 -0.1673  0.1986 -0.3661
21492W        W25892   6.950   1.333  25.075 -0.1443  0.1817 -0.2592
21493W        W25893   5.196   6.651   6.531 -0.0647  0.0739 -0.0927
21494W        W25894  14.666   3.159  19.301  0.0577 -0.0407 -0.0904
21495W        W25895  21.193   0.458   3.709  0.0447  0.0195  0.0606
21496W        W25896  26.084   4.180   8.610 -0.0739 -0.3166  0.0311
21497W        W25897  16.683   0.054  16.377 -0.0565 -0.1646  0.0294
21498W        W25898  24.766   4.154   9.194  0.1796 -0.0313  0.0490
21499W        W25899  15.920   4.907  20.334 -0.0835 -0.2309 -0.1049
21500W        W25900  27.107   1.380   8.901  0.2998  0.0769 -0.3060
21501W        W25901  11.541   4.364  19.362 -0.3296 -0.1264  0.0751
21502W        W25902  14.975   1.424  20.336  0.0912  0.1178  0.2795
21503W        W25903  18.834   0.510  24.974  0.1414 -0.1187 -0.1964
21504W        W25904  11.458   6.162   7.819  0.1960 -0.1207 -0.1370
21505W        W25905  21.203   3.986   3.963 -0.1123 -0.0570  0.0627
21506W        W25906   2.522   2.421   2.294  0.1372 -0.1351 -0.1740
21507W        W25907  26.281   1.489   1.533  0.1216  0.0167  0.0314
21508W        W25908  10.446   2.951   9.743 -0.1824 -0.1252  0.2324
21509W        W25909  14.538   2.539   3.308 -0.0982 -0.1197  0.1090
21510W        W25910  14.088   1.760   8.834 -0.1208  0.1007  0.2847
21511W        W25911   8.924   7.155  25.664  0.1917 -0.2245 -0.0105
21512W        W25912   8.962   2.053  22.632  0.1331 -0.0666 -0.1259
21513W        W25913  11.132   2.638  23.248  0.2486 -0.0150 -0.0863
21514W        W25914   9.354   1.976   7.521 -0.0566  0.0291 -0.0256
21515W        W25915  15.152   2.404   6.722 -0.2043  0.0026 -0.1734
21516W        W25916  19.593   6.825  25.181  0.0565  0.2051 -0.2231
21517W        W25917  23.639   1.050   6.026  0.4934 -0.2097 -0.4775
21518W        W25918   0.721   6.909  17.791  0.0264 -0.0364  0.1840
21519W        W25919   5.032   5.550  24.253  0.2093  0.0312  0.0714
21520W        W25920  22.161   4.904  22.760 -0.0456 -0.0437 -0.1800
21521W        W25921  19.627   2.065   9.857 -0.0737 -0.0510  0.0741
21522W        W25922   7.045   6.934   6.100 -0.1377  0.0013  0.0130
21523W        W25923  23.586   4.048   6.351  0.2007 -0.1139  0.0574
21524W        W25924  12.177   2.220  18.595 -0.1137  0.1592 -0.2694
21525W        W25925   7.119   0.444  16.311 -0.0056 -0.0745  0.1740
21526W        W25926  11.161   7.110   2.147  0.1901  0.1783 -0.3695
21527W        W25927  23.740   6.427  10.365 -0.0798  0.0003 -0.0886
21528W        W25928  10.595   3.302  20.279 -0.2239 -0.0454 -0.3839
21529W        W25929  10.040   6.101  18.603 -0.1370  0.0007 -0.1144
21530W        W25930  30.813   6.275   8.771 -0.1468  0.3694  0.1747
21531W        W25931  21.667   7.584  21.834 -0.0429  0.0233  0.1159
21532W        W25932  10.400   5.060  20.015 -0.0876 -0.1033 -0.2737
21533W        W25933  14.758   3.634   5.317  0.0156 -0.0024  0.1793
21534W        W25934   9.420   6.925   8.124  0.1976  0.1129 -0.1305
21535W        W25935   7.859   7.112  18.639 -0.2377 -0.3042 -0.1055
21536W        W25936  29.055   7.800   5.488 -0.1666  0.1207 -0.0603
21537W        W25937  10.341   6.971  24.071 -0.1380 -0.1178  0.0397
21538W        W25938   0.306   2.990  23.190  0.1360  0.0395 -0.3719
21539W        W25939   7.724   7.339  22.730 -0.0033 -0.0326 -0.2549
21540W        W25940   5.247   7.586   4.782 -0.2366  0.2490  0.0478
21541W        W25941  16.379   6.115   1.019  0.2300 -0.2844 -0.0219
21542W        W25942  25.948   4.797   8.613  0.2535 -0.2663 -0.0427
21543W        W25943   6.450   6.229   0.556 -0.3462 -0.0689 -0.1992
21544W        W25944  23.099   6.993   8.591  0.0516 -0.2302  0.1249
21545W        W25945  16.018   1.753  22.336  0.0978  0.1111  0.0242
21546W        W25946  23.227   6.968  22.563  0.3397 -0.2574  0.0866
21547W        W25947   9.761   3.732  20.156 -0.1091 -0.0773 -0.0457
21548W        W25948  16.305   2.067  24.443 -0.1269  0.0825 -0.1690
21549W        W25949  23.972   7.145   5.413  0.0875 -0.1138  0.0049
21550W        W25950  27.927   0.675  23.209  0.1687  0.0471  0.3460
21551W        W25951  12.244   4.593   7.921  0.1676 -0.2603 -0.0903
21552W        W25952  14.844   5.686  20.411  0.0096 -0.0813  0.0909
21553W        W25953   7.605   0.003  18.647  0.0410 -0.0478 -0.0431
21554W        W25954  18.025   2.321  11.601 -0.3226 -0.1241 -0.0075
21555W        W25955   9.457   3.247   2.874  0.0386 -0.0853 -0.0338
21556W        W25956  24.042   3.139  16.735 -0.1253 -0.3844  0.2304
21557W        W25957  23.705   6.475   9.221  0.1613 -0.1153 -0.2028
21558W        W25958  29.946   7.546   0.739 -0.1045  0.3935  0.0426
21559W        W25959  11.781   5.692   7.695  0.0374  0.0988 -0.0001
21560W        W25960   6.378   2.780  22.310  0.1762  0.1138 -0.3244
21561W        W25961  29.910   1.020   5.523  0.2119  0.0038  0.0879
21562W        W25962  20.695   0.543   4.528 -0.0440  0.1254  0.0773
21563W        W25963  30.004   1.648  24.753  0.0384 -0.1275 -0.1856
21564W        W25964   6.440   0.937  22.601 -0.0406  0.2613  0.1139
21565W        W25965   2.130   2.754  26.035 -0.0952 -0.0509  0.0529
21566W        W25966  28.066   5.668   1.315 -0.1055  0.2074 -0.2212
21567W        W25967   9.824   2.861  23.252  0.1085 -0.0478  0.0345
21568W        W25968  17.988   0.566  24.890 -0.2211 -0.0457  0.5189
21569W        W25969  18.613   7.088  21.385  0.2538 -0.1900  0.0423
21570W        W25970  10.759   6.893  17.564  0.2083  0.0799  0.0952
21571W        W25971  25.790   0.096   5.699  0.0315  0.1033 -0.2083
21572W        W25972  17.097   2.209  16.106  0.0753 -0.1421 -0.0246
21573W        W25973  29.069   0.433  16.966 -0.4173  0.0068  0.2239
21574W        W25974  20.655   2.009   8.886  0.1978 -0.1465  0.3295
21575W        W25975  19.278   6.705   3.001  0.0062  0.1298 -0.0541
21576W        W25976   3.903   3.681   6.257 -0.3320  0.3752  0.2704
21577W        W25977   5.888   0.115   0.291 -0.0500  0.2136 -0.1468
21578W        W25978   3.930   3.541  24.849  0.2904  0.2122  0.0989
21579W        W25979  24.255   3.663   9.751 -0.4674 -0.0691  0.1342
21580W        W25980  26.693   4.977  10.873  0.3371  0.0081  0.1411
21581W        W25981  12.663   1.606  15.766  0.0369 -0.1718 -0.1583
21582W        W25982  30.645   4.852   8.209  0.2133 -0.0067  0.2053
21583W        W25983  14.137   1.135  23.203  0.2860  0.2068  0.2054
21584W        W25984  25.606   6.544  10.673  0.0706 -0.0991  0.0855
21585W        W25985   5.988   1.821  25.226  0.1211  0.4031 -0.0174
21586W        W25986  15.096   6.647  17.686 -0.4757  0.1313 -0.1831
21587W        W25987  22.562   4.816  10.253 -0.2454 -0.1564  0.2156
21588W        W25988   9.798   3.157  24.603  0.2390  0.1209  0.5101
21589W        W25989  15.019   0.161   6.918 -0.4330  0.0108  0.0770
21590W        W25990   8.591   3.757   0.918  0.3148  0.2301  0.0280
21591W        W25991  13.150   2.451  10.762 -0.1742 -0.0570 -0.1571
21592W        W25992  27.918   6.667  21.255 -0.0663 -0.0071 -0.1141
21593W        W25993   5.050   2.235   5.126  0.1866 -0.1617  0.3835
21594W        W25994  24.801   4.403   4.911 -0.0606 -0.0394 -0.2732
21595W        W25995  24.421   6.617  24.761 -0.1641  0.0150 -0.0024
21596W        W25996   2.197   0.032   4.694 -0.2679  0.1207  0.0111
21597W        W25997  25.982   6.015   1.885  0.1710  0.2347 -0.1507
21598W        W25998  15.371   7.608   7.065  0.5294  0.0359  0.2041
21599W        W25999  18.647   4.922  20.156  0.3764 -0.1624  0.0641
21600W        W26000  18.631   1.744  23.926  0.0923  0.0328  0.0900
21601W        W26001   4.783   5.018  16.677  0.1703 -0.0083  0.1154
21602W        W26002   3.019   0.431  15.917  0.2005 -0.0793 -0.3036
21603W        W26003  17.422   4.934  18.586 -0.0525 -0.1317 -0.2114
21604W        W26004  21.057   2.995  26.066  0.0721  0.3314 -0.2567
21605W        W26005   8.342   3.390  19.118 -0.1498  0.3354 -0.1323
21606W        W26006  12.471   2.701  10.674 -0.1062  0.1511 -0.1230
21607W        W26007  15.813   1.626  17.589  0.3279  0.0465 -0.3511
21608W        W26008  23.927   0.970  19.980  0.0228 -0.1959  0.1051
21609W        W26009   7.840   7.712   7.848 -0.2463  0.0320 -0.0183
21610W        W26010  18.163   2.301  17.125 -0.0341 -0.0011  0.0228
21611W        W26011  12.309   6.276  17.035  0.1047 -0.1652 -0.1742
21612W        W26012   9.493   0.693   7.403 -0.2726 -0.0471  0.0049
21613W        W26013  11.072   5.913   3.663 -0.0753 -0.1526  0.2445
21614W        W26014  17.471   5.818  19.425 -0.1300 -0.1636  0.2331
21615W        W26015  27.133   2.150  22.283 -0.1201  0.1138 -0.1759
21616W        W26016  16.576   5.495  16.863  0.0968  0.2591 -0.2554
21617W        W26017  21.402   4.677  21.124  0.0653 -0.0401  0.1433
21618W        W26018  28.949   1.615   9.890 -0.0789  0.1822  0.2451
21619W        W26019  23.013   6.745  18.170  0.1732 -0.4455  0.2515
21620W        W26020  31.263   5.209   8.583  0.1811 -0.1864  0.0050
21621W        W26021  22.222   0.322  16.881 -0.1814  0.0207  0.0806
21622W        W26022  24.835   3.009  23.242 -0.0990 -0.4258 -0.1482
21623W        W26023   0.032   3.177  25.607 -0.2285 -0.3762  0.2802
21624W        W26024  14.516   5.769   1.490 -0.1253 -0.0854 -0.0384
21625W        W26025  29.631   3.399   9.725 -0.1670 -0.2811 -0.0096
21626W        W26026  18.158   4.865  23.404 -0.2061  0.1125 -0.1448
21627W        W26027   9.200   0.444  10.556  0.0482  0.0193 -0.0077
21628W        W26028  28.579   6.339   3.851 -0.0613  0.2777  0.3236
21629W        W26029   8.844   1.252  16.964  0.1043 -0.0042 -0.4765
21630W        W26030  12.820   1.468   2.226  0.1110  0.0486 -0.0865
21631W        W26031   1.724   5.987  23.148  0.1664 -0.0758  0.2079
21632W        W26032  24.035   2.097  25.604  0.0582  0.0534 -0.2151
21633W        W26033  10.640   2.948  25.370 -0.2125  0.0700 -0.1691
21634W        W26034  22.633   3.551   2.482  0.2071 -0.2927 -0.1619
21635W        W26035   1.656   4.680   7.716 -0.1713  0.2511 -0.0506
21636W        W26036  25.380   7.549   5.459 -0.1318  0.0966  0.0766
21637W        W26037  20.617   2.527  24.542  0.3410  0.0345  0.1298
21638W        W26038   3.010   6.079  19.724 -0.1040  0.1896 -0.0241
21639W        W26039  17.813   6.029   3.652 -0.3753  0.0322 -0.0846
21640W        W26040  22.885   1.694  23.089  0.0928 -0.1899 -0.1429
21641W        W26041  12.986   0.497  25.094  0.0294  0.2365  0.0460
21642W        W26042   7.397   7.691  15.349 -0.0255 -0.2053 -0.3229
21643W        W26043   5.003   4.939   5.007  0.2370 -0.0954 -0.0763
21644W        W26044  13.687   1.768  26.035 -0.0620 -0.3241  0.2137
21645W        W26045  27.076   0.324  25.163 -0.0040  0.0985 -0.1965
21646W        W26046  24.337   3.777   5.961  0.2321  0.1602 -0.0505
21647W        W26047  15.601   3.859   0.862 -0.0591 -0.0020 -0.0122
21648W        W26048   9.261   7.316  10.530 -0.1038 -0.0636 -0.2482
21649W        W26049  11.552   0.997  24.526 -0.1817 -0.1177 -0.0870
21650W        W26050   8.598   4.109   3.793 -0.1402  0.0013  0.1384
21651W        W26051   4.233   1.390  21.024  0.0294  0.3885  0.3160
21652W        W26052  15.387   0.651   0.498 -0.1536  0.0898 -0.1143
21653W        W26053  22.972   3.606   2.866 -0.1634 -0.3175 -0.0499
21654W        W26054  17.516   7.545  19.247 -0.2283 -0.1824  0.2357
21655W        W26055  14.719   1.110  17.313 -0.1316  0.1439  0.2493
21656W        W26056  27.412   0.355  10.497 -0.2356  0.0110 -0.0855
21657W        W26057  17.285   6.745  11.428  0.1586 -0.0164 -0.2405
21658W        W26058  20.687   3.104   0.350  0.0666  0.0046 -0.0322
21659W        W26059  27.295   0.076  21.624 -0.0220 -0.0571 -0.0399
21660W        W26060  20.329   0.956   6.233 -0.0685 -0.2403  0.0404
21661W        W26061  22.493   4.079  18.983  0.0273 -0.0277  0.1652
21662W        W26062   5.231   5.467   7.820 -0.0397 -0.2674 -0.1223
21663W        W26063   3.094   3.908  20.918  0.0990  0.1983 -0.0520
21664W        W26064  30.883   5.143  20.423 -0.2539  0.1981 -0.0861
21665W        W26065  15.857   2.027  25.767 -0.1194  0.2549  0.1010
21666W        W26066  22.661   3.983  22.826  0.1855  0.0632 -0.2810
21667W        W26067  11.929   3.610  17.268  0.1595  0.1095 -0.0263
21668W        W26068  30.635   0.588   3.580 -0.5364 -0.1767  0.0406
21669W        W26069  14.471   2.047  15.103  0.0552  0.1948  0.0999
21670W        W26070  23.140   4.119  24.862 -0.0981 -0.0100 -0.0848
21671W        W26071  27.357   6.121  19.947 -0.2142 -0.1400 -0.1637
21672W        W26072   8.413   6.978  18.111 -0.1914 -0.1299 -0.2546
21673W        W26073  12.217   5.680   1.795 -0.0073  0.3095 -0.1108
21674W        W26074  28.236   3.437  23.837 -0.0653 -0.1090 -0.1076
21675W        W26075   0.004   2.683  18.497 -0.1324 -0.0151 -0.2009
21676W        W26076   1.474   7.185  21.555 -0.1301 -0.4280  0.1127
21677W        W26077  21.953   3.776  18.292 -0.1023  0.1689  0.1399
21678W        W26078  14.241   7.173  17.326  0.4240  0.0573  0.0036
21679W        W26079  19.355   2.025   4.930 -0.2215  0.0317 -0.1587
21680W        W26080  11.124   7.604   4.795  0.2240  0.1701  0.1556
21681W        W26081  25.086   2.993  24.121  0.1563  0.1518 -0.2050
21682W        W26082  28.636   0.057  25.168  0.0549 -0.3236 -0.0002
21683W        W26083  16.287   6.371  10.382  0.3301  0.0091  0.1342
21684W        W26084  21.965   4.845  10.212 -0.0873  0.1169  0.0623
21685W        W26085  15.953   6.029  11.577  0.1298 -0.0469 -0.0707
21686W        W26086  20.835   2.715  20.168  0.1765 -0.0737  0.0224
21687W        W26087   0.307   5.576   3.874 -0.0404 -0.0011  0.0678
21688W        W26088  23.721   3.365  22.120  0.2001  0.0811  0.1420
21689W        W26089  10.763   7.376  22.706 -0.2114 -0.0734 -0.1598
21690W        W26090   7.468   6.083  19.501 -0.1680  0.2598 -0.2194
21691W        W26091  19.602   7.094   8.943  0.0385  0.1882  0.0050
21692W        W26092  15.026   3.978  17.505 -0.0793 -0.2926 -0.1197
21693W        W26093  29.031   4.780  21.405  0.1849  0.0158 -0.0036
21694W        W26094  27.417   5.875  24.744 -0.0310  0.3401 -0.0371
21695W        W26095  23.427   6.387  20.884  0.1694  0.1058  0.2889
21696W        W26096  15.799   7.045  16.009  0.0600 -0.0429  0.1078
21697W        W26097   7.091   4.655  20.122 -0.0347  0.1384 -0.3516
21698W        W26098  13.780   7.191   8.423  0.1346 -0.1212  0.1491
21699W        W26099  25.829   5.479  17.527  0.0939  0.1356 -0.2415
21700W        W26100  19.297   7.705  22.586 -0.1815 -0.0070  0.1234
21701W        W26101  27.465   7.287   8.763  0.0026 -0.1729 -0.1388
21702W        W26102  15.161   2.416  23.531 -0.1445 -0.0089  0.0170
21703W        W26103  28.358   1.287   7.695  0.0863  0.2445 -0.0711
21704W        W26104  10.078   1.419   9.751  0.3501 -0.2397 -0.0599
21705W        W26105   3.200   5.053  25.264 -0.1012 -0.2771 -0.0999
21706W        W26106   9.942   1.746  10.250  0.1588  0.3032 -0.2133
21707W        W26107  30.003   1.569  16.066 -0.0591 -0.1763  0.0644
21708W        W26108  14.554   1.136  18.857 -0.0104 -0.1611 -0.1724
21709W        W26109  26.655   2.977  24.589 -0.2491  0.0830 -0.1072
21710W        W26110  24.521   2.280   4.560 -0.1903  0.0456 -0.1372
21711W        W26111   1.009   0.074  23.901  0.0524  0.1107 -0.0445
21712W        W26112  28.494   3.398  21.170  0.0757  0.1121 -0.1450
21713W        W26113   0.784   3.855  10.195 -0.1656  0.2732  0.2554
21714W        W26114  15.240   5.878  15.516  0.1993  0.3536 -0.0360
21715W        W26115   7.941   0.147  10.586 -0.3317  0.1610  0.2722
21716W        W26116  13.372   5.599  23.336  0.0766  0.0806  0.2007
21717W        W26117   7.355   7.793   4.183  0.2174 -0.0136  0.0494
21718W        W26118  30.980   7.624  15.168  0.3758  0.2745 -0.0700
21719W        W26119   9.586   0.942  23.263 -0.0676  0.1936  0.0737
21720W        W26120   9.233   2.315  24.629  0.0488  0.0061  0.0491
21721W        W26121   8.481   0.372  22.371 -0.0230 -0.1489 -0.1327
21722W        W26122  18.148   4.791   7.004 -0.1265 -0.0112 -0.3093
21723W        W26123  11.913   2.721   0.873  0.0610  0.2442  0.1288
21724W        W26124  14.452   7.140  10.622  0.3329  0.1889  0.2870
21725W        W26125  15.370   0.643  25.150 -0.0040 -0.3438 -0.0885
21726W        W26126  22.908   1.048  16.600  0.2033  0.1138  0.1123
21727W        W26127  31.062   0.941  25.403  0.0324 -0.0510 -0.0934
21728W        W26128  24.169   0.286  14.937 -0.3232 -0.2670  0.2114
21729W        W26129  28.798   3.563   7.511 -0.2273 -0.1022 -0.0294
21730W        W26130  12.046   4.922   9.197  0.1021 -0.1163 -0.1300
21731W        W26131  22.241   7.147   6.719 -0.2288  0.1418  0.2167
21732W        W26132  21.299   4.467  24.125 -0.0219  0.1400 -0.2292
21733W        W26133  16.481   3.887  18.195 -0.2471  0.1749  0.1117
21734W        W26134   7.315   7.588  22.039 -0.1238  0.1646  0.0885
21735W        W26135  10.674   0.593   5.243  0.0806  0.0911 -0.0855
21736W        W26136  14.798   6.190  20.771  0.1435 -0.0903 -0.1064
21737W        W26137  12.492   0.002  25.347 -0.3124 -0.3290 -0.2768
21738W        W26138  11.152   5.689  24.425 -0.0681  0.0950  0.1452
21739W        W26139  27.769   7.738  10.481  0.0977  0.3160 -0.3900
21740W        W26140   3.593   2.349  10.605 -0.1489  0.0120 -0.2864
21741W        W26141   3.290   3.726  22.783  0.2093 -0.1975 -0.1835
21742W        W26142  25.038   7.794  22.753 -0.2544 -0.1239 -0.0062
21743W        W26143  10.012   1.084  18.610  0.5939  0.1478 -0.2076
21744W        W26144   8.854   5.231  10.411  0.2222 -0.1088  0.1019
21745W        W26145   3.006   7.630  22.952 -0.0907 -0.4232  0.0338
21746W        W26146  12.197   7.058   2.989 -0.0153  0.0277 -0.0637
21747W        W26147  13.054   1.471  21.337 -0.0237 -0.0963  0.0425
21748W        W26148  26.028   0.592   1.136  0.1498 -0.2651 -0.0526
21749W        W26149   6.059   4.975   3.179  0.4018 -0.2329 -0.2329
21750W        W26150  28.299   6.654  14.937 -0.0642 -0.0131 -0.1379
21751W        W26151  30.046   3.342  15.830 -0.3522 -0.1587 -0.0437
21752W        W26152  21.285   2.930  22.373 -0.0821 -0.1643  0.1176
21753W        W26153  28.140   5.995  14.546 -0.1405  0.0820  0.0670
21754W        W26154  11.521   6.346  24.834  0.3630 -0.0499  0.1062
21755W        W26155  10.091   6.153   5.508  0.0990 -0.2171  0.2179
21756W        W26156   0.032   2.115  10.614  0.2498  0.1001  0.1334
21757W        W26157  27.599   0.950  22.013  0.1946  0.0984 -0.0595
21758W        W26158  20.406   5.847  20.137 -0.0426 -0.0624  0.2118
21759W        W26159   8.969   2.779  15.597 -0.0305 -0.0565 -0.0082
21760W        W26160  14.241   2.279   0.507 -0.0479 -0.0457 -0.1121
21761W        W26161  24.865   4.691  11.370 -0.3219 -0.1393  0.1999
21762W        W26162  18.029   5.775  22.034 -0.2158 -0.0258 -0.2003
21763W        W26163   5.764   1.966   8.857 -0.1116 -0.1508  0.3767
21764W        W26164  16.735   0.751  25.843 -0.0828 -0.2284 -0.0710
21765W        W26165  26.824   3.572   7.728 -0.1303  0.0014 -0.0782
21766W        W26166  30.741   3.877   2.382  0.0099 -0.2500  0.2073
21767W        W26167   2.640   0.092  21.729 -0.2195  0.1324 -0.1696
21768W        W26168  15.564   3.014  20.756 -0.1944  0.1317 -0.1863
21769W        W26169   4.957   0.603  19.415  0.0604 -0.0611 -0.0697
21770W        W26170  11.622   4.776   1.669 -0.1935  0.0965  0.1893
21771W        W26171  21.110   4.806  21.984 -0.1703  0.0471 -0.0547
21772W        W26172  16.465   4.219   4.490  0.1448 -0.2993  0.0472
21773W        W26173  20.094   1.060   1.630 -0.2530  0.3447  0.1158
21774W        W26174  24.272   1.832  24.735 -0.0241  0.1038  0.2122
21775W        W26175  15.137   4.352   3.501 -0.1672 -0.1015 -0.2163
21776W        W26176  21.265   3.925  25.956  0.2848 -0.0021  0.0059
21777W        W26177  11.315   5.522   7.445 -0.0031 -0.1320  0.6089
21778W        W26178   9.808   5.362  16.018 -0.0335  0.4424 -0.1466
21779W        W26179  20.819   2.959   8.906 -0.2106 -0.0022  0.0257
21780W        W26180   7.429   5.516   6.099  0.1115 -0.0336  0.0573
21781W        W26181  25.806   2.585   7.928  0.0952 -0.1877  0.2257
21782W        W26182  14.465   5.126  23.824  0.0299  0.0718 -0.1610
21783W        W26183  23.067   0.300   2.649 -0.2313  0.0793 -0.0053
21784W        W26184  12.713   1.664  16.689 -0.1562  0.2282 -0.1773
21785W        W26185  11.920   7.290  22.014 -0.0043  0.0008 -0.2176
21786W        W26186  18.949   1.602  17.064 -0.0006  0.1800  0.0338
21787W        W26187  17.708   4.410  15.763  0.0138  0.3242  0.2412
21788W        W26188  17.548   3.877  16.666  0.4518 -0.0326 -0.1129
21789W        W26189  19.314   6.200   3.720  0.2645 -0.1426 -0.2638
21790W        W26190  28.767   7.624  17.907  0.2360  0.0663  0.0088
21791W        W26191   2.300   2.719  19.438  0.1878  0.1955  0.0239
21792W        W26192  15.651   1.833   9.874  0.0001 -0.1205  0.0179
21793W        W26193  26.986   5.809   5.680  0.1184 -0.2343  0.1444
21794W        W26194  29.769   6.830  23.740 -0.1558 -0.0334  0.0605
21795W        W26195  18.086   4.201  16.213  0.1861 -0.2545 -0.0464
21796W        W26196  25.761   1.210   0.943 -0.1133  0.2252 -0.3845
21797W        W26197  25.311   4.167   8.362  0.0918  0.3092 -0.1200
21798W        W26198   5.940   6.281   3.935 -0.1958 -0.1206 -0.0557
21799W        W26199   6.674   1.588   3.286  0.0151 -0.0460  0.3300
21800W        W26200   3.610   7.659  10.090 -0.1131 -0.0136 -0.0229
21801W        W26201  29.327   6.767  16.765 -0.0020 -0.1018 -0.0195
21802W        W26202  26.763   7.465  20.272  0.1074  0.1671 -0.2490
21803W        W26203  13.758   6.641  10.012 -0.2676  0.1559 -0.1982
21804W        W26204  29.523   3.452  15.959 -0.1897 -0.1944 -0.0705
21805W        W26205  26.544   1.452  24.856  0.1346 -0.2103  0.1907
21806W        W26206  19.566   6.207   8.780 -0.0428  0.0606 -0.0931
21807W        W26207   4.287   3.113   0.175  0.0756  0.0832 -0.0128
21808W        W26208  11.549   0.488  22.061  0.3003 -0.0768 -0.0411
21809W        W26209  13.627   6.230  20.381  0.4317  0.0496 -0.0449
21810W        W26210   7.234   4.702  25.435  0.1527  0.0718  0.0869
21811W        W26211   5.696   2.459  23.621  0.0564  0.0691  0.0350
21812W        W26212   5.634   4.429  24.769  0.0921  0.2264 -0.2855
21813W        W26213   4.906   6.247  21.424  0.1425  0.1023 -0.1586
21814W        W26214  21.712   4.224  21.539 -0.0514  0.2527 -0.0006
21815W        W26215   1.643   4.127   4.860  0.0903  0.1434  0.1348
21816W        W26216  17.371   1.765  16.085  0.0112  0.0275  0.1256
21817W        W26217  30.224   3.814  16.019 -0.0619  0.3673  0.1893
21818W        W26218   5.444   5.051  23.546  0.2837  0.0210 -0.0986
21819W        W26219   9.625   1.381   4.838 -0.0737  0.1943  0.1968
21820W        W26220   3.389   6.616  21.686  0.1620  0.0841 -0.0237
21821W        W26221  28.218   1.917  25.855 -0.0665  0.1207  0.1264
21822W        W26222  22.162   3.289  25.123  0.0519 -0.0954 -0.1593
21823W        W26223   0.899   6.392  23.885  0.2206 -0.0258  0.1322
21824W        W26224  18.739   2.877  18.018 -0.1442  0.0838  0.0377
21825W        W26225  13.607   2.784  22.111 -0.0680  0.0094  0.2032
21826W        W26226  19.041   3.788   7.294 -0.0215  0.3308  0.1360
21827W        W26227  21.646   1.500   6.996 -0.0940  0.2288  0.0230
21828W        W26228  22.831   5.386  25.112  0.1329 -0.1874  0.2252
21829W        W26229   2.461   5.798  25.878 -0.0066 -0.2826  0.2077
21830W        W26230   3.278   6.796   5.588 -0.2543 -0.1918 -0.0298
21831W        W26231  10.283   3.049  24.947  0.0961 -0.1305  0.3048
21832W        W26232  14.330   2.431  15.431 -0.1991  0.0291  0.2051
21833W        W26233  29.523   0.791  10.946 -0.2784  0.2665  0.2066
21834W        W26234  14.817   5.148  20.971  0.3059 -0.0313 -0.0526
21835W        W26235   4.671   7.181  25.112  0.0848  0.0440 -0.3052
21836W        W26236  29.715   4.054  15.253 -0.1830 -0.1707  0.0012
21837W        W26237   6.006   0.716   7.020  0.0446 -0.0304 -0.0228
21838W        W26238  28.846   3.126  14.918 -0.1357  0.2428  0.3591
21839W        W26239   1.614   0.699  19.908  0.3946  0.0684 -0.1070
21840W        W26240   9.476   1.492  19.870 -0.1141  0.0419 -0.1173
21841W        W26241  17.476   0.047  18.389  0.0549 -0.1564 -0.0358
21842W        W26242  18.935   1.395  10.103 -0.3032 -0.0082  0.0440
21843W        W26243  17.726   5.850   4.870 -0.2949  0.0341 -0.1700
21844W        W26244  24.924   4.555  20.577 -0.0238  0.0062  0.0980
21845W        W26245  22.729   1.842   3.781  0.2173  0.1153 -0.4070
21846W        W26246   0.759   5.397  15.616 -0.4289 -0.3054  0.1259
21847W        W26247   2.477   4.015   0.272  0.2563 -0.1673  0.2558
21848W        W26248  22.217   6.887  25.260  0.5832  0.1706 -0.0581
21849W        W26249  24.941   0.790  20.936 -0.0850  0.0300  0.0153
21850W        W26250   9.352   5.140  19.300 -0.1559 -0.3686  0.2898
21851W        W26251  15.171   1.483  24.570 -0.2663  0.0753  0.0194
21852W        W26252   9.691   0.678  25.332  0.1702 -0.0092 -0.0867
21853W        W26253  16.856   5.455  22.783  0.0300  0.2622  0.0176
21854W        W26254  30.836   6.216  25.229 -0.0578  0.2174  0.2051
21855W        W26255  25.303   5.919   2.190  0.3093 -0.1736 -0.0468
21856W        W26256  26.594   3.198  24.002  0.0421 -0.0195  0.0093
21857W        W26257  14.256   1.914   1.695 -0.1074 -0.3068  0.1233
21858W        W26258   1.004   3.330  14.776 -0.0480  0.2900 -0.3412
21859W        W26259  27.957   1.926  16.014 -0.1229 -0.1372  0.0510
21860W        W26260   9.465   4.524  17.973  0.1113 -0.1474 -0.0517
21861W        W26261  15.154   4.289  20.909 -0.0087  0.0303  0.0768
21862W        W26262   7.596   4.998   5.954 -0.0609  0.2834  0.4424
21863W        W26263  24.509   7.050  20.838 -0.2173  0.0922 -0.1792
21864W        W26264   9.466   4.024   9.951  0.1839  0.0931 -0.0906
21865W        W26265  24.208   6.358  17.265  0.1392  0.0528 -0.3322
21866W        W26266   4.291   0.827   7.298 -0.3213  0.0414 -0.1584
21867W        W26267   5.770   7.337  24.749 -0.2260 -0.1969 -0.0927
21868W        W26268  23.251   3.195  10.597  0.0822  0.0409  0.2063
21869W        W26269   5.799   6.379   2.434 -0.1907  0.1643 -0.2406
21870W        W26270  16.314   6.900   0.488  0.3177  0.0101  0.0533
21871W        W26271  26.947   6.309   2.010 -0.2612  0.1439  0.3119
21872W        W26272  22.710   3.237   2.032  0.0253 -0.0198  0.0529
21873W        W26273  24.158   7.656   9.773  0.1602 -0.2048 -0.1259
21874W        W26274   3.313   5.775   2.917 -0.3633 -0.1220 -0.1011
21875W        W26275  27.935   3.369  20.344 -0.1154  0.1492  0.0627
21876W        W26276   2.719   6.477   2.890  0.0116 -0.1501 -0.0803
21877W        W26277  17.359   4.532  23.037 -0.1875  0.0633 -0.2161
21878W        W26278   4.924   0.204   4.758  0.0414  0.3746 -0.0239
21879W        W26279  25.000   2.548  16.077 -0.1909 -0.2594 -0.0777
21880W        W26280   1.928   3.832  25.253  0.1398  0.1319  0.2006
21881W        W26281  17.271   5.753  15.668  0.2266  0.0060  0.0610
21882W        W26282  14.825   5.351  10.664 -0.1032  0.2202  0.0195
21883W        W26283  13.451   5.198  25.750  0.0187  0.0933  0.1325
21884W        W26284  23.489   6.252  22.397 -0.1315  0.0399  0.0937
21885W        W26285  19.785   1.252   5.932  0.0866 -0.1072 -0.1100
21886W        W26286   0.587   1.351  17.631  0.3539  0.0220 -0.2299
21887W        W26287  22.830   6.095   7.827 -0.1302 -0.0932 -0.3877
21888W        W26288  16.703   6.109  17.537  0.0527 -0.1927 -0.0916
21889W        W26289  29.845   4.805   2.410 -0.1103 -0.0987  0.1495
21890W        W26290  19.480   6.745  18.693  0.3030 -0.0786 -0.1575
21891W        W26291  15.200   6.702   0.373 -0.1155 -0.0085  0.1603
21892W        W26292  17.308   5.631   1.978  0.0395 -0.2647  0.0253
21893W        W26293  23.074   0.814   0.532 -0.0358  0.1874 -0.0283
21894W        W26294  20.253   6.115   5.745 -0.2166  0.0501  0.0045
21895W        W26295  15.245   2.058  22.074 -0.0126 -0.0544  0.0942
21896W        W26296   2.821   2.918  19.459  0.1445  0.1528  0.2687
21897W        W26297   4.966   7.341   8.998 -0.0901  0.0816 -0.1765
21898W        W26298   0.611   1.498   3.894 -0.0313 -0.1961  0.2317
21899W        W26299   5.247   2.688  23.365 -0.0534 -0.1574 -0.1763
21900W        W26300  10.300   7.129  18.791 -0.0653  0.0109 -0.1115
21901W        W26301  28.342   4.262   9.019 -0.1357 -0.1590 -0.4210
21902W        W26302  25.040   5.213   5.302 -0.1009 -0.0725  0.1306
21903W        W26303  30.690   1.019   9.194 -0.2621 -0.2755 -0.0555
21904W        W26304  24.501   0.904   7.041  0.1444 -0.1939  0.0447
21905W        W26305   1.254   3.536  24.782 -0.3852  0.2209  0.1251
21906W        W26306  16.048   2.653   2.667 -0.2333  0.0654 -0.1481
21907W        W26307  16.549   3.047   3.154  0.2169  0.0973  0.2626
21908W        W26308  23.809   6.303   3.771 -0.0999  0.4293 -0.0561
21909W        W26309  16.169   5.079   3.579  0.1762 -0.1925  0.0321
21910W        W26310  10.182   1.132  15.287  0.0992  0.0842  0.1510
21911W        W26311  28.768   1.827  25.754  0.0147  0.0140 -0.0446
21912W        W26312   8.671   3.169   1.770  0.2564 -0.0946 -0.1029
21913W        W26313  21.343   5.884   3.026 -0.0398 -0.2335 -0.0940
21914W        W26314  25.210   7.059   2.517 -0.0155 -0.1491 -0.0397
21915W        W26315  10.465   7.571  19.552 -0.2235  0.0193  0.3690
21916W        W26316   5.194   3.840   0.711 -0.0635 -0.0381  0.0695
21917W        W26317  29.296   2.595   2.520  0.4137 -0.0752 -0.1247
21918W        W26318   4.714   2.373   3.346 -0.0793  0.0402 -0.0580
21919W        W26319   3.276   2.492  16.838  0.0170  0.3341 -0.3749
21920W        W26320   3.689   5.601  18.658 -0.1077  0.1043 -0.0463
21921W        W26321  23.441   7.419  25.294  0.0257  0.1725  0.0589
21922W        W26322  12.946   0.607   4.762  0.2564  0.2055  0.1824
21923W        W26323  18.120   0.725   5.210 -0.2827 -0.0893  0.3175
21924W        W26324  11.385   0.705   6.457  0.1718 -0.0025  0.1826
21925W        W26325  16.628   4.984  25.052 -0.0316 -0.0382 -0.1716
21926W        W26326  22.756   4.231  17.668 -0.0275 -0.2140 -0.0564
21927W        W26327   6.579   7.858  20.651 -0.1470 -0.0378 -0.0446
21928W        W26328   8.858   0.821   8.732 -0.0116  0.3772 -0.1344
21929W        W26329  26.887   6.207  19.171 -0.1187 -0.1837 -0.0750
21930W        W26330  26.208   1.485  16.825  0.1836 -0.0132  0.1294
21931W        W26331  24.427   5.040  15.288  0.0125 -0.0860 -0.3512
21932W        W26332  27.583   3.276  10.749 -0.0074  0.1607 -0.0056
21933W        W26333   9.282   1.351  23.026 -0.1141  0.1223  0.1359
21934W        W26334  25.486   3.483   5.540 -0.3010 -0.2731 -0.2585
21935W        W26335   4.593   7.306  17.403  0.4511  0.1548  0.0299
21936W        W26336  22.118   2.900   2.373  0.0778 -0.4087  0.0749
21937W        W26337  18.893   0.761  20.312 -0.1577  0.0413 -0.2147
21938W        W26338  24.025   7.282   4.923  0.1617 -0.0510  0.2194
21939W        W26339   9.516   1.090   0.251 -0.0683 -0.2943 -0.0719
21940W        W26340  22.057   7.615  18.402  0.3049  0.0502  0.0315
21941W        W26341   0.795   3.352  23.093  0.0883 -0.0968  0.0474
21942W        W26342   0.214   1.398  15.068  0.3422  0.2768 -0.4474
21943W        W26343  29.443   0.955  16.373 -0.3995 -0.0518  0.1087
21944W        W26344   2.110   7.129  15.541 -0.4088 -0.1659 -0.1958
21945W        W26345   2.522   7.707   9.226 -0.0052  0.1550 -0.0188
21946W        W26346  10.272   3.268   8.162 -0.1585  0.1154  0.1005
21947W        W26347  14.602   3.355  21.239  0.2967  0.4829  0.1879
21948W        W26348   7.553   6.371  20.513 -0.0704  0.3100 -0.0637
21949W        W26349  29.024   6.400   2.147 -0.1947  0.1601 -0.3611
21950W        W26350  13.018   7.692  15.277  0.2971  0.4415  0.0115
21951W        W26351  16.100   0.029  16.268 -0.1180 -0.1261 -0.0616
21952W        W26352   5.643   7.546  15.883 -0.1630 -0.0836  0.0527
21953W        W26353  21.375   0.543  18.936  0.1680 -0.1449 -0.0221
21954W        W26354  30.975   1.787   7.987  0.2085  0.1370 -0.0186
21955W        W26355  21.524   1.791   9.066  0.0229 -0.0198 -0.1193
21956W        W26356   2.535   3.584   9.988  0.0287  0.0044  0.4009
21957W        W26357  15.104   5.377  21.882 -0.0522  0.0006  0.1146
21958W        W26358  23.515   3.034  18.101  0.0349  0.1899 -0.3179
21959W        W26359  30.757   4.771   1.013 -0.1382  0.2665 -0.1626
21960W        W26360  21.854   6.225  16.947 -0.1262  0.3032  0.2754
21961W        W26361  30.996   2.761  15.791 -0.0641 -0.4768  0.1260
21962W        W26362   1.111   0.062   8.997  0.0558 -0.0397  0.1470
21963W        W26363  16.872   7.207   6.464 -0.0378 -0.0640 -0.3811
21964W        W26364  10.785   6.298  20.238 -0.0047 -0.0947  0.0648
21965W        W26365   8.513   1.419  16.559  0.1702 -0.1316 -0.0952
21966W        W26366  27.356   0.423  16.895  0.2126  0.0839  0.2268
21967W        W26367   4.733   0.907   1.001 -0.3356 -0.5163 -0.1170
21968W        W26368   6.261   4.656   0.884  0.0463 -0.1016 -0.1348
21969W        W26369  28.955   3.897  22.836  0.2074  0.0280 -0.0657
21970W        W26370  19.348   7.007  15.578 -0.2580 -0.0325  0.0543
21971W        W26371  15.260   1.563  21.296 -0.1146  0.2797  0.0752
21972W        W26372   7.579   3.653   8.370  0.0720  0.1255  0.0156
21973W        W26373  22.978   6.173  22.385 -0.1979  0.0125  0.0299
21974W        W26374  28.256   6.711   8.709  0.0709  0.1336  0.2396
21975W        W26375   3.235   4.860   8.548  0.2127  0.0475 -0.0728
21976W        W26376   1.619   6.487   1.699  0.0173 -0.3607 -0.2058
21977W        W26377  15.250   4.504  23.640 -0.0783 -0.0301  0.1924
21978W        W26378  26.288   3.923   6.290  0.4764 -0.2308 -0.0011
21979W        W26379  17.729   3.558   1.633 -0.0673  0.0729  0.0318
21980W        W26380  21.213   3.644  17.621  0.0257 -0.1424 -0.0821
21981W        W26381   9.404   5.496  15.736 -0.2297  0.2527  0.1884
21982W        W26382   4.286   1.184   3.175 -0.0649  0.3473  0.0774
21983W        W26383  17.665   4.547  25.909  0.1344 -0.3215 -0.0030
21984W        W26384   8.696   7.231   1.184  0.1894  0.0784 -0.2975
21985W        W26385   4.854   2.987  25.574  0.2064  0.3811 -0.3276
21986W        W26386   6.759   7.289   2.630 -0.0490 -0.2151  0.0208
21987W        W26387   2.130   1.258   7.389 -0.3512 -0.0516  0.0003
21988W        W26388  14.960   5.501  22.557  0.0027 -0.2078 -0.1209
21989W        W26389  21.081   2.313  24.396  0.2838 -0.0692  0.3413
21990W        W26390   6.904   0.961   7.258 -0.0842  0.0470  0.1961
21991W        W26391   2.472   3.703  15.167  0.0014  0.4225 -0.0277
21992W        W26392  22.013   1.336   2.163 -0.4075  0.0342  0.0720
21993W        W26393   8.186   1.008  20.583 -0.0694 -0.2487  0.1320
21994W        W26394   1.738   7.430  24.851 -0.1587  0.1288 -0.3478
21995W        W26395  10.675   0.066   0.733  0.2460 -0.3635  0.0650
21996W        W26396   4.223   5.082  14.433 -0.1819  0.1950 -0.0591
21997W        W26397  25.313   2.924   2.188 -0.0793  0.3828  0.2404
21998W        W26398   4.806   3.963  16.538  0.0517 -0.3376 -0.0920
21999W        W26399  17.921   7.532  18.343 -0.1830 -0.0216  0.1580
22000W        W26400   3.437   1.740   7.789  0.0325 -0.1819 -0.1104
22001W        W26401   3.120   5.000  16.412  0.1997 -0.0244  0.2817
22002W        W26402  19.863   1.721  21.412 -0.0342  0.0757 -0.1618
22003W        W26403  16.465   1.075   8.878  0.1004  0.0220  0.0280
22004W        W26404  27.809   3.471  14.967  0.1340  0.0045  0.1318
22005W        W26405  26.403   5.248  19.591  0.1548 -0.2288  0.0068
22006W        W26406  28.157   7.351   9.201  0.0339 -0.2277  0.2958
22007W        W26407  10.469   0.588   7.679  0.0631 -0.0701  0.5768
22008W        W26408  15.850   1.642   4.151 -0.2099  0.0599 -0.2752
22009W        W26409  27.475   0.612   6.348  0.1210  0.0939  0.1779
22010W        W26410   6.091   7.561   7.949 -0.1072 -0.0294  0.1796
22011W        W26411   1.006   5.187   1.481  0.0766  0.0338  0.2676
22012W        W26412  29.191   4.894   2.852  0.2415  0.0506 -0.4056
22013W        W26413  29.784   6.022   9.147 -0.1898  0.0757 -0.1497
22014W        W26414   5.981   0.958   5.843 -0.0225  0.0716 -0.0348
22015W        W26415  22.566   6.663  22.348 -0.0481  0.3018 -0.0556
22016W        W26416  28.281   7.039   1.227  0.1495  0.0302 -0.1753
22017W        W26417  24.112   1.861  20.224  0.1591  0.0175 -0.0106
22018W        W26418   1.491   6.174   3.205  0.4596  0.1920 -0.0950
22019W        W26419  10.578   0.874  19.891  0.3630 -0.0631  0.1134
22020W        W26420   3.192   7.343   9.410 -0.1816  0.2116  0.2813
22021W        W26421  25.063   2.191   1.575  0.0516  0.5319  0.0862
22022W        W26422  18.363   2.873   6.569  0.0910  0.2422  0.3000
22023W        W26423  13.984   0.140   5.418  0.1265 -0.1938  0.2482
22024W        W26424   8.472   0.097   2.402  0.2867  0.1093  0.0351
22025W        W26425   7.251   0.040   8.954  0.0825  0.0106  0.1766
22026W        W26426  30.332   0.369   5.070  0.1294 -0.2832 -0.0008
22027W        W26427   0.696   3.253   6.033 -0.0012 -0.0006  0.2363
22028W        W26428  18.151   5.561  25.710 -0.1526 -0.1696 -0.5727
22029W        W26429  17.317   5.749   8.461 -0.0400  0.4414 -0.1796
22030W        W26430  28.682   1.971   7.201  0.1660 -0.0477  0.0365
22031W        W26431  17.650   0.560   9.378 -0.0293  0.1654  0.3110
22032W        W26432  25.671   3.431   7.749 -0.1042 -0.0164 -0.1799
22033W        W26433  21.667   6.571  10.386 -0.0134  0.1983 -0.0541
22034W        W26434  25.088   2.460  19.832  0.3515 -0.1090  0.2029
22035W        W26435  25.426   5.399   3.326 -0.1976 -0.1478 -0.0815
22036W        W26436  27.715   5.280  18.394 -0.0688 -0.0856  0.1161
22037W        W26437  11.488   6.038  16.136  0.0750 -0.1959 -0.0343
22038W        W26438   3.500   3.278   1.779 -0.3373  0.2856  0.1747
22039W        W26439   4.304   3.954  19.077  0.1828  0.1798 -0.1124
22040W        W26440  21.546   1.341   9.476  0.0265  0.0105 -0.0076
22041W        W26441  15.788   1.742   8.545 -0.0135 -0.0177  0.0818
22042W        W26442   4.689   6.358   9.531  0.1209 -0.2061  0.2607
22043W        W26443  16.409   1.607   2.757  0.0810 -0.0205 -0.0273
22044W        W26444  15.109   6.129  20.415 -0.2162  0.2691  0.3309
22045W        W26445  29.263   1.653   0.245  0.0303  0.2688  0.0829
22046W        W26446  15.893   3.847  25.689  0.1204 -0.2758  0.0586
22047W        W26447  17.385   6.449  16.996 -0.2582  0.0016  0.1966
22048W        W26448  11.657   3.842  22.582  0.2398 -0.1883  0.3189
22049W        W26449  21.998   5.839   5.662 -0.3271 -0.2501  0.1689
22050W        W26450  10.927   7.712  19.056  0.1453 -0.0107 -0.0229
22051W        W26451  22.382   4.512  25.571  0.1263  0.1944  0.0763
22052W        W26452   0.798   4.789   5.099  0.0094 -0.1490 -0.0672
22053W        W26453   9.313   4.209  15.273 -0.0072  0.0173  0.2023
22054W        W26454   8.170   3.519  21.632  0.0470 -0.1441  0.2469
22055W        W26455  11.015   7.589   5.634  0.0140  0.0645 -0.0773
22056W        W26456  29.007   5.163  16.134  0.0928 -0.1300 -0.0901
22057W        W26457   1.990   0.750   7.448  0.0324 -0.1314  0.1757
22058W        W26458  23.821   7.249   8.106  0.0858 -0.1217  0.5537
22059W        W26459   5.211   7.467  17.328 -0.0530  0.0188  0.1249
22060W        W26460  21.236   5.084   1.490 -0.3190 -0.0437 -0.3430
22061W        W26461   2.682   2.271   8.154 -0.2798  0.2114 -0.1843
22062W        W26462  17.375   5.110   6.924 -0.0492 -0.4265 -0.0456
22063W        W26463  27.729   7.001   6.427  0.0265 -0.1032 -0.0749
22064W        W26464  22.784   4.229  16.943 -0.0672 -0.1433  0.0440
22065W        W26465  13.047   0.701   3.365 -0.0724  0.2658 -0.1443
22066W        W26466  10.799   6.740   3.426  0.0476 -0.1018  0.3804
22067W        W26467   2.851   2.279   0.375  0.0626  0.3500  0.2628
22068W        W26468  21.945   5.158   5.920  0.0968  0.3277  0.0994
22069W        W26469   5.033   6.321   3.028 -0.2282  0.3485  0.3408
22070W        W26470   8.606   2.671   9.731 -0.3771 -0.1010  0.5442
22071W        W26471  24.734   1.923   4.853  0.1202  0.4148 -0.0373
22072W        W26472  26.992   6.315  19.607 -0.1761 -0.0202 -0.3571
22073W        W26473  26.776   2.845  16.060  0.0766 -0.1769 -0.1634
22074W        W26474  14.248   4.306   9.785  0.0617  0.0085  0.1949
22075W        W26475  10.453   2.858   8.482 -0.0391 -0.0997  0.0712
22076W        W26476   7.423   3.377   6.333 -0.1205  0.0085 -0.2097
22077W        W26477  30.011   0.799   6.229  0.2051 -0.2652 -0.2664
22078W        W26478   8.907   4.038  25.378  0.0139  0.1056  0.2432
22079W        W26479  16.794   5.690   9.406  0.0461  0.0506  0.0876
22080W        W26480  18.207   6.393   6.039 -0.1266 -0.3234  0.1898
22081W        W26481   6.018   0.818  17.149  0.0177 -0.0207  0.0333
22082W        W26482   3.922   4.121   9.612 -0.0397  0.1696  0.2620
22083W        W26483  24.750   0.023  25.328  0.1290  0.3283 -0.0036
22084W        W26484  24.339   0.116  25.069 -0.0486  0.1285 -0.2640
22085W        W26485  25.616   2.226   8.400 -0.0133 -0.1089  0.0900
22086W        W26486  14.242   7.704   7.718  0.0225 -0.1070  0.1401
22087W        W26487  22.232   0.942  19.959  0.1379  0.0380  0.1605
22088W        W26488   2.509   5.143  19.110 -0.1096 -0.1609 -0.0728
22089W        W26489  16.853   6.658  19.410  0.1483 -0.1166  0.0237
22090W        W26490  17.355   3.621  25.922 -0.0710  0.0999 -0.0922
22091W        W26491  12.663   5.427  17.268  0.3165  0.2509 -0.0611
22092W        W26492  24.731   7.694  20.400 -0.1205  0.2308 -0.2825
22093W        W26493  27.331   2.638  25.895 -0.0337 -0.0277  0.3225
22094W        W26494  24.389   2.183   0.216  0.2276 -0.0493  0.0597
22095W        W26495  27.077   3.714  19.784  0.1567 -0.0018  0.1448
22096W        W26496   8.278   3.609  11.395  0.2528 -0.1211  0.6546
22097W        W26497   2.803   0.171   9.008  0.0726  0.1404  0.1420
22098W        W26498  13.933   0.225  19.601 -0.2849 -0.2941 -0.2315
22099W        W26499  19.947   3.538   4.157  0.1697  0.2793 -0.0337
22100W        W26500  26.830   5.739   4.112  0.4033  0.1282 -0.0466
22101W        W26501   2.353   5.467   2.589  0.1920  0.0544  0.2321
22102W        W26502   6.081   6.372   0.198 -0.2770 -0.4195 -0.0161
22103W        W26503   4.828   3.549   9.452  0.0026  0.0992  0.0738
22104W        W26504   2.417   5.142  17.702 -0.1129  0.0278  0.0925
22105W        W26505  10.072   1.645  15.774 -0.3354  0.2213 -0.0024
22106W        W26506  15.023   2.434  19.978  0.1095 -0.0555  0.0142
22107W        W26507  10.921   0.326   2.311  0.1518 -0.2714  0.3100
22108W        W26508  29.961   3.835  14.868  0.1474  0.0771 -0.1436
22109W        W26509  28.708   4.555  18.281  0.0747  0.0430  0.0459
22110W        W26510  30.587   4.237  19.064 -0.3631  0.3428 -0.0270
22111W        W26511  19.328   0.104   7.485 -0.3346  0.1347  0.0431
22112W        W26512  14.612   6.523  10.629 -0.0356  0.1081  0.0987
22113W        W26513  12.450   0.133  21.670  0.0512  0.0808 -0.0992
22114W        W26514   2.005   0.837   3.078  0.0976  0.2397 -0.1737
22115W        W26515  17.036   6.564   1.265  0.1975  0.0011  0.2474
22116W        W26516   7.399   7.480  23.126  0.1627  0.2096  0.1042
22117W        W26517   1.506   6.818  24.545  0.2860  0.0127 -0.1213
22118W        W26518  23.276   2.404   1.537 -0.2889  0.0135 -0.0407
22119W        W26519  16.061   4.746   3.213  0.1094  0.2358  0.0463
22120W        W26520  17.099   4.956  16.146  0.0503  0.2283  0.0417
22121W        W26521   2.402   2.245  14.341 -0.0376  0.0152 -0.1917
22122W        W26522  27.549   3.518   3.407  0.1279  0.0188  0.0524
22123W        W26523   9.799   4.408  20.777  0.0032  0.1414 -0.0488
22124W        W26524  18.317   1.615  10.903  0.2486 -0.0666  0.1363
22125W        W26525  15.973   1.373   9.066  0.3967  0.2971  0.0799
22126W        W26526   7.145   3.465  10.137 -0.0745  0.2186 -0.2003
22127W        W26527  22.603   2.737   3.997 -0.1107  0.2425 -0.0767
22128W        W26528   2.615   1.064  20.139 -0.0962  0.0556  0.1609
22129W        W26529  12.460   1.114  15.800  0.2271 -0.0397 -0.2566
22130W        W26530  29.887   5.350   5.771 -0.0264  0.0884  0.2175
22131W        W26531  22.291   7.150  18.093  0.1516  0.1420  0.0592
22132W        W26532  18.258   2.350   7.423  0.1287 -0.0465  0.0566
22133W        W26533  22.097   6.062   2.384 -0.2775 -0.0602 -0.0396
22134W        W26534  24.374   6.255   4.890  0.1259  0.2001 -0.1402
22135W        W26535  18.016   3.279   1.946 -0.2060  0.2159  0.1976
22136W        W26536  14.882   3.788  23.854  0.0046 -0.1307  0.0968
22137W        W26537  14.692   7.597   3.366 -0.3479  0.0574 -0.0441
22138W        W26538  20.041   6.664  10.141 -0.2879 -0.2535 -0.1195
22139W        W26539   0.559   3.151  19.137  0.0459 -0.0594  0.1207
22140W        W26540   2.398   3.112   5.147 -0.1698  0.0279  0.0700
22141W        W26541  10.808   1.571  18.125 -0.0730  0.2521 -0.0021
22142W        W26542   5.666   2.547  14.492  0.1795  0.2951  0.2612
22143W        W26543  18.373   4.299   7.138 -0.0322 -0.0850  0.0786
22144W        W26544   3.663   6.796   1.792  0.0248 -0.0361 -0.2197
22145W        W26545  28.171   5.712   8.510 -0.1693  0.0200  0.0418
22146W        W26546  17.824   7.111  18.002 -0.2054  0.1052 -0.0482
22147W        W26547   9.847   3.626  21.591  0.1851 -0.0088  0.2907
22148W        W26548  18.081   2.241  21.253 -0.0794  0.0810 -0.1581
22149W        W26549  12.138   3.003  25.383 -0.1611 -0.2101  0.1872
22150W        W26550  28.072   1.474   0.920  0.1839 -0.0193 -0.0822
22151W        W26551  30.548   5.514  24.566  0.1505 -0.1508  0.1913
22152W        W26552  13.143   2.550   6.342  0.1768 -0.0376  0.2186
22153W        W26553  20.048   0.116  11.592 -0.3330 -0.1505 -0.0490
22154W        W26554  24.915   7.844  21.286  0.0539 -0.3992 -0.1857
22155W        W26555   7.532   4.593   0.992  0.0137 -0.0863  0.1933
22156W        W26556  16.314   6.911  24.757  0.1980  0.0414  0.3108
22157W        W26557   4.828   2.873  23.132  0.2007 -0.1977  0.0509
22158W        W26558   9.060   6.235  25.902 -0.2531 -0.1951  0.0008
22159W        W26559   0.183   6.995  20.038 -0.1030 -0.2899 -0.3173
22160W        W26560  21.464   1.735   4.601 -0.1517 -0.0141  0.2245
22161W        W26561   8.697   6.288   4.695 -0.0289 -0.3443  0.1711
22162W        W26562   8.389   7.493  23.222  0.2063 -0.0762 -0.0423
22163W        W26563  18.946   7.184  21.722 -0.3234  0.2189 -0.0237
22164W        W26564  13.073   6.446   8.818 -0.4355  0.0119  0.3586
22165W        W26565   7.480   0.354   7.224  0.0571  0.1296 -0.0815
22166W        W26566   8.970   1.763   7.704  0.0842 -0.0518 -0.0525
22167W        W26567   7.615   3.306  16.711  0.1348 -0.0396  0.0677
22168W        W26568   4.935   7.546  15.129 -0.2005 -0.1202  0.0694
22169W        W26569  15.648   1.780  19.186 -0.1686  0.1162 -0.1844
22170W        W26570   5.511   6.371  22.795  0.3821 -0.2917  0.3023
22171W        W26571  19.142   6.922  18.394  0.1386  0.0829  0.0555
22172W        W26572  28.663   3.771   6.606 -0.0454  0.2023 -0.1734
22173W        W26573  22.530   1.746  18.413  0.0238  0.1423 -0.2711
22174W        W26574   3.477   0.326   3.331  0.3403  0.2153  0.0850
22175W        W26575  15.222   4.641   7.392 -0.0382  0.2865 -0.0084
22176W        W26576   1.430   3.392   3.304  0.1887  0.2169  0.0843
22177W        W26577   8.741   3.301  24.756  0.0693 -0.0839 -0.3042
22178W        W26578  16.572   5.524   6.455 -0.0422  0.0087 -0.2824
22179W        W26579  12.815   7.818   7.732  0.2395 -0.0679 -0.3359
22180W        W26580  27.209   6.881   3.685 -0.1638  0.0205 -0.0572
22181W        W26581  19.937   4.366  24.511  0.2243  0.0801 -0.1550
22182W        W26582  13.005   5.391  20.246 -0.2610 -0.2172 -0.2514
22183W        W26583  14.023   5.391   7.025  0.3613  0.1555 -0.0402
22184W        W26584  18.073   2.304   2.205  0.0973 -0.1227 -0.1046
22185W        W26585  14.409   5.476  21.799  0.2305  0.2799 -0.1834
22186W        W26586   0.260   1.979   4.149  0.1359 -0.2478  0.0300
22187W        W26587   6.147   6.299   5.336 -0.0815 -0.1226  0.0553
22188W        W26588  22.291   5.916  23.705  0.2261  0.1235 -0.1656
22189W        W26589  21.946   6.072  24.250  0.1170 -0.1421 -0.0011
22190W        W26590   9.508   1.019  25.829 -0.0264  0.1819  0.2433
22191W        W26591   5.086   5.191   2.871  0.1505  0.2922 -0.0373
22192W        W26592  20.457   4.933   3.379  0.0647 -0.1307 -0.0932
22193W        W26593   4.392   4.122  14.524 -0.1226 -0.1851 -0.3886
22194W        W26594  11.719   4.410  11.344  0.2432 -0.2233  0.1640
22195W        W26595   5.169   4.385   4.161 -0.3874  0.0404 -0.0460
22196W        W26596  28.950   3.355   4.237 -0.0322  0.3565  0.3203
22197W        W26597   3.739   6.491   8.535 -0.1816  0.0470 -0.2762
22198W        W26598   6.800   5.129  20.668 -0.0563 -0.1280 -0.1118
22199W        W26599  18.548   0.092   6.636 -0.0995  0.3659 -0.0017
22200W        W26600  15.339   3.229   7.324 -0.1047 -0.0991  0.0538
22201W        W26601  16.039   2.927  17.574  0.0145  0.0243  0.1348
22202W        W26602  26.959   1.947  20.409  0.3150  0.0591 -0.1714
22203W        W26603  27.545   4.919  15.102 -0.0872 -0.3549  0.0622
22204W        W26604   3.242   1.008   0.565 -0.1155 -0.1636  0.1729
22205W        W26605   7.445   2.670  21.665  0.0730 -0.0068  0.2221
22206W        W26606  19.780   2.817   0.886 -0.1397 -0.0568  0.1636
22207W        W26607  27.012   2.389   3.706  0.1638  0.0347  0.2926
22208W        W26608   0.835   4.747   4.106  0.1634  0.0078  0.1544
22209W        W26609   1.919   3.832  22.978 -0.0041 -0.0068  0.3855
22210W        W26610  14.819   4.680   0.758 -0.1864 -0.0298 -0.1534
22211W        W26611  21.053   7.577  22.862 -0.1272 -0.2650  0.1350
22212W        W26612   6.717   1.238   6.704  0.1197 -0.0674  0.0256
22213W        W26613   2.406   4.357   3.471 -0.2641 -0.2665  0.1445
22214W        W26614  11.466   5.900   9.460  0.1017 -0.0472 -0.1510
22215W        W26615  23.306   6.056  23.727 -0.1448  0.1911  0.0843
22216W        W26616   8.367   0.565   8.460 -0.1147  0.0814  0.0859
22217W        W26617  28.311   0.625  21.004 -0.4060  0.0941  0.0265
22218W        W26618  19.376   2.072  17.869  0.3018  0.0162  0.0954
22219W        W26619  16.559   5.720  10.481  0.2933  0.2898 -0.0890
22220W        W26620   5.179   6.422  17.240 -0.2899  0.1727 -0.0669
22221W        W26621  27.285   3.786   7.535  0.0869  0.0132  0.1094
22222W        W26622  16.425   6.703  23.529 -0.1005  0.1769 -0.0650
22223W        W26623   0.400   5.880  21.070 -0.0507  0.1524 -0.0547
22224W        W26624  28.252   2.414  24.502  0.0804 -0.0998 -0.1098
22225W        W26625  25.918   3.791   7.335  0.4249 -0.1671 -0.1192
22226W        W26626   4.796   5.686   4.769  0.1607  0.0310 -0.1286
22227W        W26627  10.065   4.351  22.621  0.0507 -0.2132  0.1235
22228W        W26628  24.519   2.138   3.786  0.0864 -0.1708  0.0904
22229W        W26629  11.820   1.956   3.573  0.2557 -0.0160 -0.2647
22230W        W26630  18.045   1.607  15.495 -0.1218 -0.1608  0.0821
22231W        W26631  10.361   1.797  16.145 -0.0858 -0.1545 -0.1175
22232W        W26632  17.642   3.705  21.251  0.1234  0.0207 -0.1916
22233W        W26633  28.902   7.653   6.648  0.0230 -0.0089 -0.1902
22234W        W26634  19.089   0.554   7.423 -0.0374  0.0601  0.0440
22235W        W26635  28.836   2.287   9.784  0.1026  0.0163 -0.3095
22236W        W26636  13.932   3.211  20.025 -0.0469  0.0202 -0.2117
22237W        W26637  18.739   7.444   9.126  0.2331  0.0084  0.0060
22238W        W26638   1.943   1.658   8.142 -0.0072 -0.3843  0.3520
22239W        W26639  14.069   3.447  22.052  0.1167  0.2273 -0.1710
22240W        W26640  31.138   3.638   2.617 -0.2002 -0.0846 -0.0889
22241W        W26641   0.617   5.695   1.884  0.0799 -0.0299  0.2904
22242W        W26642  20.317   6.046   3.441 -0.3040  0.0859 -0.0104
22243W        W26643  24.336   4.250  23.045 -0.1639  0.1166  0.2364
22244W        W26644   5.045   0.907   9.421 -0.1371 -0.0082 -0.2275
22245W        W26645  17.436   3.007  17.126  0.1426  0.0129 -0.0133
22246W        W26646   4.137   7.392  18.465 -0.1019 -0.2696 -0.1924
22247W        W26647   3.499   2.236  19.052 -0.0150  0.3104  0.0969
22248W        W26648   0.571   0.230  20.410  0.0856 -0.0166  0.0213
22249W        W26649   6.812   0.505  16.910 -0.1740  0.0354 -0.0419
22250W        W26650  25.284   5.681  18.571  0.0476  0.1349  0.0477
22251W        W26651  27.586   6.591   1.931 -0.0212 -0.0726 -0.0384
22252W        W26652   1.649   0.313   7.770  0.0504  0.2512  0.0300
22253W        W26653   4.203   7.709   7.060  0.3199  0.2251  0.3007
22254W        W26654  19.374   2.336  20.067  0.0908 -0.1907  0.2401
22255W        W26655  18.679   4.462  16.638 -0.0516  0.1557  0.0068
22256W        W26656  13.235   1.633  15.824 -0.0004 -0.0620 -0.2358
22257W        W26657  12.090   2.580   2.076 -0.3627 -0.0307 -0.0824
22258W        W26658   6.964   3.484   4.898  0.0894  0.1294  0.0067
22259W        W26659   2.885   5.642  20.418 -0.3877 -0.0242  0.0848
22260W        W26660  11.706   6.801  16.003  0.0815 -0.2792  0.1736
22261W        W26661  25.852   1.630  20.205  0.0051 -0.2397  0.2272
22262W        W26662  22.733   0.250  17.958  0.0936  0.0544  0.1550
22263W        W26663  13.954   7.171  22.726  0.1742 -0.2315  0.2599
22264W        W26664  10.895   4.315  25.187 -0.2223  0.2588  0.2380
22265W        W26665   3.672   5.250   3.652 -0.2097  0.1899 -0.1094
22266W        W26666  10.730   4.772   7.450  0.0252  0.1366 -0.3760
22267W        W26667   6.203   6.873  23.425  0.0253 -0.0168 -0.1454
22268W        W26668  30.637   1.258   5.089 -0.2039  0.1341  0.1473
22269W        W26669  11.453   1.670  17.001  0.0330  0.2123  0.1539
22270W        W26670  23.883   1.022  18.808 -0.1076 -0.0961 -0.2150
22271W        W26671   3.151   0.819  17.704  0.0794 -0.5048  0.0071
22272W        W26672   8.821   7.663  25.555  0.1671  0.1769  0.3296
22273W        W26673  27.417   7.784  23.215 -0.1159 -0.1672  0.2694
22274W        W26674  16.194   4.171   2.048  0.0613  0.0237 -0.0892
22275W        W26675  28.451   1.813  22.695 -0.1044  0.0232 -0.0175
22276W        W26676  30.557   3.222   8.107 -0.2609  0.0948  0.1974
22277W        W26677  14.339   3.656  24.671  0.1566 -0.1133  0.0717
22278W        W26678   1.619   3.861  18.181 -0.0184  0.0111  0.1747
22279W        W26679  14.865   0.554  10.785 -0.2015 -0.1496  0.1791
22280W        W26680  19.281   6.422  25.539 -0.2440 -0.1778 -0.2302
22281W        W26681   9.572   3.124   9.480  0.0324 -0.2672 -0.1013
22282W        W26682   7.802   3.537  22.917  0.3106  0.0289 -0.2530
22283W        W26683  18.500   3.556  16.446  0.3150  0.2776 -0.2326
22284W        W26684  18.684   0.695   2.691 -0.2779 -0.1050 -0.1161
22285W        W26685   6.033   0.641  10.331  0.1690  0.0093  0.2674
22286W        W26686  26.015   0.194  16.057  0.0154 -0.0523 -0.1284
22287W        W26687  20.642   6.631   5.487  0.1804 -0.1944 -0.1661
22288W        W26688  11.315   4.604  25.262 -0.4732  0.0320 -0.0209
22289W        W26689  23.970   3.954  16.856  0.4274  0.0192 -0.2646
22290W        W26690   7.700   0.581   9.467  0.1361 -0.0935  0.1122
22291W        W26691   5.196   6.314   0.696  0.0043 -0.1202 -0.2955
22292W        W26692   7.880   0.591   9.919 -0.3821  0.1377 -0.0457
22293W        W26693  21.339   4.527  15.945 -0.3364 -0.0290 -0.0603
22294W        W26694  19.502   2.236   0.454 -0.1227 -0.1466 -0.0268
22295W        W26695  18.365   7.504   7.611 -0.0699  0.0088  0.0095
22296W        W26696  19.779   7.424  17.925 -0.1539  0.0597 -0.3693
22297W        W26697  27.406   4.641   7.840 -0.1351  0.0315 -0.0977
22298W        W26698   5.631   3.029  14.761  0.0414 -0.1457  0.1636
22299W        W26699  16.899   3.527  25.648 -0.1433 -0.0012  0.3299
22300W        W26700  23.235   5.878   4.128 -0.0630  0.0157 -0.2877
22301W        W26701  19.438   4.868  17.716  0.1017  0.0187 -0.0152
22302W        W26702   0.317   1.127  20.831 -0.2086  0.1936 -0.0226
22303W        W26703  28.421   2.647  15.645 -0.0257  0.2828 -0.0371
22304W        W26704  28.374   4.185   0.520  0.0700  0.0932  0.0344
22305W        W26705   3.478   5.158  19.328  0.2157 -0.0271 -0.1931
22306W        W26706  21.355   2.114  22.475 -0.3394  0.2734  0.0979
22307W        W26707  23.203   4.672   3.069  0.0041  0.0163 -0.0647
22308W        W26708  21.321   3.196   7.679 -0.3366 -0.1160  0.0329
22309W        W26709  18.513   3.928  24.075  0.1368 -0.3049  0.1735
22310W        W26710   2.050   4.850  17.365  0.0403  0.3598  0.1460
22311W        W26711   2.355   5.987  15.847 -0.3004  0.0159 -0.1269
22312W        W26712  26.891   2.365  18.749 -0.0710  0.0658  0.1542
22313W        W26713  13.170   0.609  24.631  0.0088  0.1490 -0.2634
22314W        W26714  27.398   3.832   0.111  0.0674  0.2848  0.0723
22315W        W26715   9.291   7.414  25.342  0.1547  0.2055 -0.2865
22316W        W26716  24.237   0.915   9.769 -0.5796  0.1522  0.1072
22317W        W26717   9.807   4.014  21.307 -0.1058  0.0654 -0.0446
22318W        W26718  29.673   0.493  18.534 -0.1480 -0.2540  0.0905
22319W        W26719  14.349   4.544  20.215  0.0390  0.1535 -0.1617
22320W        W26720  28.914   3.383  20.151  0.0295 -0.0130  0.1350
22321W        W26721  20.855   6.732  19.037  0.3760  0.3379 -0.1785
22322W        W26722  30.632   5.501  23.587  0.3136 -0.0400 -0.1256
22323W        W26723  13.904   5.469  18.774 -0.1601 -0.0307 -0.0375
22324W        W26724  20.034   3.726   2.111  0.2171  0.0995 -0.0113
22325W        W26725  23.404   3.581   0.175  0.0473  0.0963  0.0239
22326W        W26726  13.982   0.518  10.461  0.3606  0.3138 -0.1014
22327W        W26727   1.408   5.986  14.766  0.1996  0.1130 -0.1601
22328W        W26728   0.472   6.764   4.093  0.0115 -0.0394  0.0867
22329W        W26729  16.889   4.660  21.577  0.0832 -0.2765  0.2242
22330W        W26730  21.389   3.711   2.123  0.1014  0.0962 -0.5253
22331W        W26731  15.153   5.132  19.124  0.0704 -0.0431 -0.3604
22332W        W26732  17.744   2.515   0.784 -0.2191 -0.1356  0.0714
22333W        W26733  19.823   3.422   6.846  0.2294 -0.1631  0.0525
22334W        W26734  27.545   2.196   1.476 -0.1040  0.0477  0.1391
22335W        W26735   7.407   2.434  20.178  0.2739  0.1758  0.3323
22336W        W26736  19.053   4.577   9.177  0.0275  0.0985 -0.0718
22337W        W26737   1.885   4.179   5.805 -0.3551  0.0162  0.1463
22338W        W26738  13.604   4.391  17.459  0.1151 -0.3217  0.0525
22339W        W26739  12.120   1.171  21.360  0.0988  0.2128 -0.4466
22340W        W26740  12.469   0.057  19.983  0.3705 -0.0978  0.0625
22341W        W26741  21.795   6.935  18.162 -0.0991 -0.2390 -0.1448
22342W        W26742  14.056   2.459   8.457  0.0588 -0.0631 -0.1888
22343W        W26743  29.454   0.681  17.434  0.3616  0.1447  0.1298
22344W        W26744  19.984   0.091  24.232 -0.3065 -0.2449 -0.0168
22345W        W26745  10.770   6.299   2.488  0.0392  0.2222 -0.1697
22346W        W26746  31.256   6.057   6.445 -0.0985 -0.2589 -0.1860
22347W        W26747   3.965   6.740  19.687  0.2122 -0.0528 -0.0750
22348W        W26748  17.354   6.395   8.217  0.1208 -0.0736 -0.0693
22349W        W26749   2.752   4.624   9.941  0.1710 -0.3788  0.2870
22350W        W26750  19.177   1.797  19.327 -0.0562  0.1890 -0.3188
22351W        W26751   4.299   4.103   9.071  0.0585 -0.0917  0.0335
22352W        W26752   6.710   5.950  18.386  0.0810  0.0046 -0.0267
22353W        W26753   2.767   5.140  22.873 -0.1818 -0.0168 -0.1203
22354W        W26754  22.030   3.948  19.806 -0.0549 -0.2899 -0.0458
22355W        W26755  24.118   2.773   4.453  0.1667  0.0577  0.0319
22356W        W26756  13.174   7.363  17.441  0.2942  0.1841 -0.0786
22357W        W26757  18.361   0.752  15.514  0.0673 -0.0600 -0.1124
22358W        W26758   5.875   4.154   4.176 -0.2122 -0.1495  0.3266
22359W        W26759   0.865   3.894  21.686 -0.1551 -0.1061 -0.0679
22360W        W26760  22.849   0.193   7.680  0.0460  0.0612  0.1145
22361W        W26761   6.649   0.932  15.248 -0.0562  0.1167 -0.1414
22362W        W26762  25.393   6.907  19.277 -0.1724 -0.1819 -0.3138
22363W        W26763   3.139   2.113  19.488 -0.0747 -0.0649  0.1273
22364W        W26764  13.625   1.209   9.701 -0.0353 -0.1428  0.2509
22365W        W26765  18.617   2.135   3.723  0.0732 -0.2390 -0.0432
22366W        W26766   2.677   3.039  15.577 -0.2455 -0.0904  0.2351
22367W        W26767  27.414   6.999  24.897  0.2863 -0.0637 -0.0310
22368W        W26768  13.673   4.826   8.853  0.1708  0.0515 -0.0078
22369W        W26769  28.780   5.093   8.906  0.0464 -0.2076  0.0782
22370W        W26770  11.418   1.634  19.204 -0.1789 -0.1777 -0.0271
22371W        W26771  21.899   0.988  24.469 -0.2766  0.0386 -0.2666
22372W        W26772  31.000   2.285  19.753 -0.1022  0.1497  0.1172
22373W        W26773  20.260   2.559  19.899 -0.0833 -0.1401  0.1476
22374W        W26774  31.013   5.407   0.768  0.0674  0.0449  0.1707
22375W        W26775  28.134   1.419   9.648 -0.1545  0.1030  0.3079
22376W        W26776  29.155   4.579  23.476  0.0499 -0.0129 -0.4562
22377W        W26777  15.785   7.747  20.685  0.2240 -0.0137  0.0814
22378W        W26778  16.002   7.635  14.991  0.0066 -0.2629 -0.3830
22379W        W26779   6.194   3.744   9.945 -0.1299  0.1065  0.0015
22380W        W26780  17.536   3.121  22.999  0.1504 -0.3096  0.1098
22381W        W26781  24.990   4.789  25.736  0.1678 -0.1712  0.2383
22382W        W26782  31.112   0.096   6.588 -0.1069  0.0860 -0.1379
22383W        W26783  20.290   3.909   1.393  0.0236 -0.0354  0.1061
22384W        W26784   1.927   1.670  17.826 -0.0245  0.0190 -0.2706
22385W        W26785  22.039   0.404  25.891  0.0409 -0.1174  0.2020
22386W        W26786  12.728   0.281   0.593  0.3176  0.0720  0.0002
22387W        W26787   4.850   5.871  16.442 -0.0359 -0.3412  0.1967
22388W        W26788   9.331   2.242   9.582  0.1422 -0.1275  0.2580
22389W        W26789   1.231   3.834  20.385  0.3109  0.1384 -0.1572
22390W        W26790   7.961   3.822  19.871 -0.1363  0.2779  0.2096
22391W        W26791   0.365   3.500   1.652 -0.1483  0.1926  0.1474
22392W        W26792   5.853   6.125   6.505  0.3452  0.0944 -0.0312
22393W        W26793   9.704   2.836   2.632 -0.1611 -0.3096  0.1176
22394W        W26794  22.447   7.658   9.506 -0.0046 -0.0194 -0.0959
22395W        W26795   9.933   0.141  20.706 -0.2645 -0.0735 -0.0514
22396W        W26796  19.490   4.513  21.138 -0.1023  0.1145 -0.2992
22397W        W26797   2.359   1.914  18.017 -0.0862 -0.1672 -0.5340
22398W        W26798  31.257   2.904  21.075  0.0669 -0.1184  0.1438
22399W        W26799   5.506   0.740  17.334  0.0821 -0.1886 -0.0875
22400W        W26800   7.588   1.541  20.178 -0.1022  0.2370 -0.0166
22401W        W26801  30.797   2.902  20.360  0.0127  0.2123 -0.1092
22402W        W26802   8.874   3.775  23.760  0.1778 -0.3505 -0.1316
22403W        W26803  24.789   1.797   2.946 -0.1111  0.0493 -0.3044
22404W        W26804   6.488   7.100   0.060 -0.2647  0.1251  0.1190
22405W        W26805   0.898   7.850   4.201 -0.0066  0.3668 -0.3609
22406W        W26806   0.926   4.589  24.759 -0.3322 -0.0408  0.1817
22407W        W26807   8.683   1.731   4.473 -0.0657  0.4028 -0.4434
22408W        W26808  13.762   4.162   4.111 -0.1620 -0.2167 -0.1502
22409W        W26809  22.726   1.549  18.790 -0.1518 -0.2323 -0.1417
22410W        W26810  12.145   4.669  17.410  0.1339 -0.5786 -0.1333
22411W        W26811   7.412   4.523  17.416  0.0097 -0.3410 -0.3434
22412W        W26812  23.751   5.114   6.526 -0.0642 -0.1670  0.0560
22413W        W26813  15.765   7.373   8.951  0.1176 -0.2668 -0.1688
22414W        W26814  16.565   1.732  24.776 -0.2255  0.2239 -0.2664
22415W        W26815  24.965   1.779  19.510  0.0999  0.2406 -0.3416
22416W        W26816  16.221   1.282   1.850 -0.2039 -0.2794 -0.1031
22417W        W26817   8.984   3.499  25.172 -0.3050 -0.2008  0.1456
22418W        W26818  17.698   4.078   1.184 -0.0070  0.0779  0.0155
22419W        W26819  21.250   6.871  21.269  0.2761 -0.0209  0.1918
22420W        W26820   0.726   7.026   6.464  0.0228 -0.1763  0.0203
22421W        W26821  28.367   6.168  17.383  0.1403 -0.0803 -0.2991
22422W        W26822  26.506   0.398  21.122 -0.1028  0.1709 -0.1173
22423W        W26823  23.486   1.193  15.407  0.2348 -0.1472  0.0024
22424W        W26824   1.379   0.970  21.247 -0.2895  0.0614  0.0122
22425W        W26825  10.650   3.882  25.866 -0.1079 -0.0576 -0.0371
22426W        W26826  25.209   5.332  15.721 -0.0108 -0.2111  0.0695
22427W        W26827  28.756   4.625   0.438  0.0422  0.2856  0.2293
22428W        W26828   4.536   3.728   3.210 -0.0155 -0.0115  0.1121
22429W        W26829  20.607   1.705   4.974 -0.1523 -0.3757  0.3516
22430W        W26830  13.864   7.344   2.848  0.2304 -0.0644 -0.1745
22431W        W26831   3.903   3.694   4.996 -0.2820 -0.1512  0.4098
22432W        W26832  16.633   5.642  20.342 -0.3521 -0.1985 -0.0326
22433W        W26833  14.597   0.046  20.456  0.1710  0.3700 -0.1832
22434W        W26834  31.038   3.534   2.142  0.1592 -0.0508  0.0372
22435W        W26835   9.035   4.190  17.036 -0.1500  0.2373  0.2717
22436W        W26836   6.943   5.889   8.072 -0.0354 -0.0269 -0.0087
22437W        W26837  19.083   1.443  21.538 -0.2383  0.2952  0.3511
22438W        W26838  24.689   1.260   7.979  0.0064 -0.0114 -0.1219
22439W        W26839  30.824   5.977   1.968 -0.2055  0.1695  0.4789
22440W        W26840  24.643   3.085  20.513  0.0597 -0.2205  0.1373
22441W        W26841   8.132   7.581   9.811  0.4390  0.0277 -0.0487
22442W        W26842  12.853   4.834   0.435  0.2027 -0.3186 -0.0302
22443W        W26843  17.107   1.905  11.444  0.3430 -0.0682  0.2830
22444W        W26844   2.113   1.935   2.455  0.1885 -0.1306  0.0861
22445W        W26845   8.472   2.115   8.927 -0.1869 -0.1211  0.1218
22446W        W26846  23.979   4.771  19.510 -0.0548 -0.1664  0.0130
22447W        W26847  12.645   7.636   1.380  0.0332  0.0199  0.0195
22448W        W26848   4.915   5.164  17.923  0.0236  0.1628 -0.2603
22449W        W26849   9.210   6.560   2.083 -0.1046  0.1623  0.4891
22450W        W26850  15.010   1.451   3.112  0.0894 -0.0815  0.4033
22451W        W26851  12.318   3.654  20.051 -0.1329  0.1437  0.2682
22452W        W26852  13.081   6.367  21.360  0.0071  0.2913 -0.0336
22453W        W26853   1.614   3.752  15.821  0.2274  0.3171  0.0354
22454W        W26854   0.539   5.734  18.519  0.1266  0.0763  0.0318
22455W        W26855  29.960   5.372  10.091 -0.0791 -0.0356  0.2110
22456W        W26856  19.691   2.174  23.601  0.1273  0.0588  0.0711
22457W        W26857   7.683   2.916  20.429 -0.1524 -0.1764 -0.0041
22458W        W26858  11.086   7.749  24.823  0.2749 -0.0951  0.2465
22459W        W26859  23.785   4.551   4.489  0.1547  0.2021 -0.0013
22460W        W26860  19.820   3.306  21.514 -0.0228 -0.0510  0.0326
22461W        W26861   7.894   6.903   4.558 -0.0447  0.4534  0.1493
22462W        W26862  25.790   5.190   9.695 -0.0976 -0.2182  0.0582
22463W        W26863  15.516   3.120   8.350  0.2162 -0.1453  0.0243
22464W        W26864   1.122   4.938   8.505  0.0220 -0.2786  0.1423
22465W        W26865   5.072   4.127  18.274  0.0533 -0.1478  0.0944
22466W        W26866  27.188   5.756   9.316 -0.1631 -0.2367  0.1598
22467W        W26867  13.994   1.617  17.661  0.2400 -0.0169  0.1906
22468W        W26868   7.030   1.791  25.224  0.0893  0.1131  0.1214
22469W        W26869   4.470   4.880   7.766  0.1059 -0.0455 -0.1773
22470W        W26870   4.360   7.475  22.780  0.0011  0.0703  0.0586
22471W        W26871  21.877   7.487  17.386 -0.0304  0.4096  0.1028
22472W        W26872  11.084   3.008   7.827 -0.1007  0.3922 -0.0901
22473W        W26873  10.312   3.422   9.599 -0.0161 -0.0989 -0.0629
22474W        W26874  28.570   6.639   2.067  0.1738 -0.2087 -0.0447
22475W        W26875   2.201   2.720   0.863  0.1171  0.2128 -0.1033
22476W        W26876  22.075   6.952   2.614 -0.3046 -0.2060  0.0154
22477W        W26877  15.283   0.287  22.465  0.0164 -0.0456 -0.0240
22478W        W26878  21.122   5.203   0.362 -0.1330  0.2707 -0.0591
22479W        W26879   4.850   0.911  24.497  0.1755  0.0575 -0.1636
22480W        W26880   3.286   3.001   3.231  0.0204 -0.2302 -0.0869
22481W        W26881  22.734   2.292  16.959  0.0085 -0.0524  0.1762
22482W        W26882   6.995   3.995  16.735 -0.1304 -0.0402  0.1161
22483W        W26883   3.815   3.656   6.753 -0.3496 -0.1405  0.4063
22484W        W26884  25.345   1.580  11.268  0.0189  0.2006  0.1987
22485W        W26885  16.903   5.633   7.239 -0.1155  0.0810 -0.1301
22486W        W26886  19.546   6.749  16.525  0.1451  0.1554 -0.4113
22487W        W26887  22.408   0.047  21.893 -0.0571 -0.0038  0.0951
22488W        W26888   3.336   3.034  16.246 -0.2045  0.1064  0.1519
22489W        W26889  22.181   1.804  15.966  0.1736 -0.2966 -0.0324
22490W        W26890  19.733   0.751   3.619  0.2876 -0.2079  0.2372
22491W        W26891  15.440   3.788   3.681  0.1111  0.1056  0.0523
22492W        W26892  26.660   7.320  16.792 -0.1196 -0.3293 -0.3175
22493W        W26893   2.924   4.163  22.050 -0.0313  0.4043  0.0919
22494W        W26894  24.972   6.874  25.263  0.0375 -0.0198  0.0079
22495W        W26895  17.417   1.198  19.346 -0.2691 -0.0069  0.2760
22496W        W26896   9.271   5.540  24.847 -0.1983 -0.3551 -0.1715
22497W        W26897   8.071   7.342   5.462  0.0911  0.3036 -0.0759
22498W        W26898  26.895   2.932   8.460 -0.1787  0.1420  0.2291
22499W        W26899  27.980   7.593   9.987  0.0613 -0.0712  0.1567
22500W        W26900  12.935   7.609   0.863  0.0236 -0.0668 -0.0576
22501W        W26901  15.512   1.147  24.481  0.0086 -0.2313 -0.0378
22502W        W26902  26.340   5.136  20.430  0.2782  0.0937 -0.0307
22503W        W26903  10.297   7.218   5.666 -0.1146 -0.0219 -0.1330
22504W        W26904  14.223   4.196   3.851  0.0247 -0.2597  0.2470
22505W        W26905  17.721   3.445   5.391  0.0087 -0.1355 -0.2813
22506W        W26906  18.669   3.127  23.776  0.2331  0.3621 -0.4266
22507W        W26907   3.877   4.154   8.174  0.1832  0.2778 -0.1917
22508W        W26908  24.986   0.960   5.442 -0.0050 -0.0062  0.0373
22509W        W26909   1.982   5.926   3.321  0.0207  0.0863  0.0154
22510W        W26910  17.259   3.572   0.672 -0.0847 -0.0808  0.2104
22511W        W26911   4.806   4.231   2.538 -0.0164  0.0455 -0.4082
22512W        W26912   5.415   0.141  15.923  0.0597  0.0939  0.1921
22513W        W26913   9.317   7.450   7.050 -0.1888  0.1403 -0.1677
22514W        W26914  14.691   0.134  23.849 -0.0723 -0.2847  0.0419
22515W        W26915  26.162   2.028  21.487  0.3667  0.4083 -0.1103
22516W        W26916  25.389   2.738  10.857 -0.0113  0.0953  0.1113
22517W        W26917   1.436   5.098  21.353  0.1536  0.2914 -0.2736
22518W        W26918  15.738   2.993   4.728  0.3189 -0.0087  0.1388
22519W        W26919  14.675   2.706  25.296  0.0185 -0.1557 -0.2788
22520W        W26920  30.661   3.630   8.396  0.1498  0.0987  0.0445
22521W        W26921  22.977   3.296  20.462  0.1284  0.0996 -0.1338
22522W        W26922   2.585   2.734   7.846 -0.2180 -0.1363 -0.1002
22523W        W26923  21.555   6.160   1.766  0.4709  0.1116 -0.2121
22524W        W26924   7.394   7.519   7.881 -0.0504 -0.2619 -0.1310
22525W        W26925  15.573   3.302  25.957 -0.1378  0.4551 -0.1402
22526W        W26926  18.653   0.934  17.506 -0.0509  0.0474 -0.0845
22527W        W26927  14.903   0.630  23.933  0.1114  0.0067 -0.0685
22528W        W26928  30.290   1.430  11.007 -0.1721 -0.0355  0.0883
22529W        W26929  20.108   6.117  25.253  0.2063  0.2639  0.1986
22530W        W26930   4.113   0.981   6.024 -0.1484 -0.2215  0.5413
22531W        W26931  31.132   2.630  14.953 -0.1089 -0.1346  0.2150
22532W        W26932  11.715   6.562   3.388  0.3423 -0.0785  0.1563
22533W        W26933  30.784   3.177  19.936  0.0329  0.0601  0.1776
22534W        W26934   1.338   6.856   0.832  0.3566 -0.0387 -0.1038
22535W        W26935  10.259   6.549  21.847  0.1534 -0.0739 -0.0137
22536W        W26936  23.253   0.845   9.374 -0.0803  0.1026  0.5188
22537W        W26937   1.113   1.619   3.749 -0.1377 -0.0917  0.0369
22538W        W26938  16.631   6.142  10.806 -0.0263 -0.1752 -0.0635
22539W        W26939  29.947   4.632   4.073 -0.0967 -0.0766 -0.1655
22540W        W26940  11.032   3.034   0.277  0.0885 -0.0607  0.0852
22541W        W26941  14.271   1.599  22.748 -0.5493 -0.3263 -0.0361
22542W        W26942  25.344   3.882  17.750  0.0506 -0.5593  0.0385
22543W        W26943  21.660   3.663   9.004 -0.2412  0.2468 -0.0008
22544W        W26944  30.531   7.858  15.506 -0.4248  0.1665 -0.0011
22545W        W26945   6.185   5.870  17.099  0.1421  0.0912 -0.1260
22546W        W26946  26.483   6.915   7.263 -0.1176 -0.0263  0.1601
22547W        W26947  28.717   2.550   7.020 -0.3302 -0.1779  0.1133
22548W        W26948  23.625   6.566   4.618  0.0187 -0.0066 -0.1452
22549W        W26949  18.933   7.761  10.767 -0.3160  0.1444 -0.0858
22550W        W26950   9.296   5.507   1.625 -0.0805 -0.1910 -0.1941
22551W        W26951   2.412   1.696  16.110  0.0695 -0.1013  0.0154
22552W        W26952   1.913   7.304   7.451 -0.0420 -0.0486  0.0537
22553W        W26953   6.932   6.713   1.274  0.0998 -0.0537 -0.1022
22554W        W26954   3.720   7.333  14.760  0.0568  0.0123 -0.0181
22555W        W26955  11.083   1.288   0.555  0.1103  0.1016  0.1349
22556W        W26956  20.317   4.612   5.493  0.5248  0.1052  0.1313
22557W        W26957  18.327   0.150   8.462  0.0965 -0.2278 -0.0191
22558W        W26958  16.004   0.769  22.159 -0.1429 -0.1761 -0.1021
22559W        W26959   7.767   6.827   7.895  0.2741  0.1057 -0.1515
22560W        W26960  29.151   5.181   7.640  0.0328 -0.0851  0.0808
22561W        W26961  22.790   2.002  25.252 -0.0937 -0.2627 -0.0892
22562W        W26962  28.465   1.486  21.836 -0.0552  0.1040 -0.1627
22563W        W26963  23.344   0.479  18.394  0.2311 -0.2923 -0.1931
22564W        W26964  22.117   5.375   8.647  0.2024 -0.0345  0.1218
22565W        W26965   0.733   3.597  21.229  0.2183  0.3731 -0.0111
22566W        W26966  10.512   6.521   8.858 -0.2024  0.1373  0.3367
22567W        W26967   7.482   0.426  16.676 -0.1380 -0.2834  0.1702
22568W        W26968  22.586   1.191   4.872  0.0146 -0.1963  0.2620
22569W        W26969  27.617   0.050   5.944 -0.1487 -0.2877 -0.1064
22570W        W26970  16.217   2.634   1.567  0.0111  0.2192 -0.0173
22571W        W26971   4.913   5.866   7.654  0.3589  0.0028 -0.0106
22572W        W26972  14.301   5.098  10.833 -0.0147  0.1355  0.2126
22573W        W26973  13.324   4.703  25.759 -0.1652  0.2554 -0.0907
22574W        W26974  28.119   4.673  23.601  0.1908  0.2202  0.1702
22575W        W26975   6.188   5.059  10.254  0.1594 -0.6141  0.2039
22576W        W26976   1.308   3.223  18.846 -0.0903  0.0921 -0.0259
22577W        W26977  18.621   1.774  25.989  0.2290 -0.0408  0.1324
22578W        W26978  13.422   7.350   1.498 -0.0634 -0.2304  0.1926
22579W        W26979  25.885   5.787  21.061 -0.4780  0.0645  0.0668
22580W        W26980  21.541   4.855   4.418  0.1005  0.0335  0.0555
22581W        W26981  21.493   5.777   7.564  0.1905 -0.0205  0.2466
22582W        W26982  25.873   6.362   2.978  0.2900 -0.1425  0.3577
22583W        W26983  25.683   7.496  15.098 -0.0768 -0.0804 -0.0551
22584W        W26984   5.675   4.476   8.350  0.1553 -0.0342 -0.1186
22585W        W26985   2.796   5.679   5.687  0.1333 -0.0995  0.0978
22586W        W26986   4.746   2.568  18.410  0.0645 -0.1723  0.0800
22587W        W26987  10.215   4.495   3.520 -0.0221 -0.0914  0.0554
22588W        W26988   6.264   1.572   9.372 -0.1862  0.2013 -0.4111
22589W        W26989  15.822   6.592  20.078  0.5124  0.0755 -0.0033
22590W        W26990   3.099   3.876  19.834  0.2561  0.4136 -0.1266
22591W        W26991   4.182   3.246  19.373  0.2402 -0.0637  0.2340
22592W        W26992   3.754   1.700  16.823 -0.1790 -0.0201  0.2431
22593W        W26993   3.157   3.189  17.207  0.0894 -0.0148  0.1904
22594W        W26994  17.861   7.307   1.965 -0.3219 -0.3292  0.0691
22595W        W26995   3.019   0.638   5.348  0.0503  0.0773 -0.0118
22596W        W26996  22.819   7.565  19.006  0.1336 -0.0316 -0.0106
22597W        W26997   5.292   3.646  10.974 -0.2641 -0.0189  0.0353
22598W        W26998   9.554   3.303  22.564 -0.1497  0.2698  0.1092
22599W        W26999  18.711   7.240  19.634  0.4006  0.2779 -0.0291
22600W        W27000   4.169   2.280   3.634  0.1824  0.1298  0.0746
22601W        W27001  11.239   3.631  22.461 -0.1098  0.1964  0.1472
22602W        W27002  21.867   4.385   9.760 -0.1623 -0.0362 -0.0112
22603W        W27003  27.295   4.156   4.020 -0.1318  0.0820 -0.0124
22604W        W27004  25.971   1.815   1.723 -0.0339 -0.4318  0.2501
22605W        W27005  11.721   5.936  19.025  0.0756  0.1357  0.2244
22606W        W27006  19.215   1.911  18.323 -0.2258  0.1744  0.1705
22607W        W27007   9.180   0.894   1.841  0.1474  0.1805  0.1519
22608W        W27008  13.025   4.649  23.049 -0.1941 -0.1423 -0.2090
22609W        W27009  11.433   5.177   1.935  0.1555  0.1134 -0.1679
22610W        W27010  14.152   0.908   6.777 -0.0264 -0.0930 -0.1878
22611W        W27011   5.769   3.174   5.676  0.0086  0.2369 -0.1282
22612W        W27012   1.313   2.318   8.207  0.1802  0.0483 -0.0493
22613W        W27013  11.757   5.555  19.929  0.2284 -0.1571  0.2166
22614W        W27014   6.644   2.280  21.206  0.0664  0.0576  0.0606
22615W        W27015  12.783   1.531   9.205  0.6165  0.1162  0.0570
22616W        W27016  18.142   7.129   9.432 -0.0661  0.0759  0.1200
22617W        W27017  11.984   4.647   7.409  0.0818  0.0380 -0.0094
22618W        W27018   0.359   5.038  17.762 -0.0244 -0.0407  0.0468
22619W        W27019   1.270   1.493   9.430 -0.1502  0.0576 -0.0238
22620W        W27020  22.865   4.601   3.391 -0.3055 -0.3547  0.1696
22621W        W27021   8.492   3.760  18.670 -0.0527  0.3006  0.1369
22622W        W27022  21.167   1.807  18.128  0.1343 -0.3872  0.5642
22623W        W27023  18.896   4.418   1.236 -0.0617  0.0005  0.0319
22624W        W27024  30.989   4.317   6.166 -0.1158 -0.0377 -0.2549
22625W        W27025   2.451   4.106   2.097  0.1892 -0.1399  0.0826
22626W        W27026  23.259   4.870  16.524 -0.1540 -0.2315 -0.2074
22627W        W27027  20.700   2.253  22.843 -0.0797  0.0289  0.3071
22628W        W27028  24.640   4.642  24.936 -0.3712  0.0053  0.0994
22629W        W27029   1.106   4.582   6.003  0.0096  0.0073 -0.1028
22630W        W27030   6.352   6.254  23.790 -0.1554 -0.1844  0.0144
22631W        W27031  21.727   7.477   2.408  0.1433 -0.1690 -0.1130
22632W        W27032  11.057   6.394   8.073  0.0450 -0.0286  0.0373
22633W        W27033  17.604   4.750   2.985 -0.0261  0.0752  0.0442
22634W        W27034  16.643   0.553  15.487  0.0950 -0.1235 -0.1190
22635W        W27035   4.416   4.435  24.633  0.0289  0.2481 -0.0639
22636W        W27036  21.994   2.269  21.363  0.2313  0.3469  0.2274
22637W        W27037  18.588   1.847  15.880  0.0337 -0.3756 -0.1896
22638W        W27038   4.262   0.805   0.672  0.1054  0.0365  0.1701
22639W        W27039   7.472   7.460   9.137 -0.1458  0.3417 -0.0898
22640W        W27040  28.644   6.427   8.959 -0.1697  0.0042  0.2462
22641W        W27041   0.689   4.956  20.834  0.2002 -0.0318 -0.2795
22642W        W27042  23.080   6.645  19.232  0.1308  0.1420  0.0405
22643W        W27043  19.546   6.725  17.603 -0.0271  0.0131 -0.2228
22644W        W27044   1.066   2.587   2.438  0.0387  0.1628 -0.0696
22645W        W27045   3.402   3.511   0.090 -0.0499 -0.0096 -0.1479
22646W        W27046  16.575   1.311  15.804  0.0686  0.0914 -0.0126
22647W        W27047  12.372   1.732   8.534  0.2728  0.3534 -0.0704
22648W        W27048  29.638   6.831  10.019  0.2263 -0.0450 -0.0970
22649W        W27049  12.935   7.763   8.217  0.0264  0.0542 -0.2996
22650W        W27050   3.761   4.483  23.678 -0.0690  0.1650  0.1548
22651W        W27051   2.467   3.951  15.618 -0.1069 -0.0743  0.1276
22652W        W27052   0.193   6.889   0.685  0.2245 -0.1149  0.1946
22653W        W27053  22.994   3.561  11.168 -0.0645  0.2879  0.0716
22654W        W27054  14.869   2.926  20.157  0.3129 -0.0848  0.2192
22655W        W27055  20.971   5.291  10.381 -0.1749 -0.0961  0.1549
22656W        W27056   4.824   3.543  20.387  0.0526 -0.0629  0.0168
22657W        W27057  27.547   1.638  24.206 -0.3221  0.1700 -0.0040
22658W        W27058   3.115   2.461  26.058 -0.1177  0.0367 -0.0643
22659W        W27059  18.666   2.250   4.193  0.1848  0.1245  0.0054
22660W        W27060  26.934   0.384   0.159  0.0054  0.0264 -0.1441
22661W        W27061  10.873   4.075   9.708 -0.0353 -0.0083  0.0366
22662W        W27062  26.975   6.500  23.007 -0.0476 -0.0686  0.1263
22663W        W27063  16.705   7.134  23.563 -0.0041  0.2255  0.5522
22664W        W27064   6.302   0.858  21.314  0.0721  0.0362  0.1569
22665W        W27065  21.565   3.414   0.644 -0.4065  0.2518  0.0297
22666W        W27066   8.617   7.335   4.440  0.2033 -0.1353 -0.2710
22667W        W27067  27.429   5.274  19.438 -0.0366  0.2433  0.2201
22668W        W27068   8.808   3.237   3.889  0.2037 -0.0592 -0.3048
22669W        W27069  10.330   7.181  22.755  0.1650 -0.3033  0.1636
22670W        W27070  16.891   2.708   6.018  0.2706  0.2466  0.1598
22671W        W27071  25.981   0.793  16.859 -0.0860  0.0070 -0.0873
22672W        W27072  18.711   6.901   9.042  0.1089 -0.2478 -0.1121
22673W        W27073   9.255   1.896   7.014 -0.0861 -0.0576  0.0639
22674W        W27074  30.883   4.262   5.057 -0.1356 -0.0268  0.1701
22675W        W27075   8.322   4.061   8.020  0.0772 -0.3919  0.1473
22676W        W27076  10.429   7.068   5.148 -0.0614  0.1953 -0.2064
22677W        W27077   7.302   1.980  17.247  0.1442  0.1749  0.0175
22678W        W27078  25.190   2.135   6.002 -0.0732  0.0510 -0.2427
22679W        W27079   3.741   3.701  17.796  0.1227  0.1856  0.1945
22680W        W27080  12.318   3.647   2.242 -0.1022  0.2398  0.0300
22681W        W27081  24.533   2.789  22.896 -0.1643 -0.2298  0.0001
22682W        W27082  15.124   4.018   4.144 -0.0159 -0.0657 -0.1457
22683W        W27083  22.984   7.747   5.622  0.0115  0.0404  0.0834
22684W        W27084  23.960   5.641  21.166  0.2345 -0.0251  0.0025
22685W        W27085  13.503   6.900  22.632  0.1760  0.1403  0.2882
22686W        W27086  25.675   0.938   1.362 -0.1660  0.1033 -0.2191
22687W        W27087  18.002   1.544  17.966 -0.0950  0.0160  0.1378
22688W        W27088  24.845   3.901  21.866  0.0141 -0.1019 -0.1640
22689W        W27089  17.847   3.765  17.132  0.1694 -0.0543  0.2000
22690W        W27090   6.363   0.067  25.433  0.1893  0.0109 -0.0744
22691W        W27091  15.597   3.087  11.569 -0.0895  0.3326  0.0489
22692W        W27092  28.927   4.552   6.787 -0.1655 -0.2259  0.3266
22693W        W27093  17.112   5.009  15.645  0.0113  0.2882 -0.1484
22694W        W27094   4.659   6.214  14.265 -0.1692  0.2901 -0.0242
22695W        W27095   0.383   6.632   6.346 -0.3321 -0.4183 -0.0740
22696W        W27096  27.175   0.793   0.315 -0.0695 -0.0427 -0.0395
22697W        W27097  29.017   2.419   2.094 -0.1753  0.1561 -0.1167
22698W        W27098  19.159   3.651  20.171  0.2693  0.1418  0.2179
22699W        W27099  30.266   0.663   5.710 -0.0806 -0.3066  0.0403
22700W        W27100  18.028   4.862   5.596 -0.0887  0.0084 -0.1661
22701W        W27101   4.406   6.759  15.274  0.0853 -0.0334  0.0772
22702W        W27102  28.837   1.630  23.417  0.2014 -0.0539 -0.5093
22703W        W27103  20.948   5.699  17.966  0.1107 -0.2327  0.3566
22704W        W27104   8.722   4.793   4.599  0.2465 -0.1207  0.1195
22705W        W27105   0.867   5.033  17.794  0.3626  0.4144 -0.1876
22706W        W27106  28.376   0.448  23.066 -0.0260 -0.0865 -0.1566
22707W        W27107   8.827   4.585   8.011  0.3181 -0.0181  0.0885
22708W        W27108  17.071   6.885   0.932 -0.1356 -0.2101 -0.1101
22709W        W27109  26.295   4.945  10.246  0.1963  0.2682 -0.1361
22710W        W27110   0.009   5.943   2.117 -0.1845  0.2229  0.2072
22711W        W27111  20.806   1.865  21.478  0.0181  0.1757 -0.3259
22712W        W27112  14.215   2.847  21.145 -0.1895 -0.2057  0.1941
22713W        W27113  18.475   6.613  19.404 -0.0623 -0.0052 -0.0770
22714W        W27114  28.523   7.575   6.311 -0.2026 -0.0106  0.1784
22715W        W27115   8.019   3.470  25.816 -0.2781 -0.4382  0.0989
22716W        W27116   6.648   7.444  22.754  0.2748 -0.1268  0.5580
22717W        W27117  16.587   3.641   3.940  0.1490 -0.0116 -0.1310
22718W        W27118  26.875   3.992   8.182 -0.1739 -0.0340 -0.0937
22719W        W27119   7.350   5.842   3.293 -0.0663 -0.1272 -0.0770
22720W        W27120  25.776   6.319  18.618  0.1484  0.2170  0.5194
22721W        W27121   4.031   4.949   7.972 -0.4735  0.2760 -0.2397
22722W        W27122  10.204   0.468  26.006  0.1516  0.2869  0.0358
22723W        W27123  23.631   1.298   3.376 -0.2750 -0.4720 -0.0997
22724W        W27124  27.150   6.087  11.139  0.1420 -0.0774 -0.0698
22725W        W27125  23.606   0.448   2.489 -0.2384  0.0793  0.1854
22726W        W27126  28.764   2.627  16.549  0.1321 -0.2128  0.0692
22727W        W27127  10.103   6.237  17.664  0.0880 -0.0678  0.1069
22728W        W27128  18.929   6.769   2.512 -0.0674 -0.2690  0.1123
22729W        W27129  15.511   7.146  23.871 -0.1450 -0.4619  0.0277
22730W        W27130  25.862   7.122   5.501  0.0552  0.0365  0.2145
22731W        W27131  20.955   4.038  17.857  0.0948  0.1412  0.0797
22732W        W27132  28.978   1.907   8.572  0.2292  0.0957 -0.0162
22733W        W27133  19.361   4.939   8.365 -0.3871 -0.2200 -0.0945
22734W        W27134   4.508   1.721  21.658 -0.0975  0.4869 -0.1245
22735W        W27135  27.162   1.460  15.449  0.0699 -0.1768  0.0252
22736W        W27136   2.865   0.756  17.247  0.0365 -0.1174  0.1369
22737W        W27137  21.414   2.725   7.718  0.0500 -0.2259 -0.2310
22738W        W27138  19.389   0.290   9.517  0.1089 -0.1003 -0.2815
22739W        W27139  12.630   0.150  20.878  0.1212  0.0910 -0.0994
22740W        W27140  23.647   1.133  17.004  0.0906  0.1469 -0.0179
22741W        W27141  16.808   5.807  21.924 -0.1943 -0.0036 -0.0834
22742W        W27142  25.972   1.282  23.645  0.0417  0.1002  0.1834
22743W        W27143  31.263   7.014   6.721 -0.0793 -0.0495 -0.2633
22744W        W27144  18.540   1.748  17.880  0.1643 -0.1662  0.1075
22745W        W27145  19.354   4.641   9.961  0.0585  0.3684 -0.0679
22746W        W27146  25.259   4.201  21.818  0.0338 -0.1240 -0.0687
22747W        W27147  19.263   4.981  19.456 -0.0029 -0.0430  0.0513
22748W        W27148   8.866   0.878  19.550 -0.1174 -0.1380  0.0484
22749W        W27149   8.508   4.300  16.321  0.0547 -0.1963  0.0353
22750W        W27150  31.294   3.104  21.519 -0.1091 -0.0375  0.0748
22751W        W27151  19.439   4.685  22.119  0.0571  0.0353  0.0235
22752W        W27152  24.085   7.641  23.806  0.3316  0.0031 -0.0636
22753W        W27153  21.470   6.845  23.256 -0.1225 -0.0923 -0.2286
22754W        W27154   8.914   1.778  24.421  0.0479 -0.1035  0.0529
22755W        W27155  20.109   7.236  22.613 -0.2954  0.0018  0.2029
22756W        W27156  10.711   5.151  25.314 -0.1716  0.0092 -0.2542
22757W        W27157   5.509   6.450  25.020 -0.0227  0.1487 -0.2180
22758W        W27158  30.184   6.276  19.729 -0.0079 -0.0226  0.2866
22759W        W27159  13.637   4.360   8.469 -0.0425  0.0044 -0.2700
22760W        W27160  13.683   3.776  17.896  0.0275 -0.2778  0.2290
22761W        W27161  15.233   4.337   5.539 -0.1792  0.1247  0.0787
22762W        W27162  17.142   0.748  11.456  0.1545  0.0237  0.1440
22763W        W27163  22.583   5.934  17.343 -0.1114 -0.4518 -0.0174
22764W        W27164   1.429   0.389   9.808 -0.0735  0.1163 -0.2560
22765W        W27165  20.085   0.809  23.451  0.0446 -0.0749  0.1309
22766W        W27166   1.305   2.905  23.941 -0.0380 -0.1763 -0.0835
22767W        W27167  10.985   3.751  10.141 -0.2238  0.0471 -0.0280
22768W        W27168  13.499   6.522   0.984 -0.1840 -0.2102 -0.0048
22769W        W27169  17.542   5.301   2.318 -0.3296  0.3683 -0.4723
22770W        W27170  29.024   6.749  25.009  0.1958 -0.2536 -0.3892
22771W        W27171  13.327   1.234  10.367 -0.0972  0.1268 -0.4245
22772W        W27172   2.616   3.790   0.692 -0.1156  0.1950  0.0825
22773W        W27173  29.946   7.657   5.707 -0.1866  0.0084 -0.0341
22774W        W27174  26.035   3.156  19.211  0.0405 -0.1253 -0.1280
22775W        W27175  16.715   2.869   8.403 -0.1188 -0.1557  0.0255
22776W        W27176   1.747   4.090  21.735 -0.3370 -0.2484  0.0490
22777W        W27177  14.784   5.584   6.432 -0.0590 -0.0227  0.4220
22778W        W27178   5.376   1.655  24.489  0.2984 -0.0024 -0.1876
22779W        W27179  27.784   6.709   3.524  0.0688  0.1444  0.4209
22780W        W27180   8.178   0.239   0.933  0.0948 -0.0949 -0.0903
22781W        W27181   1.741   0.910   5.777 -0.3594 -0.1141  0.2495
22782W        W27182  26.891   4.842  18.679 -0.0445 -0.1411 -0.1312
22783W        W27183   2.189   3.916   9.078  0.1126 -0.2241 -0.1353
22784W        W27184  21.091   3.562  24.995  0.0268 -0.4983  0.2395
22785W        W27185   0.436   0.021  22.357  0.3038 -0.0259  0.1409
22786W        W27186  22.980   3.362   7.922  0.2752 -0.0008  0.2337
22787W        W27187  13.836   6.903   2.343 -0.0838  0.0223 -0.1316
22788W        W27188   6.945   1.515  20.922 -0.2377  0.0011  0.0340
22789W        W27189  10.284   7.698  18.454  0.0600 -0.0325 -0.2661
22790W        W27190   9.255   5.022   2.400  0.1250 -0.1609 -0.0403
22791W        W27191  11.177   4.116   7.571 -0.0547 -0.1932  0.1939
22792W        W27192   2.164   3.992  18.040 -0.1168  0.0970  0.0590
22793W        W27193  23.730   2.532   8.490  0.2809  0.0919 -0.1754
22794W        W27194  31.159   7.208   2.223 -0.0284 -0.0321  0.0636
22795W        W27195  28.070   3.039   8.627 -0.1007 -0.2028  0.2364
22796W        W27196   8.936   1.718  21.059 -0.0372  0.0711 -0.2047
22797W        W27197  12.144   6.100   5.508  0.2487 -0.0668  0.1548
22798W        W27198  27.078   5.397   1.210 -0.0186  0.1187 -0.2864
22799W        W27199  24.021   5.427   4.515 -0.1718 -0.2109 -0.0231
22800W        W27200  15.951   0.704  23.141  0.6078  0.0246  0.2578
22801W        W27201  20.733   2.401   7.568  0.0222  0.1107 -0.0516
22802W        W27202  18.660   3.837   0.277 -0.1682  0.1407 -0.2081
22803W        W27203  19.503   3.358   1.921 -0.0760  0.3799  0.1112
22804W        W27204  14.700   6.621  18.593  0.0390  0.1109  0.2618
22805W        W27205  28.546   3.868  19.430  0.1014 -0.2660 -0.1883
22806W        W27206   9.862   4.226  25.314 -0.1819  0.0680 -0.2920
22807W        W27207  21.666   5.445   8.462  0.0313 -0.1950 -0.2072
22808W        W27208  24.765   6.091   5.171  0.1081 -0.2709 -0.2337
22809W        W27209   8.975   1.843  25.559 -0.0276  0.0175 -0.0215
22810W        W27210   3.437   4.051  19.536  0.2773  0.0284 -0.0679
22811W        W27211  23.995   6.998   1.432 -0.0989  0.2157  0.1574
22812W        W27212  19.527   7.493  18.792 -0.1223 -0.1591 -0.2171
22813W        W27213  10.737   4.791  23.897 -0.0640  0.1956 -0.0664
22814W        W27214   3.036   6.521  15.475  0.2189  0.4528  0.0393
22815W        W27215   9.413   5.980  25.555 -0.0657  0.0535 -0.0586
22816W        W27216  29.698   2.695   8.043 -0.0289  0.0476  0.2279
22817W        W27217  18.622   5.645   6.876 -0.2539 -0.2008  0.3093
22818W        W27218  25.150   3.354   9.515 -0.1518 -0.1954 -0.2492
22819W        W27219   4.915   3.943  14.639  0.0347  0.1301  0.0356
22820W        W27220  15.191   3.552   4.217  0.1568 -0.0333  0.2973
22821W        W27221  16.482   7.813  10.041 -0.3652 -0.1971  0.0322
22822W        W27222  29.177   4.329   4.195  0.1811 -0.0136 -0.4097
22823W        W27223  12.106   1.499   5.138 -0.0157 -0.1188 -0.0769
22824W        W27224  12.409   6.549  16.031 -0.3781  0.0835 -0.0697
22825W        W27225  13.322   3.270   3.237  0.1334  0.1563 -0.1239
22826W        W27226   0.741   4.291   6.872 -0.0079  0.2735 -0.3421
22827W        W27227   4.999   5.017  23.970  0.2989  0.0934 -0.2017
22828W        W27228  24.126   1.358   2.667  0.0298 -0.1231  0.2824
22829W        W27229  14.611   7.150   2.192  0.0269  0.0627  0.2138
22830W        W27230  18.666   5.067  22.062  0.0066 -0.2489  0.2311
22831W        W27231  31.077   1.773   3.623 -0.2364  0.0410 -0.1324
22832W        W27232   5.847   3.948   9.183 -0.2718  0.1087  0.1616
22833W        W27233   1.290   2.929  21.863  0.1287  0.0862  0.1349
22834W        W27234  21.400   6.431  24.784  0.1222 -0.3218 -0.0444
22835W        W27235  10.840   2.741  17.342 -0.0314  0.0933 -0.3314
22836W        W27236  16.854   1.454   2.950  0.0305  0.1364  0.1220
22837W        W27237  30.927   7.575   0.744  0.1620 -0.1203  0.1005
22838W        W27238  25.010   2.465  22.553  0.1125  0.0568  0.0865
22839W        W27239  31.439   3.402   0.339 -0.1866  0.1040  0.0787
22840W        W27240  21.740   3.699  21.125  0.3039 -0.1083  0.1137
22841W        W27241  27.862   4.080  11.028  0.0898  0.4155 -0.1470
22842W        W27242  13.445   6.680   8.317 -0.0833  0.3137  0.1623
22843W        W27243  29.445   7.488   6.490 -0.0391  0.1320 -0.0705
22844W        W27244   9.251   2.401  17.931 -0.2301 -0.0921 -0.0267
22845W        W27245  22.297   2.098   3.436  0.2718 -0.3046 -0.1119
22846W        W27246  14.528   1.427   9.930  0.0496 -0.1602  0.1541
22847W        W27247   1.816   4.659  18.509  0.0659  0.0790 -0.0968
22848W        W27248  22.723   0.140  10.031 -0.1540  0.1167  0.1167
22849W        W27249   9.008   4.909   6.683  0.1489  0.0372 -0.0537
22850W        W27250  28.799   7.779   4.734 -0.0483 -0.0093  0.0780
22851W        W27251  26.759   0.007  26.008 -0.2254  0.1342  0.1594
22852W        W27252   5.700   5.844   6.982  0.3016  0.1935 -0.3392
22853W        W27253   7.533   2.048   1.681 -0.0927 -0.3162 -0.2760
22854W        W27254  29.265   4.643   8.981  0.0585  0.4979 -0.2292
22855W        W27255  29.025   4.615  20.161  0.1428  0.4837 -0.0897
22856W        W27256  16.149   6.593  19.721 -0.0939  0.1411  0.3614
22857W        W27257   7.082   6.538  25.707 -0.1066  0.1120  0.0972
22858W        W27258   0.618   7.542  20.289  0.0822 -0.0388 -0.0238
22859W        W27259   4.206   7.453  24.276  0.1018  0.1758  0.5821
22860W        W27260   7.753   7.450  22.170 -0.2693 -0.0682 -0.0796
22861W        W27261  15.430   3.087  21.739 -0.1866 -0.0330 -0.0791
22862W        W27262   7.825   0.441   7.785  0.1953 -0.0309 -0.0170
22863W        W27263  15.752   4.016  22.868  0.3398  0.0169 -0.1769
22864W        W27264  15.636   5.728  25.349  0.1457  0.2862  0.2706
22865W        W27265   3.496   0.314  16.123 -0.1723 -0.1437 -0.0487
22866W        W27266  23.176   2.958   2.204 -0.1611  0.0545 -0.2495
22867W        W27267   2.389   4.889   9.681 -0.0908 -0.2647 -0.1413
22868W        W27268   3.730   5.978   3.050  0.0009 -0.1557  0.0594
22869W        W27269  12.787   4.819   7.947 -0.1548 -0.2183  0.1494
22870W        W27270  20.824   4.501  21.618  0.0164 -0.3318  0.2339
22871W        W27271  21.018   4.116   0.802  0.3879  0.1494 -0.0536
22872W        W27272  25.870   3.634  24.027  0.3903  0.1725  0.0206
22873W        W27273   5.389   5.896   5.982 -0.0140 -0.2587 -0.0617
22874W        W27274  15.376   1.740  11.285 -0.0694  0.2345  0.0167
22875W        W27275  15.977   1.487  16.782 -0.2559 -0.1252 -0.1581
22876W        W27276   9.152   0.058  18.884 -0.0552  0.2617  0.2199
22877W        W27277  16.657   6.045  18.449 -0.1412 -0.0323 -0.2305
22878W        W27278   3.342   2.942  19.811  0.1749  0.0209 -0.4527
22879W        W27279  29.461   2.286  17.988  0.2712 -0.0110  0.0248
22880W        W27280  20.578   4.060   9.719  0.3337 -0.1944 -0.2731
22881W        W27281  26.598   2.487   6.327  0.2752 -0.1004  0.2459
22882W        W27282  14.022   2.037  22.866 -0.1120  0.0907 -0.3102
22883W        W27283   4.798   6.289  22.452 -0.0584  0.0471  0.0030
22884W        W27284  24.747   7.571  25.811  0.0174 -0.0307 -0.0641
22885W        W27285  27.005   3.837  25.833 -0.4649 -0.0146 -0.1299
22886W        W27286   2.769   1.793  25.604 -0.0896  0.1163  0.2872
22887W        W27287  27.284   4.497   8.611  0.2902  0.2131 -0.2734
22888W        W27288   5.674   4.077  23.952  0.0447 -0.2333 -0.0841
22889W        W27289  29.341   6.452   8.303  0.0048 -0.0781  0.3262
22890W        W27290   4.476   1.918  23.600 -0.1617 -0.2491  0.1421
22891W        W27291  19.560   7.062  19.919  0.1798  0.2995  0.0522
22892W        W27292  19.265   2.899  16.204 -0.1349  0.4344  0.0648
22893W        W27293  29.294   7.000  14.194  0.0866  0.0712  0.1025
22894W        W27294   2.022   1.041  14.998 -0.0808 -0.0137  0.0611
22895W        W27295   7.894   3.649   2.062  0.0648 -0.4122 -0.1862
22896W        W27296  19.643   4.491   1.161 -0.1731 -0.2719  0.0699
22897W        W27297  16.257   6.209  18.805 -0.2142 -0.0727  0.0777
22898W        W27298  12.414   6.380  11.313 -0.2200  0.0849  0.0281
22899W        W27299   1.001   6.477   6.495  0.2471  0.0110  0.1863
22900W        W27300  19.463   5.427  15.897 -0.0446  0.0161 -0.2875
22901W        W27301  20.555   4.296   1.978  0.2939 -0.0925 -0.3144
22902W        W27302  19.624   0.877   3.070 -0.1444 -0.0795  0.3182
22903W        W27303  10.437   1.786   2.055  0.2000  0.1444 -0.2483
22904W        W27304  24.838   2.354   8.252 -0.1184  0.1770  0.0680
22905W        W27305   9.574   5.766  24.070 -0.0012 -0.0924 -0.0440
22906W        W27306  26.649   1.599  11.355  0.1771  0.2599 -0.1035
22907W        W27307  26.114   5.230  15.591 -0.2334  0.0247  0.1084
22908W        W27308  30.474   4.359   9.546 -0.1240  0.0671  0.1981
22909W        W27309  18.993   6.807  19.736  0.2901  0.2562  0.2522
22910W        W27310   1.540   5.634  22.143  0.1920  0.4911  0.0252
22911W        W27311   9.615   5.794  10.017  0.0466 -0.0275 -0.2361
22912W        W27312  10.132   1.407   6.317  0.0954 -0.0854 -0.1431
22913W        W27313   7.296   2.906  10.329 -0.3053 -0.0855  0.0184
22914W        W27314   0.199   1.126   3.625 -0.1689 -0.0929  0.1039
22915W        W27315  25.146   6.307  21.455 -0.1295  0.1092  0.1866
22916W        W27316  19.289   1.217  16.246  0.0196  0.2781 -0.0440
22917W        W27317   0.212   5.240   8.223  0.3528  0.0631  0.0484
22918W        W27318   0.437   7.019   8.799  0.3104 -0.1985 -0.1410
22919W        W27319  18.560   4.253  20.926  0.0225  0.2070 -0.2357
22920W        W27320  14.638   4.244  21.253 -0.0514  0.2443  0.0773
22921W        W27321  28.701   7.354  19.285  0.3319 -0.0529 -0.0994
22922W        W27322  15.503   4.127  17.338  0.1576 -0.0067  0.0612
22923W        W27323  23.507   3.542  16.003  0.1063  0.1475  0.0080
22924W        W27324  20.907   3.151   6.222 -0.0250 -0.2244 -0.0399
22925W        W27325  25.370   3.723  21.939  0.1670  0.0880 -0.2468
22926W        W27326  19.430   2.874  22.155  0.1320  0.0387  0.0027
22927W        W27327   2.527   6.395  23.120 -0.1938  0.0213 -0.0841
22928W        W27328  11.797   0.132   5.309 -0.0185 -0.0197 -0.3047
22929W        W27329   4.241   1.879  16.800  0.4426 -0.0489  0.0279
22930W        W27330  22.045   1.294  16.821  0.1497  0.1097 -0.1642
22931W        W27331   1.310   1.558   7.391 -0.1770  0.1083 -0.1833
22932W        W27332   7.219   0.899   9.517 -0.2278 -0.2559  0.2843
22933W        W27333   0.762   0.653  18.693 -0.0345 -0.0543 -0.1199
22934W        W27334  25.136   1.862   0.001  0.0330 -0.0227 -0.2300
22935W        W27335  22.499   0.108  18.443 -0.2134  0.2761 -0.0449
22936W        W27336  11.378   5.558  22.057  0.0006 -0.1469  0.3797
22937W        W27337  31.073   1.145   4.884  0.1098 -0.0537  0.0213
22938W        W27338  23.264   1.980   7.795  0.0787  0.0191  0.0305
22939W        W27339  18.300   5.894  19.043  0.0176  0.0858  0.1273
22940W        W27340  29.476   2.552   2.086  0.1884 -0.2113 -0.1354
22941W        W27341  29.222   7.025   9.792 -0.1033 -0.3367  0.1956
22942W        W27342  19.802   2.194  21.540 -0.2316 -0.2642  0.1931
22943W        W27343   3.131   4.232  23.153  0.1179  0.1837  0.2049
22944W        W27344   1.363   6.450   5.317 -0.0938  0.0885 -0.1700
22945W        W27345  26.215   3.556   2.031  0.0696 -0.0697  0.0934
22946W        W27346   5.387   2.805   4.787  0.0395 -0.1340  0.1035
22947W        W27347   5.298   0.695  22.153 -0.0403  0.0581 -0.0976
22948W        W27348  18.683   5.855  24.523  0.2725  0.0955  0.1419
22949W        W27349  30.231   5.040   9.116 -0.0507  0.2466 -0.0138
22950W        W27350  15.136   4.249   2.890 -0.2373 -0.2323  0.0710
22951W        W27351  15.732   5.390  10.819  0.1418  0.3432  0.0120
22952W        W27352   3.022   2.367   0.839  0.5056  0.1098 -0.1468
22953W        W27353  10.749   7.477  18.591  0.2727 -0.1016  0.1462
22954W        W27354   1.170   7.057   4.699  0.0584 -0.2542 -0.0593
22955W        W27355   8.204   7.360  21.220  0.2747 -0.0183 -0.0882
22956W        W27356  29.056   1.826   4.487  0.1644  0.0693  0.1895
22957W        W27357   4.379   1.353  25.140  0.0887  0.0634 -0.0440
22958W        W27358   3.660   7.601   6.367 -0.2024  0.0947 -0.1027
22959W        W27359  12.340   1.850   2.978 -0.1124  0.1844  0.3809
22960W        W27360  28.010   3.485  22.969  0.4216 -0.2952  0.0791
22961W        W27361  22.543   0.397  25.982  0.1871  0.2363 -0.1126
22962W        W27362  15.899   4.762  15.264  0.1912  0.3595 -0.1705
22963W        W27363  19.666   3.758   4.524 -0.0915 -0.1528  0.3300
22964W        W27364   7.824   3.110   8.376  0.0518 -0.2137 -0.1644
22965W        W27365  21.155   7.636  21.780 -0.0311  0.0405  0.0572
22966W        W27366   8.755   2.470  20.098 -0.0910  0.0540 -0.0360
22967W        W27367  21.617   6.517   0.884  0.1115 -0.1993 -0.0171
22968W        W27368  24.279   4.583  16.634  0.1139 -0.1880  0.0976
22969W        W27369  16.974   4.587   3.565  0.0666  0.1782 -0.2012
22970W        W27370  19.409   7.789   8.503 -0.0406  0.2140  0.3230
22971W        W27371  19.971   2.568  23.726 -0.1978 -0.0115  0.1094
22972W        W27372   5.379   2.599  14.854 -0.4398 -0.1335 -0.1306
22973W        W27373   9.566   2.572   5.432  0.0451  0.2763 -0.0232
22974W        W27374   3.190   5.404  19.679 -0.0024  0.2605 -0.1109
22975W        W27375  21.404   6.179   8.446  0.0925 -0.1167 -0.0676
22976W        W27376  14.258   1.348   0.544  0.1021 -0.0081  0.3992
22977W        W27377  17.241   3.409  23.802  0.1343  0.1403  0.2043
22978W        W27378  19.522   7.716   5.948  0.3492 -0.1997  0.0082
22979W        W27379   3.491   1.678   9.105  0.1150 -0.0775 -0.0362
22980W        W27380  13.171   7.757  15.977  0.0422 -0.1222 -0.0714
22981W        W27381  17.132   0.676   3.346 -0.1305  0.3992  0.1642
22982W        W27382   7.799   6.183   2.380 -0.0104 -0.0472 -0.0817
22983W        W27383  27.398   2.703  19.655  0.1038 -0.0892 -0.1368
22984W        W27384  22.766   3.792  20.445  0.1432 -0.1880 -0.1083
22985W        W27385  28.713   1.803  20.342  0.3667  0.1597  0.2069
22986W        W27386  12.133   5.558  16.478  0.0927 -0.2569 -0.0523
22987W        W27387  15.000   2.333   4.651 -0.2068  0.0355 -0.1911
22988W        W27388  16.008   1.716  19.591  0.3096 -0.1481 -0.2115
22989W        W27389  11.708   2.066  21.399  0.0400  0.3752 -0.1234
22990W        W27390  26.769   4.170  15.897 -0.0368 -0.1594 -0.2535
22991W        W27391  12.548   6.179   3.800  0.3578 -0.2196  0.0719
22992W        W27392  15.234   5.751  18.474  0.1620 -0.0402  0.3695
22993W        W27393  12.855   2.155  19.702  0.0220 -0.1548 -0.2419
22994W        W27394   1.213   1.155   1.848  0.1724  0.0478 -0.2452
22995W        W27395  30.470   0.189   0.321 -0.1871 -0.0048  0.2822
22996W        W27396  15.891   0.339   3.912  0.0525 -0.0583 -0.2805
22997W        W27397   2.194   2.552   3.456  0.0981  0.1133  0.0779
22998W        W27398  24.312   1.634  18.952 -0.3730  0.2388  0.1272
22999W        W27399   0.002   3.255   1.449 -0.0461 -0.1955 -0.3042
23000W        W27400   4.215   5.558   6.007 -0.0978  0.2269  0.0728
23001W        W27401   3.483   4.461   5.528 -0.0763 -0.1059 -0.0422
23002W        W27402   9.121   2.535   1.248  0.2098 -0.1925 -0.0591
23003W        W27403   4.830   7.758   9.316 -0.0778  0.1886 -0.1654
23004W        W27404  19.643   4.396  18.289  0.1092 -0.1352  0.0781
23005W        W27405  12.843   2.346  20.237  0.1065 -0.0890  0.1014
23006W        W27406  20.612   3.748   1.025 -0.1454  0.2643  0.0634
23007W        W27407   5.608   1.111  21.245 -0.2615 -0.0279  0.0014
23008W        W27408  12.895   0.003   1.816 -0.2444 -0.2734 -0.2546
23009W        W27409  28.046   4.589  10.247 -0.1467  0.2466 -0.3272
23010W        W27410   0.645   1.975  17.102  0.2559  0.5488 -0.0657
23011W        W27411   1.576   1.085  25.385 -0.0062  0.1153  0.1696
23012W        W27412  22.258   0.780  21.396  0.1426 -0.1343 -0.2702
23013W        W27413   1.546   7.343  19.052  0.1105  0.0828  0.0529
23014W        W27414   8.115   3.377  18.614  0.2329  0.0960 -0.2128
23015W        W27415   3.154   0.360   1.335  0.0649  0.2764 -0.0606
23016W        W27416  17.010   1.113   4.444  0.0127  0.3030  0.0143
23017W        W27417  26.410   1.285   5.621 -0.3468  0.0845  0.0139
23018W        W27418   3.667   6.062  23.373  0.1001 -0.2348  0.0756
23019W        W27419   9.287   5.729   4.077  0.0152  0.0394 -0.1003
23020W        W27420  31.418   6.733   4.398 -0.1028  0.0554 -0.4142
23021W        W27421  17.820   2.146  16.131 -0.1260 -0.1701  0.1363
23022W        W27422   4.075   0.490  14.337  0.1277  0.0015 -0.1929
23023W        W27423   5.350   0.584  25.352 -0.0373  0.1878 -0.0399
23024W        W27424  20.340   3.531   8.454  0.1317  0.3246  0.1016
23025W        W27425  15.208   1.769  25.366  0.0343  0.0288 -0.0239
23026W        W27426   9.059   7.332  24.224 -0.2060 -0.2372  0.0289
23027W        W27427  24.752   7.299  25.392  0.3290 -0.2202  0.0539
23028W        W27428  15.623   1.590  15.849  0.2140 -0.0649 -0.1685
23029W        W27429  16.010   1.959  22.808  0.3008  0.2555  0.1941
23030W        W27430  18.154   3.610   3.222  0.3285  0.1745 -0.2903
23031W        W27431   5.902   0.077  21.861  0.1102 -0.2396 -0.1362
23032W        W27432   3.215   0.547  19.722 -0.1776  0.0099  0.2035
23033W        W27433  21.219   4.598  19.467 -0.1989 -0.1268  0.3218
23034W        W27434  17.651   4.259  10.885 -0.0093 -0.4111 -0.0779
23035W        W27435  13.484   6.569  24.913  0.0485 -0.2070  0.0201
23036W        W27436  25.531   1.769  10.569 -0.0771 -0.1577 -0.3465
23037W        W27437   6.586   1.548   8.379  0.0875  0.0645  0.0439
23038W        W27438   7.149   2.638   5.236 -0.0615 -0.1727  0.2424
23039W        W27439  29.214   7.430   9.482 -0.0683 -0.1134  0.2523
23040W        W27440  16.789   0.824  23.956  0.4458 -0.1238 -0.0452
23041W        W27441   2.409   1.841  15.088  0.0748 -0.0425 -0.0071
23042W        W27442  28.491   2.493   8.801 -0.0741  0.3058  0.2197
23043W        W27443  18.322   3.539   8.816 -0.0768  0.0893  0.1780
23044W        W27444  24.697   6.773  18.779  0.0179  0.1251 -0.2500
23045W        W27445  15.876   7.737   8.241 -0.1940 -0.2165 -0.0431
23046W        W27446   0.920   7.363  20.670 -0.1517  0.1533  0.0419
23047W        W27447  14.315   4.615  17.650  0.1660 -0.2445 -0.2030
23048W        W27448  19.707   4.867   6.115  0.1247 -0.0215 -0.2982
23049W        W27449  23.988   5.342  11.087  0.2187 -0.1834 -0.0731
23050W        W27450  17.043   2.224  23.190  0.2267 -0.0085 -0.2513
23051W        W27451  13.824   1.703   2.896  0.0514  0.0598  0.0253
23052W        W27452   9.904   3.470  18.419 -0.0645 -0.0066 -0.1245
23053W        W27453  26.867   0.273  15.936  0.0063  0.2436  0.1114
23054W        W27454  11.410   1.005  10.718  0.1351 -0.4024  0.2535
23055W        W27455  22.766   1.173   3.101  0.2096 -0.0889  0.1194
23056W        W27456  16.101   2.793  23.409 -0.0076  0.1951  0.3098
23057W        W27457  19.653   4.959  19.126  0.0039  0.2846 -0.1862
23058W        W27458  15.937   5.396  22.869 -0.3461 -0.3686 -0.0358
23059W        W27459   8.126   1.852  22.505  0.1125 -0.3068 -0.2338
23060W        W27460   3.801   6.966  18.761  0.1455  0.0089  0.2719
23061W        W27461   6.482   7.036  14.405 -0.3052  0.1398 -0.0213
23062W        W27462   8.512   3.070   4.411  0.0814  0.0147  0.2537
23063W        W27463  30.484   3.658   7.896  0.0262  0.1882 -0.0403
23064W        W27464  17.707   4.642   4.549 -0.0848 -0.1931  0.0270
23065W        W27465   1.446   5.595   7.178  0.0662 -0.1097  0.1231
23066W        W27466  19.213   2.023   7.365  0.1528 -0.0924 -0.2294
23067W        W27467  16.206   4.246  19.870  0.0541  0.1062  0.0256
23068W        W27468  19.383   0.356  18.066 -0.1706 -0.2030  0.2748
23069W        W27469  27.772   4.332  19.610 -0.1809  0.0919  0.0323
23070W        W27470  24.970   3.220  25.159  0.2542  0.2586  0.4614
23071W        W27471  12.107   4.303   6.094  0.0049 -0.1349  0.1985
23072W        W27472  26.230   7.655  18.999 -0.3417 -0.1924 -0.1509
23073W        W27473   0.425   2.996   1.735  0.0010  0.1427  0.2260
23074W        W27474  24.646   1.908   5.371  0.1403  0.0200 -0.2902
23075W        W27475  23.266   3.014   0.764  0.1675  0.3844  0.2140
23076W        W27476   9.251   0.917  22.576 -0.0689 -0.2118 -0.1084
23077W        W27477   8.314   0.983   0.881  0.1486 -0.0390 -0.0264
23078W        W27478   0.522   5.784   4.809  0.1283  0.3589  0.3208
23079W        W27479  15.001   4.800  10.314  0.0532  0.0724 -0.2153
23080W        W27480   1.643   2.344  24.913  0.0112  0.2579 -0.1706
23081W        W27481   6.593   1.974   4.374  0.0147 -0.1267 -0.0567
23082W        W27482  30.078   7.307   4.864  0.0085 -0.3408  0.1417
23083W        W27483   4.457   1.218   2.499  0.2444  0.2192 -0.2432
23084W        W27484   5.429   1.049  16.028 -0.1047 -0.0121 -0.1058
23085W        W27485  21.864   1.106  15.801  0.1471  0.1301  0.1681
23086W        W27486   9.985   4.496   6.420  0.0215 -0.0450  0.2372
23087W        W27487  12.636   5.224   1.704 -0.0665 -0.3527 -0.0044
23088W        W27488  25.346   0.075   4.323 -0.1398 -0.0135  0.0714
23089W        W27489  14.381   3.935   5.160  0.0163  0.4959 -0.1148
23090W        W27490  30.952   6.798  10.435  0.2928  0.4621  0.1142
23091W        W27491   0.510   6.457  25.867  0.0091 -0.2063  0.0579
23092W        W27492  23.167   3.592  23.903  0.0702 -0.1061  0.3717
23093W        W27493  29.208   4.546   7.251 -0.1445 -0.1146  0.0678
23094W        W27494  12.273   2.054  22.413 -0.1019 -0.0264 -0.1694
23095W        W27495  23.433   0.698  20.478 -0.0512  0.1660  0.0273
23096W        W27496  24.147   2.470  17.246  0.0213 -0.0187  0.2012
23097W        W27497   1.163   2.762   0.324 -0.1815 -0.0335 -0.1870
23098W        W27498   2.709   5.373  25.919  0.3740  0.4316  0.2336
23099W        W27499  17.556   5.999   9.964 -0.1991  0.2062 -0.0876
23100W        W27500  26.434   5.744   9.842 -0.3579 -0.0058 -0.2509
23101W        W27501  27.271   3.009  22.877 -0.1397 -0.2574 -0.1499
23102W        W27502   6.004   3.182   5.270 -0.0523  0.0217 -0.1306
23103W        W27503  29.024   4.443   0.854  0.0151 -0.3227  0.0778
23104W        W27504   6.317   5.463  26.042 -0.2122 -0.2471  0.1433
23105W        W27505  27.089   2.893   4.098  0.0063 -0.1017  0.1933
23106W        W27506  27.107   4.768   5.573  0.0587 -0.1586  0.1098
23107W        W27507  28.119   7.111   3.698  0.1784  0.0656 -0.0879
23108W        W27508   3.125   2.369   1.590  0.0212 -0.1324  0.2153
23109W        W27509  25.439   2.947   0.363 -0.0866 -0.0823  0.4616
23110W        W27510  23.103   7.738   3.165  0.1713  0.0580 -0.1965
23111W        W27511   5.837   5.809  24.317 -0.1400  0.0341 -0.1066
23112W        W27512  26.936   4.900   4.634 -0.0744  0.0531 -0.0160
23113W        W27513  29.533   6.532   7.457  0.0016 -0.1101 -0.0389
23114W        W27514  13.531   5.709  18.429 -0.0070  0.1036 -0.3476
23115W        W27515  29.477   1.450  22.987 -0.1761  0.2189 -0.0546
23116W        W27516  28.574   7.411   5.027  0.2245 -0.1343  0.0230
23117W        W27517  23.603   2.085   9.770 -0.1626  0.0412 -0.0002
23118W        W27518  29.775   3.635  22.717 -0.2539  0.2450  0.0948
23119W        W27519   2.352   4.413  20.171  0.0303  0.0861  0.0190
23120W        W27520  16.080   0.075  18.086  0.0616  0.1086 -0.1661
23121W        W27521  19.812   2.585  19.060  0.0015 -0.3561 -0.1888
23122W        W27522  16.729   4.935   0.468 -0.2374  0.1438 -0.2139
23123W        W27523  17.233   1.093  25.655 -0.0381  0.3626 -0.0167
23124W        W27524   6.581   0.982   0.825 -0.1607  0.2614  0.0334
23125W        W27525  13.278   3.605  22.300 -0.0290  0.0250  0.2673
23126W        W27526  13.798   4.219   2.669 -0.0966 -0.1752  0.0931
23127W        W27527   9.097   0.890   0.497 -0.1483  0.3654 -0.1796
23128W        W27528  12.966   1.969  17.017  0.0103 -0.1600  0.0427
23129W        W27529  23.115   5.749  20.152  0.0907 -0.4647 -0.1698
23130W        W27530   4.250   6.295   2.335  0.0428  0.0934  0.1427
23131W        W27531  26.699   0.766  10.820 -0.1279  0.0479  0.0597
23132W        W27532   7.101   2.944   4.028 -0.1663  0.0426 -0.0158
23133W        W27533  10.171   2.787  22.521  0.0351  0.0251 -0.0267
23134W        W27534  26.478   4.949  22.403  0.1297 -0.1167  0.3122
23135W        W27535  20.644   5.885   2.666  0.0544 -0.1631 -0.1712
23136W        W27536  29.263   3.075   9.929 -0.3249 -0.1594 -0.0749
23137W        W27537  29.418   0.075   9.260  0.1717 -0.1680  0.1275
23138W        W27538  22.930   2.254   6.200 -0.1981  0.0933  0.0480
23139W        W27539  16.739   2.644  25.778  0.0741  0.1561  0.0257
23140W        W27540   3.574   4.240  17.704 -0.0720 -0.2351  0.0071
23141W        W27541  19.681   7.423  10.131 -0.1625  0.1471  0.2607
23142W        W27542   1.169   0.933  20.790  0.2031  0.1873  0.0162
23143W        W27543   8.769   3.078   6.022  0.0334 -0.0006  0.1464
23144W        W27544   9.287   0.596  25.592  0.1082 -0.1608  0.4607
23145W        W27545  28.273   2.337   9.259 -0.0963 -0.0962  0.2095
23146W        W27546   5.460   7.278  19.872  0.1461  0.0139 -0.1262
23147W        W27547   8.121   4.976  25.472  0.1267 -0.0927 -0.0109
23148W        W27548  31.287   2.093  21.568 -0.1580 -0.0514  0.1705
23149W        W27549  20.146   4.773   7.166 -0.0678  0.3508 -0.0424
23150W        W27550   1.655   2.871   5.698 -0.1377 -0.2566  0.0279
23151W        W27551  10.911   7.560   1.086  0.2264  0.0060  0.2110
23152W        W27552  13.617   5.523  17.763  0.0279 -0.0771  0.0733
23153W        W27553  25.926   0.198  22.003 -0.0924  0.0283 -0.2558
23154W        W27554  24.235   5.065  10.135  0.0018  0.3238 -0.2125
23155W        W27555  19.054   1.517  24.754 -0.1907  0.1825  0.2439
23156W        W27556  21.955   0.874   1.944 -0.3457  0.2832  0.1122
23157W        W27557  19.381   1.618   4.646  0.0571  0.1270 -0.5960
23158W        W27558  21.938   1.001   4.867 -0.3019  0.2854  0.3079
23159W        W27559   8.349   5.125   1.097  0.1641  0.1378 -0.0437
23160W        W27560  11.224   4.257   2.549 -0.0122 -0.3512  0.0954
23161W        W27561   3.530   7.425   8.045  0.0441  0.2099  0.0181
23162W        W27562  30.885   4.285   1.350 -0.2422  0.1810 -0.0400
23163W        W27563  24.017   5.938  16.933 -0.1893 -0.1127  0.0359
23164W        W27564  20.664   5.686  10.862  0.1226  0.1438 -0.0429
23165W        W27565  27.826   0.426  16.620 -0.0149 -0.0482  0.1868
23166W        W27566  28.090   3.601  22.415  0.0024 -0.0066 -0.3769
23167W        W27567  12.743   7.646  19.541 -0.0309 -0.0855  0.1449
23168W        W27568  16.423   6.530  25.811 -0.2457  0.2399  0.1068
23169W        W27569   0.017   0.601   6.043 -0.1827 -0.0051  0.5055
23170W        W27570   1.545   3.870   6.792  0.3456  0.1686 -0.1688
23171W        W27571  18.280   2.308  16.241 -0.0277  0.0873 -0.1447
23172W        W27572  29.294   2.433   1.069 -0.3422 -0.0372 -0.1425
23173W        W27573  19.802   1.897   2.735  0.3404 -0.0220 -0.2564
23174W        W27574  10.086   1.949  25.780  0.0709  0.2027  0.2226
23175W        W27575  23.066   4.084  18.128 -0.0763  0.1372 -0.0454
23176W        W27576  10.060   6.610   1.850  0.1049 -0.0708  0.0188
23177W        W27577  30.146   2.146   7.550 -0.0394  0.0900 -0.1980
23178W        W27578  10.459   2.308  10.931 -0.1901  0.2632 -0.1592
23179W        W27579  22.798   5.365   5.678 -0.0852  0.1005  0.0109
23180W        W27580  13.528   2.534  25.290  0.3432  0.0295 -0.0070
23181W        W27581  10.134   4.956   1.804  0.0801  0.1498  0.1581
23182W        W27582  18.132   1.715   5.434 -0.0970 -0.2632 -0.1255
23183W        W27583  30.413   3.998   7.586  0.2035  0.0321  0.3171
23184W        W27584  24.869   3.456  22.963 -0.0134  0.0029  0.3045
23185W        W27585  11.212   1.943  17.337  0.0697  0.1078 -0.1796
23186W        W27586  20.962   4.569   1.802  0.0368 -0.1369  0.0787
23187W        W27587  22.699   5.702  15.984  0.0215  0.0827  0.1712
23188W        W27588   2.305   1.898  25.408 -0.2179 -0.2311  0.2869
23189W        W27589  12.034   2.116   1.544 -0.0976 -0.0408  0.0484
23190W        W27590   7.017   6.470   6.274  0.2218 -0.0947  0.2228
23191W        W27591  13.119   7.745   2.262  0.0737 -0.1385  0.0091
23192W        W27592  28.484   5.013   5.229 -0.2196 -0.1170 -0.2351
23193W        W27593  18.960   1.067  17.087  0.1317  0.0878 -0.0196
23194W        W27594   9.161   6.802   6.897 -0.2137 -0.2212  0.1265
23195W        W27595  31.053   4.869  24.993 -0.2009  0.1902 -0.2135
23196W        W27596  11.009   2.594  25.553 -0.0660 -0.0073 -0.0384
23197W        W27597  14.854   6.456  22.715 -0.0375  0.2791  0.0950
23198W        W27598   8.131   7.799  20.511  0.2485 -0.1446 -0.3196
23199W        W27599  27.460   4.776  19.216  0.1438 -0.1681  0.2061
23200W        W27600  12.267   3.968  17.105 -0.3305 -0.0880  0.1991
23201W        W27601   6.391   1.111   7.250 -0.0107  0.2458 -0.0260
23202W        W27602   0.267   3.631  25.522  0.2291 -0.1236  0.1259
23203W        W27603  25.206   5.568  23.258  0.0100 -0.2274 -0.1720
23204W        W27604   9.223   0.236  11.354 -0.1057 -0.0021  0.3246
23205W        W27605  12.437   7.605  20.600 -0.1053  0.1810 -0.1772
23206W        W27606  20.843   3.433  10.131 -0.1324 -0.1985  0.2237
23207W        W27607  10.443   0.111  15.679  0.0128 -0.0094 -0.0451
23208W        W27608  25.013   0.854  10.823  0.0081 -0.0415 -0.1115
23209W        W27609  23.754   2.102  19.442  0.0000 -0.0203 -0.0357
23210W        W27610  26.031   7.345  22.636  0.2631 -0.3855 -0.2413
23211W        W27611  18.643   3.634  18.753  0.3542  0.1204  0.0835
23212W        W27612  29.757   1.485   5.388 -0.1292  0.0204  0.0456
23213W        W27613  15.709   5.391  20.249  0.0370  0.0326  0.0688
23214W        W27614   8.665   2.640   2.727 -0.0773 -0.1637  0.1585
23215W        W27615  30.890   6.598  14.188 -0.0680 -0.0279  0.1027
23216W        W27616  23.691   7.449  16.644 -0.1547 -0.2760 -0.4031
23217W        W27617   4.225   1.967  15.833  0.1361  0.1847 -0.1113
23218W        W27618  17.198   3.000  23.474 -0.0291  0.0793 -0.0822
23219W        W27619  19.572   1.404  24.881 -0.2654  0.0339  0.2583
23220W        W27620   6.742   0.828   2.839 -0.0456 -0.0339 -0.0529
23221W        W27621   7.853   5.697  16.291  0.1788 -0.2794 -0.0252
23222W        W27622  15.631   5.728  18.169 -0.1607  0.3206  0.0225
23223W        W27623  16.381   2.113   9.329 -0.1069  0.0882  0.1700
23224W        W27624  12.254   3.092   7.113  0.1322 -0.0908 -0.0503
23225W        W27625  11.585   6.417  17.575  0.0737  0.1519 -0.0862
23226W        W27626  25.257   3.532  21.512  0.1040  0.0810 -0.1620
23227W        W27627  30.087   2.332  19.821  0.1264  0.3847  0.3384
23228W        W27628  20.387   3.355   2.163  0.2175  0.0512 -0.1238
23229W        W27629  11.768   6.072  25.692  0.0946 -0.0476 -0.2208
23230W        W27630  19.665   7.323   6.341  0.0708 -0.2004 -0.2116
23231W        W27631  13.304   4.446  19.831 -0.0389  0.2353  0.2810
23232W        W27632  11.610   5.708  10.434 -0.0617  0.0621 -0.1947
23233W        W27633  22.551   3.948   9.328  0.0722 -0.1656 -0.3431
23234W        W27634   9.958   3.112   7.785  0.0597  0.0145 -0.2418
23235W        W27635   8.091   3.694   0.627  0.1490 -0.1763 -0.0808
23236W        W27636   5.643   5.446   6.735  0.3150  0.1091  0.0539
23237W        W27637  10.688   6.847  25.741  0.2598 -0.0322 -0.1499
23238W        W27638  26.266   7.805  17.613  0.2228  0.2490 -0.1671
23239W        W27639  26.456   2.816  17.470  0.0344 -0.0769  0.2361
23240W        W27640   7.601   0.178   2.362  0.0943  0.1441 -0.0666
23241W        W27641  11.828   5.413   2.312  0.1723 -0.3250 -0.0765
23242W        W27642  28.815   5.916   2.203 -0.2139 -0.0485  0.2643
23243W        W27643  21.082   0.396  22.866 -0.1549  0.0344 -0.0912
23244W        W27644  29.674   0.519   4.468 -0.1069  0.0506  0.0428
23245W        W27645  25.127   7.264  16.131  0.0176  0.0787 -0.0507
23246W        W27646   6.722   6.937   4.750 -0.0962  0.2857  0.1068
23247W        W27647  18.995   4.827  21.750  0.1946 -0.0042  0.1161
23248W        W27648  31.260   4.585   1.132  0.1143  0.2166  0.1990
23249W        W27649  13.706   1.043   8.302 -0.3252  0.0426 -0.0349
23250W        W27650  28.091   7.510  22.166  0.0133 -0.0266 -0.0347
23251W        W27651  16.289   2.504  20.112 -0.0767 -0.0776  0.2648
23252W        W27652   5.353   2.490  19.322  0.0639  0.2219  0.0045
23253W        W27653   0.489   5.082   0.681 -0.0167 -0.0679 -0.1496
23254W        W27654  15.744   4.666  20.726 -0.1269 -0.0973  0.2078
23255W        W27655   1.432   3.992  16.912  0.0874  0.3870  0.0305
23256W        W27656   0.045   7.646  18.572 -0.1354 -0.3647 -0.2795
23257W        W27657  15.467   5.810  23.894 -0.0685 -0.1740  0.1146
23258W        W27658   4.206   1.560  16.386  0.0063 -0.0406 -0.1311
23259W        W27659  22.435   1.641   4.702  0.0780 -0.0617  0.0106
23260W        W27660   0.833   1.542   5.539 -0.0974 -0.1377 -0.3129
23261W        W27661   4.180   1.893   9.907  0.1090 -0.0643 -0.0082
23262W        W27662  24.544   6.969  25.100  0.0659  0.0546 -0.0679
23263W        W27663   3.497   6.126   4.913 -0.2108 -0.2371  0.2435
23264W        W27664  20.900   1.897   2.199 -0.0480  0.1465  0.2885
23265W        W27665  20.227   0.554  16.851 -0.1281  0.1025 -0.0463
23266W        W27666  27.867   3.643  18.598  0.2037  0.1970 -0.3288
23267W        W27667  21.212   1.822   7.141 -0.3933  0.1473  0.0616
23268W        W27668   0.372   3.198  22.741 -0.0173  0.1151 -0.0572
23269W        W27669   5.248   2.528  18.047  0.0011  0.3095  0.1111
23270W        W27670  27.192   2.856   5.262 -0.0486  0.4504  0.3077
23271W        W27671  30.715   3.137  21.086  0.0383 -0.1885  0.1453
23272W        W27672  19.192   5.051   2.882 -0.2916  0.0807  0.2410
23273W        W27673  10.160   1.910   9.011 -0.2940 -0.0227 -0.3162
23274W        W27674   1.179   2.984   7.465 -0.0331  0.0558  0.0431
23275W        W27675  25.920   4.516   0.908 -0.0121  0.0752  0.0292
23276W        W27676   4.284   7.732   3.236  0.0006  0.4443  0.1924
23277W        W27677   8.207   0.100  18.455  0.2010  0.3101 -0.2271
23278W        W27678  21.295   0.444  17.906 -0.1870 -0.0048 -0.1329
23279W        W27679  13.796   0.911  18.287  0.3425 -0.1832  0.1429
23280W        W27680  12.433   3.774   9.032 -0.1473 -0.3914 -0.1921
23281W        W27681   6.075   4.856  16.197  0.1338 -0.1187 -0.1087
23282W        W27682  18.415   1.792  16.390  0.2606  0.2081 -0.2057
23283W        W27683  16.503   3.070   9.613 -0.0797 -0.1812  0.2408
23284W        W27684  30.632   7.682  19.797 -0.0024 -0.3369  0.3015
23285W        W27685   1.342   7.762  25.003  0.1264 -0.0781  0.0872
23286W        W27686  26.348   0.814  17.633 -0.0050  0.2783  0.0857
23287W        W27687   7.810   0.875  25.810  0.2829  0.1132 -0.1437
23288W        W27688  12.463   2.900   0.158  0.2107 -0.2131  0.0055
23289W        W27689  26.200   3.834  11.771 -0.2936  0.0565  0.0261
23290W        W27690  20.595   7.288  16.050 -0.0416  0.1775 -0.2755
23291W        W27691  28.169   5.070   8.300 -0.1396 -0.2475 -0.4439
23292W        W27692  22.910   3.310   7.050 -0.1054 -0.1397  0.0695
23293W        W27693  17.776   1.618   2.549 -0.0987  0.3039 -0.2852
23294W        W27694   3.358   7.834   7.759  0.1057 -0.0223 -0.1566
23295W        W27695  22.624   0.473   8.488  0.1105 -0.4502  0.2223
23296W        W27696   3.944   3.647  17.324  0.0721 -0.4169 -0.1785
23297W        W27697  22.057   1.777   0.765 -0.1946 -0.0479 -0.0602
23298W        W27698  31.326   4.753  22.637  0.1140  0.1431  0.3345
23299W        W27699  25.080   2.093  22.853 -0.2973 -0.2272 -0.0321
23300W        W27700   5.361   6.765   1.132 -0.0726 -0.1807 -0.5588
23301W        W27701  25.733   4.696   9.549 -0.1331 -0.2404 -0.3312
23302W        W27702   3.058   3.258  23.551  0.1695 -0.0465 -0.0004
23303W        W27703  24.469   2.966  18.416  0.0349 -0.1411 -0.1790
23304W        W27704  17.175   2.216  20.595 -0.0683 -0.2006 -0.0645
23305W        W27705  15.306   2.242   1.690  0.1110  0.0361  0.0792
23306W        W27706  16.382   7.785   8.087  0.0471  0.1491  0.1119
23307W        W27707  12.011   1.178  16.559 -0.0994 -0.1697 -0.1159
23308W        W27708   1.800   4.093  16.177  0.2022 -0.2499 -0.0192
23309W        W27709  18.945   4.823   4.842  0.0874 -0.0313  0.0018
23310W        W27710   6.145   4.294  19.796  0.0976 -0.0701  0.3049
23311W        W27711   1.495   3.184   4.707 -0.1001  0.1652 -0.0998
23312W        W27712  12.696   0.411   2.075  0.0377  0.0947  0.0504
23313W        W27713   9.069   0.220  15.107 -0.1531 -0.1200  0.0967
23314W        W27714  23.899   4.278  16.377  0.0024  0.1717 -0.1459
23315W        W27715  19.972   2.494   2.023 -0.3764  0.0916  0.1244
23316W        W27716   2.946   1.123   7.191 -0.0965  0.0616  0.3419
23317W        W27717  30.022   0.974   7.487  0.2676 -0.2627  0.3472
23318W        W27718  10.490   7.587  10.803  0.0551 -0.1888  0.1433
23319W        W27719   7.765   2.173   2.627  0.3503  0.2389 -0.0584
23320W        W27720  17.308   4.508   9.050 -0.1733 -0.3485  0.1055
23321W        W27721  14.283   2.990   3.014 -0.2273 -0.2172  0.3717
23322W        W27722  16.226   4.360  11.145  0.0032 -0.3196  0.1612
23323W        W27723   1.692   0.888   8.661  0.2311  0.2397  0.0953
23324W        W27724  14.246   4.499   2.759  0.0501  0.1137 -0.0713
23325W        W27725  17.637   1.464  18.872  0.0733 -0.1031  0.1942
23326W        W27726  14.300   6.574   5.725 -0.1294  0.0056  0.2637
23327W        W27727  28.954   7.528   7.124  0.1998  0.2189 -0.2380
23328W        W27728  19.161   7.727   0.818  0.1291  0.0190 -0.0725
23329W        W27729   0.663   4.688   8.664 -0.1872 -0.0395  0.0710
23330W        W27730   6.717   5.735   0.749 -0.1697 -0.4020 -0.0149
23331W        W27731  23.302   5.672  22.541  0.0090  0.0245  0.1088
23332W        W27732  16.754   2.465   3.798 -0.0814  0.1488  0.1787
23333W        W27733  25.913   7.505   1.423 -0.1703 -0.1378 -0.3883
23334W        W27734  24.442   3.838   7.539  0.1733  0.1589  0.0393
23335W        W27735  10.477   5.804   5.379  0.1067 -0.0730  0.0231
23336W        W27736   9.210   1.496  18.906  0.3394 -0.0047  0.4226
23337W        W27737  10.877   4.191  22.899 -0.0723 -0.0462  0.0628
23338W        W27738  28.440   7.168   5.436  0.0137  0.0646  0.0887
23339W        W27739   5.076   4.426  15.567 -0.0162  0.2276 -0.0136
23340W        W27740   0.756   5.853  15.863  0.0721  0.2011  0.2385
23341W        W27741  15.419   1.656   6.586 -0.0866  0.1401 -0.1665
23342W        W27742  25.300   3.667  19.379  0.1034  0.1848  0.0490
23343W        W27743  21.873   7.630  25.343  0.1915  0.0417  0.1347
23344W        W27744   3.893   1.105  22.154  0.0869  0.0767 -0.0305
23345W        W27745  10.362   5.277  20.924  0.1691  0.1294  0.0110
23346W        W27746  25.400   3.641   8.153  0.0219 -0.1427 -0.4047
23347W        W27747  11.127   5.361   6.180 -0.1060  0.1960 -0.3160
23348W        W27748   1.530   1.553  21.853 -0.0884 -0.2371 -0.3256
23349W        W27749   0.812   2.746  23.808 -0.1196  0.3133 -0.2614
23350W        W27750  22.114   3.851  15.622 -0.4103  0.1732  0.0328
23351W        W27751   7.436   3.255   5.427  0.1570 -0.1521 -0.1816
23352W        W27752  13.738   3.127   7.336 -0.1236  0.0634  0.0883
23353W        W27753  20.111   5.130  21.635 -0.0293  0.2042  0.3992
23354W        W27754  10.311   5.172  18.502 -0.1261  0.0051  0.0363
23355W        W27755  13.704   3.047   9.633 -0.0314 -0.2543 -0.0272
23356W        W27756  25.551   1.949  20.584  0.0789 -0.4077 -0.1212
23357W        W27757   5.249   3.953   2.746 -0.2557 -0.0279 -0.2271
23358W        W27758  18.085   2.810   9.306 -0.1284  0.1366  0.2326
23359W        W27759   9.178   3.632  23.319  0.0908 -0.0736  0.0819
23360W        W27760   5.535   3.064  20.270 -0.1056 -0.1594 -0.1873
23361W        W27761   5.176   1.151  19.186 -0.2037  0.1717  0.0526
23362W        W27762   6.824   2.813   6.729 -0.0406  0.0615 -0.2785
23363W        W27763   8.080   2.997  25.630  0.1304 -0.0992  0.2058
23364W        W27764   2.508   0.536  23.950 -0.1040  0.1293 -0.1618
23365W        W27765  26.951   0.187  23.051 -0.1238 -0.1691  0.3427
23366W        W27766  22.301   4.548   0.877  0.0578 -0.0209  0.1330
23367W        W27767   5.116   1.867   6.501  0.1694  0.3384  0.0145
23368W        W27768  19.923   1.512  19.871  0.2558 -0.2869 -0.0382
23369W        W27769  24.707   1.272  24.647  0.0839 -0.0575 -0.0580
23370W        W27770  24.720   1.415   6.272 -0.2305 -0.2988 -0.4644
23371W        W27771   6.618   1.125   3.305 -0.0238 -0.2307 -0.3097
23372W        W27772  20.352   7.615  18.632 -0.2334  0.1950  0.0035
23373W        W27773   4.942   6.645  24.572 -0.0011  0.1140  0.2127
23374W        W27774  26.295   2.789  21.247  0.3229 -0.0862 -0.1220
23375W        W27775  13.039   2.474  21.089 -0.1648 -0.0171  0.0682
23376W        W27776   4.284   0.932   6.503  0.0087 -0.0703 -0.2696
23377W        W27777  12.104   2.988  25.899 -0.0723 -0.1085 -0.0799
23378W        W27778  29.180   2.067  18.780  0.1077  0.1226 -0.2005
23379W        W27779  26.699   4.792   9.985 -0.2119 -0.0245  0.4058
23380W        W27780  20.890   0.237  24.062  0.1274 -0.0205 -0.2109
23381W        W27781  12.335   1.657  23.787 -0.2224 -0.0223 -0.0235
23382W        W27782   8.550   2.531  15.721 -0.1040  0.1326  0.0221
23383W        W27783  11.311   4.034  11.215 -0.2530 -0.1616  0.2916
23384W        W27784   3.321   0.257  20.625 -0.0789  0.3107 -0.1076
23385W        W27785  27.048   0.861  20.044 -0.4172  0.1714 -0.0019
23386W        W27786   2.524   5.221  22.287  0.2992 -0.0059 -0.0407
23387W        W27787  27.217   4.058   4.495  0.1191 -0.3071 -0.0648
23388W        W27788  17.625   7.444   1.489  0.1703  0.3371  0.2640
23389W        W27789   4.765   4.247   0.337  0.0521 -0.1878  0.1958
23390W        W27790  15.335   2.026  19.982  0.2243  0.0990 -0.1666
23391W        W27791  20.558   0.630   1.954  0.1769 -0.2994 -0.0361
23392W        W27792   0.627   7.539   5.139  0.1464  0.1102  0.2283
23393W        W27793   3.042   7.029   6.575  0.1040  0.2387  0.0960
23394W        W27794   5.690   6.069   0.070  0.1301 -0.3303 -0.0830
23395W        W27795  26.932   6.444  22.062  0.0636 -0.2527  0.1840
23396W        W27796  18.203   6.686  16.583  0.1365  0.0975  0.2301
23397W        W27797  18.048   6.042  15.742  0.0358  0.4852  0.0056
23398W        W27798   9.261   0.787  24.538  0.1341 -0.0652  0.1459
23399W        W27799  23.808   1.788   7.339 -0.1830 -0.1103  0.0501
23400W        W27800  28.013   6.076   6.376  0.1391 -0.0081 -0.1935
23401W        W27801   1.969   5.002   8.371  0.0359 -0.1824 -0.1307
23402W        W27802  18.960   3.403   1.815 -0.0699 -0.1303 -0.2056
23403W        W27803   8.659   1.665   3.048  0.0025  0.1562 -0.0251
23404W        W27804   9.948   6.200   4.560  0.0952  0.0628 -0.1038
23405W        W27805  27.301   2.713  17.716  0.0453  0.1404 -0.0458
23406W        W27806  23.563   5.985  10.425 -0.3304  0.1190 -0.1195
23407W        W27807  27.462   5.763   2.808 -0.0932  0.0637  0.0062
23408W        W27808   5.040   1.185  19.662  0.2808 -0.0402  0.1433
23409W        W27809  14.753   0.424  25.177  0.1433 -0.1573 -0.1664
23410W        W27810  22.955   0.567   4.042  0.1418  0.0114 -0.1561
23411W        W27811  10.179   4.697   1.390 -0.1231  0.0993  0.1002
23412W        W27812   7.100   6.052  23.967  0.0000 -0.0082 -0.1816
23413W        W27813   4.703   4.723  17.864 -0.1107  0.1056 -0.2272
23414W        W27814  24.853   2.933   7.367  0.1966  0.0142 -0.1472
23415W        W27815   2.449   5.438   8.772 -0.0224  0.0340 -0.1906
23416W        W27816  26.228   1.645  18.177  0.0000 -0.0195  0.3106
23417W        W27817  11.411   7.507  10.133 -0.1913  0.1753 -0.5330
23418W        W27818  23.913   1.622  19.366  0.0347  0.0368  0.0640
23419W        W27819  21.857   4.476   8.657  0.2953 -0.2213 -0.0728
23420W        W27820  31.268   6.675  17.140  0.0931  0.1550 -0.0264
23421W        W27821  30.008   4.363   2.153 -0.1788  0.0745 -0.1120
23422W        W27822   3.520   5.036  20.385 -0.0998  0.1125 -0.0411
23423W        W27823  23.262   4.943   0.539  0.2193 -0.0429  0.2081
23424W        W27824  29.749   2.560  14.916  0.2157  0.3622 -0.2409
23425W        W27825  29.934   3.408  16.297 -0.2006 -0.2280 -0.0425
23426W        W27826  12.998   1.385  18.409  0.0178  0.1626 -0.1398
23427W        W27827  11.233   1.823  20.717  0.1300 -0.1000  0.0436
23428W        W27828   4.157   5.842  18.809  0.1066 -0.0411  0.0907
23429W        W27829  26.764   4.463   7.287  0.3107  0.1445  0.2072
23430W        W27830  26.640   1.556  16.535 -0.0248 -0.2074 -0.2280
23431W        W27831   7.012   2.650   1.493  0.0632 -0.2524 -0.1906
23432W        W27832  29.814   4.561  23.658  0.0942 -0.1822  0.0687
23433W        W27833  28.905   7.338   5.366  0.1017 -0.0791 -0.1908
23434W        W27834  20.280   1.992  20.023  0.1211  0.0067 -0.0238
23435W        W27835  11.182   3.384  25.767 -0.4394  0.0413 -0.0389
23436W        W27836   7.039   5.672   7.548 -0.0605  0.0635 -0.2333
23437W        W27837  30.979   0.765   9.932 -0.1185 -0.0874  0.4016
23438W        W27838   3.084   2.938  22.919  0.0039  0.3403 -0.5013
23439W        W27839   8.057   0.984  23.723  0.1004 -0.4215  0.0822
23440W        W27840  30.986   4.521  22.378  0.0655 -0.1629  0.1797
23441W        W27841  26.841   2.598   7.682  0.0483  0.0536 -0.0726
23442W        W27842   4.745   4.980   9.321  0.1074 -0.1012  0.2811
23443W        W27843   6.539   2.629  20.179 -0.3426 -0.2592 -0.1061
23444W        W27844   5.285   4.349   2.443 -0.4030  0.1007 -0.1429
23445W        W27845  26.778   4.466  14.688 -0.1266  0.0439 -0.0939
23446W        W27846  17.074   6.998   2.241  0.0114  0.0949 -0.0944
23447W        W27847  17.401   5.122   2.728 -0.1212 -0.1724 -0.2154
23448W        W27848  25.381   7.031   5.373  0.1460 -0.0641  0.0680
23449W        W27849  10.862   7.006  18.101 -0.0083 -0.1416  0.0003
23450W        W27850  24.934   6.602  20.700 -0.0339  0.1970 -0.0001
23451W        W27851  12.123   1.179  18.228 -0.0477 -0.0989 -0.1372
23452W        W27852   6.257   6.015  19.336 -0.1001 -0.0807 -0.2063
23453W        W27853  26.006   5.207  16.497  0.0907  0.2143 -0.3600
23454W        W27854   5.284   6.526   8.812 -0.1247 -0.0077 -0.2889
23455W        W27855   5.809   1.668  21.579  0.0956  0.1024 -0.1360
23456W        W27856  31.358   2.191  24.616  0.2761 -0.1692 -0.4096
23457W        W27857  30.640   3.947  10.141 -0.0546 -0.2663 -0.0031
23458W        W27858  27.890   7.674  25.443  0.2464 -0.3175 -0.2293
23459W        W27859  25.003   5.045  21.435  0.0619  0.0169  0.2664
23460W        W27860  16.080   2.338  19.722  0.1181 -0.1067  0.2295
23461W        W27861  24.924   4.463  18.208  0.2174  0.0104 -0.2612
23462W        W27862  27.070   0.280   6.589  0.2697  0.1952  0.1086
23463W        W27863  24.577   2.358  21.645  0.0004 -0.2799 -0.4316
23464W        W27864  20.465   0.379   9.037  0.4282 -0.2712 -0.0576
23465W        W27865   5.923   0.154  20.973  0.0776 -0.1601 -0.2484
23466W        W27866  16.124   1.830  15.020 -0.2578 -0.2395 -0.0236
23467W        W27867  11.585   5.240  19.538  0.1696  0.2437 -0.0557
23468W        W27868  11.613   7.079  24.572 -0.3087 -0.1511  0.0382
23469W        W27869  25.479   1.763   1.844 -0.0897  0.0107  0.1163
23470W        W27870   1.054   5.534   0.160  0.0204 -0.2210  0.3535
23471W        W27871  10.387   1.033  21.462 -0.2040 -0.2048  0.2497
23472W        W27872  10.502   3.208   6.087  0.0321 -0.0626 -0.0146
23473W        W27873  20.128   7.118   0.285  0.1060  0.1219 -0.3018
23474W        W27874   5.353   2.624  21.547 -0.1113 -0.1295 -0.1720
23475W        W27875  27.608   7.253   8.232  0.0456 -0.0403  0.1193
23476W        W27876  16.018   1.155   7.945  0.1451 -0.1378  0.3295
23477W        W27877   6.781   3.304   6.324 -0.1161 -0.0038 -0.2092
23478W        W27878  15.496   6.960  21.864 -0.1017  0.0522 -0.1046
23479W        W27879   0.260   3.841   5.377  0.0466  0.0238 -0.0549
23480W        W27880   1.028   7.053  19.124  0.0451  0.1497  0.0218
23481W        W27881  17.969   2.244   0.422 -0.3293 -0.1683  0.1723
23482W        W27882  23.173   2.458  25.369  0.1722  0.0724  0.1713
23483W        W27883  29.963   3.610  23.717 -0.1742  0.1802 -0.0195
23484W        W27884  22.427   3.837  18.127 -0.0687  0.1595  0.0891
23485W        W27885   0.161   6.265  24.533  0.1372 -0.1088  0.0603
23486W        W27886  23.089   2.653   7.933  0.1706 -0.0115  0.1006
23487W        W27887   2.136   0.396  17.617  0.0387 -0.1214 -0.1594
23488W        W27888  21.217   4.179  19.871  0.3554  0.0674 -0.2536
23489W        W27889  24.247   5.746  25.111 -0.0701  0.0087  0.1410
23490W        W27890  22.929   2.116   2.750  0.1598 -0.1233 -0.0722
23491W        W27891   4.260   5.944  26.028  0.0864 -0.1418 -0.4742
23492W        W27892  19.289   5.139  23.411  0.2798 -0.0282 -0.1065
23493W        W27893  11.083   1.918  22.827 -0.1283 -0.0636  0.0430
23494W        W27894  24.269   2.138   8.925  0.2177  0.0112  0.2908
23495W        W27895  12.370   1.589   9.523 -0.2486 -0.2226  0.4664
23496W        W27896   7.230   5.001   3.903  0.0932 -0.0064 -0.0084
23497W        W27897  13.153   5.514   0.853  0.1159  0.0404 -0.0904
23498W        W27898  10.757   3.774  23.175  0.0932 -0.0264  0.1919
23499W        W27899  10.982   0.760  17.882 -0.0428  0.0325 -0.1793
23500W        W27900  22.376   7.529  11.126  0.2359  0.1119 -0.6271
23501W        W27901  24.556   7.462  21.925 -0.1193  0.2782 -0.1620
23502W        W27902   9.983   5.922  16.163  0.1156 -0.1318 -0.1661
23503W        W27903  15.906   3.738  24.245 -0.2246 -0.0037  0.0018
23504W        W27904  20.089   6.720  20.968  0.1063 -0.1654  0.1223
23505W        W27905  15.438   1.575  22.158 -0.1611  0.2343 -0.1469
23506W        W27906  29.638   4.385   5.988 -0.0145  0.0017  0.2675
23507W        W27907  30.078   1.789   3.570 -0.0013 -0.0578 -0.2324
23508W        W27908  14.296   7.188  17.825 -0.1690  0.0995  0.2712
23509W        W27909  25.216   2.402   3.533 -0.1932  0.1951 -0.2513
23510W        W27910   3.238   2.877   1.696  0.0355 -0.0730  0.0064
23511W        W27911  24.778   6.681  16.748  0.2585 -0.0926 -0.0501
23512W        W27912   1.449   3.013   2.375 -0.4633 -0.2737  0.3635
23513W        W27913   8.237   4.644  25.026  0.2587  0.0544  0.0291
23514W        W27914  19.656   4.337  10.205  0.0828  0.0364 -0.0837
23515W        W27915   7.915   2.665   1.022  0.2283 -0.0864 -0.1192
23516W        W27916   1.889   0.854   4.555 -0.0380  0.0047  0.1557
23517W        W27917  14.537   2.963   7.879 -0.0845 -0.0859  0.0073
23518W        W27918  10.782   5.373   4.922 -0.0430 -0.0741 -0.2107
23519W        W27919  26.404   1.449  23.348 -0.0903 -0.0231  0.0952
23520W        W27920   2.690   1.608  23.602 -0.1642  0.1457  0.1683
23521W        W27921  31.430   0.583   4.277  0.2551  0.1557  0.0935
23522W        W27922  29.798   5.844   3.804 -0.1342 -0.1067  0.0200
23523W        W27923  22.965   1.259  23.703  0.2110  0.0075  0.1373
23524W        W27924   7.419   3.710   7.447  0.2169  0.0654 -0.0415
23525W        W27925   0.755   3.533   1.915 -0.0362 -0.2816  0.0434
23526W        W27926   0.756   6.479   2.872  0.0889  0.2146  0.0149
23527W        W27927  19.601   2.784   1.812 -0.1693  0.0654 -0.0595
23528W        W27928   6.726   1.941  19.606 -0.1482  0.0159 -0.2939
23529W        W27929   7.355   1.615  21.340 -0.0779 -0.0856  0.0037
23530W        W27930  13.625   2.360  22.416  0.3070 -0.1806  0.1723
23531W        W27931  13.735   1.583   3.765  0.0301 -0.2625 -0.0722
23532W        W27932   3.402   2.127   5.095 -0.0390 -0.3896  0.2169
23533W        W27933  19.920   1.148  16.812 -0.2471 -0.0414  0.0756
23534W        W27934  21.358   2.399   2.732 -0.2237 -0.1764  0.1108
23535W        W27935   5.580   4.647  25.247  0.1329  0.2360  0.0592
23536W        W27936  29.895   4.303  21.043 -0.2479  0.2877 -0.3504
23537W        W27937  26.345   5.123   1.649  0.1151 -0.0792 -0.2134
23538W        W27938  15.457   4.207   7.089  0.0674 -0.1399 -0.1586
23539W        W27939  28.940   3.336   3.340 -0.4052 -0.0378  0.2376
23540W        W27940   6.379   5.475   8.777  0.4044  0.0362 -0.1527
23541W        W27941  23.475   3.156   1.192 -0.1539 -0.2613  0.1155
23542W        W27942  13.998   5.836  18.299  0.1305 -0.1423 -0.1516
23543W        W27943  14.984   1.452   2.246  0.1296 -0.0286 -0.0933
23544W        W27944  17.745   0.257  25.249  0.1001  0.2135  0.1219
23545W        W27945  12.554   0.413   0.057  0.1183  0.0407  0.2929
23546W        W27946  20.879   4.296  11.698  0.0331 -0.1546  0.1364
23547W        W27947  14.039   1.274  16.011  0.1867 -0.1101 -0.2085
23548W        W27948   9.246   2.879  23.776 -0.0078 -0.3246 -0.3939
23549W        W27949  15.527   2.900   1.131 -0.0190  0.1502 -0.0279
23550W        W27950  15.297   0.974  18.152 -0.2881  0.1065  0.0914
23551W        W27951  18.047   2.469   6.728  0.1334  0.2159  0.2471
23552W        W27952   3.702   1.463  18.047  0.1368  0.4105  0.0538
23553W        W27953  15.288   7.204  16.907 -0.0748 -0.0163  0.1517
23554W        W27954   2.823   4.997   8.115 -0.4030  0.0809 -0.1050
23555W        W27955  14.888   2.410   2.495 -0.1104  0.1209  0.0993
23556W        W27956   5.699   1.053  19.038 -0.0555  0.1592 -0.3353
23557W        W27957  12.330   4.071   8.091  0.3317 -0.1635 -0.0106
23558W        W27958   8.558   5.439  15.815  0.2217  0.3031 -0.1265
23559W        W27959  22.408   1.815  10.983  0.3311 -0.3502  0.2875
23560W        W27960   4.274   5.566   4.901 -0.0546  0.0914  0.0268
23561W        W27961  17.801   4.448  16.627  0.0512  0.1907  0.0410
23562W        W27962   8.506   4.212  20.486  0.1016 -0.0906  0.1662
23563W        W27963  31.195   1.037   6.214  0.2719  0.1557  0.1637
23564W        W27964   0.847   7.687  24.892  0.1074 -0.1427 -0.0344
23565W        W27965  20.484   6.928  21.230  0.2054 -0.0937  0.2981
23566W        W27966  12.278   1.837   7.535  0.1401  0.1867 -0.0278
23567W        W27967  19.050   6.331   3.259 -0.0859  0.0787 -0.1534
23568W        W27968  18.455   4.607  17.279 -0.2383  0.2197  0.0249
23569W        W27969  25.042   1.910  18.335 -0.0380 -0.0994  0.1753
23570W        W27970   2.257   4.435   9.249  0.1060 -0.1756  0.1730
23571W        W27971  25.572   0.308  10.032 -0.0549 -0.1154  0.1865
23572W        W27972  26.335   0.661   8.418 -0.1205 -0.1384 -0.5199
23573W        W27973  27.661   5.651   8.585 -0.1086 -0.0458  0.1745
23574W        W27974  25.707   5.973   5.287 -0.2097  0.2267  0.0069
23575W        W27975   2.952   5.174   6.393 -0.2431  0.3086 -0.1905
23576W        W27976   0.404   4.256  17.454  0.0762  0.1861  0.0662
23577W        W27977  14.581   3.828   9.488  0.2789 -0.5010  0.3665
23578W        W27978  23.089   5.481  20.927  0.1053 -0.2624  0.0790
23579W        W27979   3.986   6.983  15.019  0.2750  0.0562 -0.0793
23580W        W27980  20.250   0.205   4.510 -0.0289  0.1562 -0.1992
23581W        W27981   6.192   1.511   6.901 -0.1027  0.3612 -0.0414
23582W        W27982   5.817   6.061   5.621  0.2759 -0.1188 -0.2982
23583W        W27983   7.012   4.333  24.162  0.1024  0.0920  0.0717
23584W        W27984  29.917   1.255  15.569 -0.0516  0.0351  0.0889
23585W        W27985   6.429   0.271   2.932  0.1376  0.1604 -0.1186
23586W        W27986   8.864   3.271  17.083  0.2795  0.0207 -0.1102
23587W        W27987  28.248   6.170  16.128 -0.1555  0.1981 -0.0401
23588W        W27988  11.152   7.226  24.760 -0.1138  0.2043  0.2029
23589W        W27989   6.511   3.581   4.003 -0.0341 -0.1391  0.1039
23590W        W27990  16.077   1.221  17.638  0.0893 -0.2265  0.0660
23591W        W27991  26.360   7.490   3.892 -0.2149 -0.0495  0.2047
23592W        W27992  24.232   5.904  21.655 -0.0154 -0.1342 -0.0871
23593W        W27993   1.175   1.971   9.280  0.0004  0.0139 -0.0292
23594W        W27994  16.442   6.454   3.034  0.1770  0.3019 -0.2460
23595W        W27995  16.359   0.668  10.336  0.1386 -0.0373 -0.1072
23596W        W27996  24.744   0.648   2.311  0.2003  0.0655  0.1706
23597W        W27997  10.407   7.714   3.741 -0.0095 -0.1385 -0.3217
23598W        W27998   7.428   4.485  22.262 -0.1896 -0.1210  0.2094
23599W        W27999  23.284   0.323  16.091  0.0937 -0.0229  0.0596
23600W        W28000  13.186   2.941  25.532 -0.1633  0.0030 -0.1015
23601W        W28001  18.508   1.916   9.919 -0.0236  0.0228 -0.0919
23602W        W28002   7.611   2.078  19.919  0.0836  0.0984  0.2222
23603W        W28003  13.234   2.756  16.486  0.1128  0.2541  0.2653
23604W        W28004   0.075   5.496   7.091  0.0051 -0.1797 -0.1025
23605W        W28005  25.773   4.649  20.980 -0.1335 -0.6650 -0.5142
23606W        W28006   5.911   6.308   7.073 -0.0285  0.0010  0.0907
23607W        W28007  13.799   0.502  24.879 -0.1757 -0.0530  0.1070
23608W        W28008  17.533   3.892   5.634 -0.3189 -0.1223  0.1005
23609W        W28009  18.689   4.363   8.488 -0.3658  0.0942 -0.1228
23610W        W28010  15.486   2.584   8.617 -0.0409 -0.1613  0.2595
23611W        W28011   7.297   4.028   3.703 -0.5089  0.4075 -0.0947
23612W        W28012  24.406   5.427  21.484 -0.0252  0.0861  0.1237
23613W        W28013  22.604   6.166   9.587  0.0488 -0.1157  0.0117
23614W        W28014  28.278   2.597  18.804  0.0757  0.1803  0.1418
23615W        W28015   0.625   5.622   8.172  0.2258 -0.0189  0.0458
23616W        W28016   3.941   4.729  19.655  0.1201 -0.1198  0.1121
23617W        W28017  24.182   5.644  17.306 -0.0185 -0.2667  0.0001
23618W        W28018  30.076   4.009   4.808 -0.0458 -0.0721 -0.1747
23619W        W28019   2.754   5.415  20.876  0.1558  0.0779 -0.1076
23620W        W28020   7.459   5.957  15.462 -0.1774  0.0228 -0.3278
23621W        W28021   7.495   1.506  20.720  0.0628 -0.2899 -0.2244
23622W        W28022   4.466   4.041  15.052  0.0669 -0.2979  0.2111
23623W        W28023  11.782   7.267   0.020 -0.0852 -0.0106 -0.1887
23624W        W28024   0.095   2.574  18.012  0.2872  0.2032 -0.0908
23625W        W28025  25.166   4.671  10.240 -0.1743 -0.0723  0.0930
23626W        W28026  10.218   2.094   7.778 -0.2380  0.2313 -0.0366
23627W        W28027  20.075   2.452   5.812  0.2537 -0.3546 -0.1145
23628W        W28028   6.880   0.207   2.235  0.0982 -0.1463 -0.1376
23629W        W28029  17.510   7.537   9.904 -0.3237  0.0039 -0.2167
23630W        W28030  22.193   5.356   3.227 -0.3464  0.0987  0.2294
23631W        W28031   8.853   4.092   5.196  0.3031 -0.0242  0.0308
23632W        W28032  28.122   3.700  17.116 -0.0562 -0.2254 -0.1180
23633W        W28033  23.200   5.818  17.459  0.0782  0.0207 -0.0515
23634W        W28034   9.918   6.619   3.227  0.2598 -0.1920  0.0434
23635W        W28035  14.016   6.298   3.934  0.1342  0.1575  0.2138
23636W        W28036   0.730   2.716  25.737  0.0985 -0.3001 -0.2972
23637W        W28037  29.265   4.514  24.755 -0.0664  0.1020  0.0710
23638W        W28038   4.187   1.452   6.378  0.1708  0.2022  0.0438
23639W        W28039  21.751   6.855  18.976 -0.1876 -0.0591 -0.0337
23640W        W28040  21.032   6.100  10.169  0.0614 -0.0430 -0.1794
23641W        W28041   4.540   5.236   1.316  0.0977  0.0503  0.0655
23642W        W28042  17.795   0.869   8.685 -0.0418  0.0970  0.1381
23643W        W28043  12.741   2.434  10.310 -0.1105 -0.0280 -0.1018
23644W        W28044  25.855   3.850   8.311 -0.2706  0.3348  0.1591
23645W        W28045   2.248   1.454  21.497 -0.2119 -0.2529  0.1120
23646W        W28046  22.103   3.262   6.123  0.2146  0.1658 -0.1248
23647W        W28047   9.510   5.214  24.002  0.0648 -0.5636 -0.2204
23648W        W28048  23.286   1.295   9.809  0.2243  0.0783 -0.3388
23649W        W28049  12.720   5.899  22.746  0.1701 -0.0310  0.2372
23650W        W28050  29.624   1.950  23.016 -0.2112  0.1056  0.0241
23651W        W28051  13.024   6.081  17.628  0.1301 -0.2354  0.0651
23652W        W28052  23.928   7.128  21.260  0.1093  0.1640 -0.1499
23653W        W28053  20.908   4.855   3.178 -0.1746  0.1083  0.1217
23654W        W28054   0.190   1.997  21.926  0.0705  0.1599 -0.1280
23655W        W28055   0.321   2.971   5.061 -0.0626  0.1044 -0.1378
23656W        W28056  27.880   2.689  19.781  0.3849  0.1091 -0.1290
23657W        W28057  16.895   1.141  23.540 -0.1549 -0.0105 -0.0450
23658W        W28058  15.713   7.145   5.816 -0.2075 -0.1020 -0.1341
23659W        W28059   3.562   3.110   5.626  0.1303  0.2164  0.0772
23660W        W28060   4.088   4.762   7.426 -0.0671  0.2186 -0.0566
23661W        W28061  30.309   2.555  26.018 -0.2048 -0.3866 -0.1463
23662W        W28062  20.196   1.194  26.004 -0.3477 -0.0459  0.1537
23663W        W28063  12.103   6.132  22.221  0.0245 -0.0476 -0.0561
23664W        W28064   8.867   3.672   1.681 -0.1640  0.0496  0.1736
23665W        W28065  12.165   4.171   2.337 -0.0443 -0.0598  0.2408
23666W        W28066  11.466   5.267  23.675 -0.1140  0.1545  0.0489
23667W        W28067  22.340   3.793  24.424  0.1390  0.2985 -0.3238
23668W        W28068  20.517   4.988  10.071 -0.1655  0.0804 -0.1062
23669W        W28069  20.859   5.923  15.658 -0.3725 -0.0428  0.0452
23670W        W28070  14.762   5.859   3.577  0.0865  0.1316  0.0480
23671W        W28071  23.698   5.042   7.463 -0.1057  0.4440 -0.0875
23672W        W28072   2.065   5.607   1.212  0.0673  0.0829  0.0774
23673W        W28073  25.792   1.355  16.585 -0.0557 -0.3119 -0.1241
23674W        W28074   2.709   7.416   3.000 -0.0421 -0.3468 -0.3145
23675W        W28075  17.856   4.955  19.003  0.2795  0.0714  0.0853
23676W        W28076   2.721   1.595  17.736  0.0832  0.3220  0.0173
23677W        W28077   5.367   3.451   1.416 -0.0978 -0.0034 -0.0003
23678W        W28078  12.530   6.847   8.118 -0.0814  0.2382 -0.0029
23679W        W28079   6.234   1.018  17.603  0.1473  0.0884  0.3406
23680W        W28080  14.587   5.112   3.444  0.1858  0.0662 -0.1945
23681W        W28081  10.159   5.476   6.166 -0.0334  0.0114  0.1045
23682W        W28082  15.203   5.053  16.421  0.0255  0.1023 -0.1760
23683W        W28083   2.217   2.695  25.047  0.1153 -0.0538 -0.1513
23684W        W28084  21.574   7.614   5.893  0.1322  0.0736 -0.0998
23685ION     NA28085   6.773   4.253  16.310 -0.0914 -0.0662  0.1088
23686ION     NA28086   1.740   1.776  20.583  0.0020 -0.2524  0.2697
23687ION     NA28087  18.637   0.636   6.751 -0.4313  0.1988  0.6022
23688ION     NA28088  23.666   6.265  19.370  0.1616 -0.0240  0.1342
23689ION     NA28089  21.427   4.009   6.904  0.0990 -0.2200  0.0001
23690ION     NA28090  22.778   1.186   2.170 -0.1825 -0.0204 -0.5582
23691ION     NA28091  13.953   2.335  23.238  0.0755 -0.0073 -0.2815
23692ION     NA28092  10.640   5.109  24.494  0.1063  0.3504 -0.2124
23693ION     NA28093  21.146   0.500   4.578  0.5475 -0.2044  0.1190
23694ION     NA28094   0.748   1.024  21.628 -0.1882  0.2545 -0.1284
23695ION     NA28095  10.311   2.821  20.321 -0.4130  0.1477 -0.1730
23696ION     NA28096   6.761   4.724  18.586  0.4238  0.2556 -0.1115
23697ION     NA28097  25.769   4.526   1.402 -0.2264 -0.0778  0.1618
23698ION     NA28098  18.013   7.748  24.413 -0.2950  0.1848 -0.0276
23699ION     NA28099  24.523   6.637  20.763 -0.2930  0.0724 -0.3615
23700ION     NA28100   1.002   3.144  15.565 -0.1685 -0.4998 -0.2216
23701ION     NA28101   2.471   2.772  24.067  0.0510  0.5701  0.2376
23702ION     NA28102  29.593   6.659   0.787 -0.1802  0.3080 -0.1677
23703ION     NA28103  13.593   4.944  19.254 -0.5422  0.0202 -0.1127
23704ION     NA28104  18.310   0.357   4.237 -0.1290  0.0287 -0.0894
23705ION     NA28105  31.233   3.776   0.906  0.2179 -0.1110 -0.2111
23706ION     NA28106  19.920   3.033  24.858 -0.1740 -0.2998  0.0219
23707ION     NA28107  20.178   2.166   3.408 -0.0904 -0.1028 -0.3646
23708ION     NA28108  30.255   7.028   6.834 -0.0279  0.1611  0.5046
23709ION     NA28109  10.815   2.631   7.919  0.0177  0.0216  0.2153
23710ION     NA28110   5.712   3.052  17.209  0.0728 -0.2930  0.2148
23711ION     NA28111  10.109   5.377   1.790  0.1793  0.2786  0.2734
23712ION     NA28112  26.790   4.996   6.727 -0.0237 -0.0260 -0.0461
23713ION     NA28113  10.049   0.630  23.034  0.0464 -0.1039  0.3895
23714ION     NA28114  23.754   3.820   1.299 -0.0181 -0.4729 -0.3896
23715ION     NA28115  16.120   3.661  20.298  0.0267 -0.1152 -0.3586
23716ION     NA28116  10.442   0.840  18.501  0.0902  0.5684 -0.5205
23717ION     NA28117  13.438   6.777  16.517 -0.1352 -0.1015 -0.2571
23718ION     NA28118  17.003   1.757  16.263 -0.1619 -0.4979 -0.1700
23719ION     NA28119  22.569   4.820   1.696  0.3698  0.0466  0.3563
23720ION     NA28120  20.065   0.428   4.941  0.1791  0.3633 -0.1658
23721ION     NA28121  14.156   7.256  20.125  0.0890  0.0691 -0.1251
23722ION     NA28122  17.314   5.554  17.163  0.0534 -0.0136 -0.1767
23723ION     NA28123   4.775   5.575  17.300  0.2073 -0.0065 -0.0725
23724ION     NA28124  17.947   4.009   1.526 -0.1771  0.0067 -0.0794
23725ION     NA28125  22.433   0.462  18.218  0.0065  0.5365 -0.2126
23726ION     NA28126  17.537   4.937  16.236  0.0103 -0.5679 -0.3007
23727ION     NA28127  15.710   7.262  21.690 -0.3339  0.3798  0.1538
23728ION     NA28128  19.409   1.472  25.642  0.2900  0.0884  0.0294
23729ION     NA28129  28.257   1.725  25.448 -0.1485 -0.1639 -0.1516
23730ION     NA28130   7.859   3.180   4.117  0.0819  0.0969  0.1701
23731ION     NA28131  13.269   5.132   5.758 -0.1510 -0.0226 -0.5564
23732ION     NA28132   6.055   7.742  16.962  0.1638  0.4336  0.7585
23733ION     NA28133  28.635   1.453  20.569 -0.2278 -0.0742 -0.0360
23734ION     NA28134  11.994   0.001   4.906  0.3050 -0.2767  0.2919
23735ION     NA28135  17.265   3.651  17.725 -0.4735  0.3285  0.0442
23736ION     NA28136  19.206   1.698  23.205 -0.4082  0.3182  0.2047
23737ION     NA28137   4.128   2.673   7.827 -0.3095 -0.2654 -0.0800
23738ION     NA28138  17.809   6.216  20.134  0.0827 -0.4865  0.3026
23739ION     NA28139  13.529   4.260   6.768 -0.3021 -0.0034  0.5107
23740ION     NA28140  24.260   6.254  18.243 -0.2067  0.2707 -0.0091
23741ION     NA28141   8.145   4.132   8.950  0.1583  0.1605 -0.1081
23742ION     NA28142  18.664   7.473  18.435  0.0044  0.0409  0.0532
23743ION     NA28143   3.234   4.989   6.121  0.1914  0.0534  0.8831
23744ION     NA28144   2.587   0.387  23.471  0.0725  0.2569  0.6336
23745ION     NA28145  18.065   3.057   4.698  0.2456 -0.0379  0.1633
23746ION     NA28146  27.592   3.885   8.148 -0.0987 -0.3294  0.1244
23747ION     NA28147  10.105   1.164   4.130  0.3497 -0.0446 -0.2368
23748ION     NA28148   8.728   2.417  22.819  0.3340  0.0521  0.0077
23749ION     NA28149   0.073   5.345   6.352  0.0858  0.0731  0.2724
23750ION     NA28150   6.948   4.391   7.292  0.2315 -0.2413 -0.0879
23751ION     NA28151  28.934   6.205   4.801 -0.1742 -0.2861  0.0397
23752ION     NA28152  17.654   3.333  18.865  0.0507  0.2392  0.1339
23753ION     NA28153  16.833   3.373   8.060 -0.0880 -0.1638  0.1923
23754ION     NA28154  20.842   5.622   8.717 -0.3929 -0.2255 -0.3111
23755ION     NA28155   7.635   1.182   4.195 -0.0723 -0.1946  0.3992
23756ION     NA28156  26.501   2.934   7.860  0.4099  0.2633  0.0018
23757ION     NA28157  24.833   7.375   8.542 -0.0193 -0.1727  0.0332
23758ION     NA28158  24.354   1.426  24.806  0.1107  0.1680 -0.2357
23759ION     NA28159  29.824   1.970  15.880  0.1833  0.0844 -0.3665
23760ION     NA28160   4.333   0.979   0.241 -0.1203 -0.1105 -0.1250
23761ION     NA28161   9.940   7.638   4.940  0.2728 -0.0976  0.6257
23762ION     NA28162   8.035   2.468  17.856  0.2794  0.6514  0.0752
23763ION     NA28163   4.980   0.414  25.335 -0.1939  0.0223 -0.2832
23764ION     NA28164  11.036   6.461   5.408  0.5852 -0.3418 -0.5421
23765ION     NA28165  15.355   1.167  26.031  0.4069  0.8431  0.1873
23766ION     NA28166  17.437   6.719   3.335  0.0831 -0.0464  0.0060
23767ION     NA28167  12.768   2.710  18.604 -0.1565 -0.0319 -0.6317
23768ION     NA28168  17.271   3.294   0.995  0.3215  0.1908  0.1707
23769ION     NA28169   6.546   5.952  19.727 -0.0108 -0.0708  0.3314
23770ION     NA28170   2.309   2.448   4.201 -0.4216  0.2897 -0.0386
23771ION     NA28171   5.625   2.958  21.533 -0.3015  0.2822  0.2182
23772ION     NA28172  25.251   5.442  23.665  0.1105  0.5223  0.0556
23773ION     NA28173  26.867   2.016   6.250  0.1202 -0.0593 -0.0217
23774ION     NA28174  11.432   6.992   0.714  0.0839 -0.0496 -0.2883
23775ION     NA28175   4.643   6.481   2.208  0.4684 -0.2882  0.0357
23776ION     NA28176  18.767   7.185   8.154  0.1564  0.1026  0.4664
23777ION     NA28177  17.906   1.346  23.505  0.4209 -0.2440  0.3494
23778ION     NA28178  14.296   0.433  21.644 -0.1164 -0.1337  0.0743
23779ION     NA28179  14.817   7.781  17.717 -0.4834  0.0380 -0.3390
23780ION     NA28180  14.330   4.155  10.214  0.1239  0.0770 -0.4950
23781ION     NA28181  11.537   4.737  24.915  0.2191 -0.0646 -0.3045
23782ION     NA28182  14.800   7.447  25.467 -0.1138 -0.1257  0.1135
23783ION     NA28183  28.280   3.318   6.886  0.1651  0.1468  0.4276
23784ION     NA28184   6.270   7.075  22.922 -0.1068 -0.3107 -0.2066
23785ION     NA28185   7.480   5.916  23.599 -0.1896 -0.7282 -0.5062
23786ION     NA28186   2.857   0.840  18.477  0.0358  0.1592 -0.1018
23787ION     NA28187   1.444   2.720   6.431  0.4669  0.0293 -0.2418
23788ION     NA28188  16.306   1.814  23.040 -0.1205 -0.3672 -0.1182
23789ION     NA28189  13.376   2.850   3.252  0.1472  0.1127 -0.0231
23790ION     NA28190  20.930   6.607  18.148  0.0685  0.0812 -0.1776
23791ION     NA28191  17.924   3.977  21.595 -0.0295  0.1370  0.4450
23792ION     NA28192  16.649   0.419  19.442 -0.0288 -0.2233  0.1734
23793ION     NA28193   9.688   6.883  19.992  0.2830  0.0768 -0.3722
23794ION     NA28194   6.063   5.304  18.808  0.1950 -0.4799 -0.0195
23795ION     NA28195  17.764   1.881  20.189 -0.5721 -0.1741  0.5266
23796ION     NA28196   7.799   2.272   0.915 -0.3086 -0.1119  0.2170
23797ION     NA28197  15.266   5.476   4.794  0.3143 -0.0701  0.2152
23798ION     NA28198  29.250   5.391   2.714  0.2450  0.0078  0.2916
23799ION     NA28199   9.175   2.870  19.300  0.1572  0.1816  0.3374
23800ION     NA28200  15.217   2.236   0.467  0.3094 -0.0401  0.1153
23801ION     NA28201   9.969   5.141   3.926 -0.1540 -0.3461 -0.0391
23802ION     NA28202  14.842   0.992   8.280 -0.0112 -0.0775 -0.1676
23803ION     NA28203   9.930   4.258  25.945 -0.2730  0.3285 -0.1073
23804ION     NA28204   5.581   2.361   2.081 -0.1607  0.3188 -0.4268
23805ION     NA28205   1.058   2.379  21.188  0.0145 -0.2594 -0.2588
23806ION     NA28206  20.254   6.133   0.756  0.2429  0.0392 -0.2072
23807ION     NA28207   1.868   6.191   3.028 -0.0596 -0.4236  0.0356
23808ION     NA28208  24.744   3.985   4.991  0.3751 -0.5802  0.1479
23809ION     NA28209  11.302   1.347  18.892 -0.0165  0.2780  0.0066
23810ION     NA28210  14.039   7.672  23.528 -0.1392 -0.6054 -0.1334
23811ION     NA28211  30.735   2.568   4.589 -0.0909 -0.1852  0.0803
23812ION     NA28212   8.682   0.480   7.574  0.3328 -0.3545  0.1762
23813ION     NA28213   2.176   4.083   2.770 -0.0656 -0.0024  0.0356
23814ION     NA28214  28.676   3.882   6.190 -0.2511 -0.1572  0.1663
23815ION     NA28215   4.736   3.866   1.660 -0.4300 -0.1237 -0.0852
23816ION     NA28216  12.669   5.488  23.385  0.1149  0.0741 -0.0463
23817ION     NA28217   0.762   6.621  16.423  0.0478  0.0872  0.1795
23818ION     NA28218  20.794   3.562   7.221  0.0662 -0.1318  0.2524
23819ION     NA28219   2.985   4.181   8.766 -0.0168 -0.2481  0.0992
23820ION     NA28220  27.757   3.802  25.916 -0.3156  0.1550  0.0291
23821ION     NA28221  13.867   2.554  21.242  0.1376 -0.2931  0.0562
23822ION     NA28222  24.040   7.090  18.827 -0.2328 -0.0860  0.0461
23823ION     NA28223   7.528   0.898   6.474 -0.2385  0.2111  0.1244
23824ION     NA28224  26.171   2.637  17.180 -0.0251 -0.3246 -0.1648
23825ION     NA28225   8.349   4.025   0.657 -0.1509 -0.2933  0.2814
23826ION     NA28226  16.391   4.380   0.988  0.2210 -0.2997  0.1001
23827ION     NA28227  25.350   6.719   4.373 -0.1426 -0.2808  0.0693
23828ION     NA28228  25.115   4.137   1.545  0.3045 -0.3204 -0.2154
23829ION     NA28229  24.670   1.727  18.184 -0.0473  0.4162 -0.4244
23830ION     CL28230  18.587   0.503  20.140 -0.2596  0.1021  0.1189
23831ION     CL28231  17.753   2.336  24.882 -0.3158  0.5134 -0.4528
23832ION     CL28232   6.184   6.435   7.500  0.1391 -0.1213  0.2663
23833ION     CL28233   0.988   3.280   4.738 -0.4188 -0.4793  0.2451
23834ION     CL28234  28.884   6.679   4.836  0.2266  0.0175  0.1589
23835ION     CL28235  28.195   5.741   2.605  0.3009  0.2553 -0.0773
23836ION     CL28236   8.418   2.392  25.466  0.1001  0.0022  0.4028
23837ION     CL28237   5.312   5.973  20.735  0.3935  0.3296 -0.2537
23838ION     CL28238  15.472   6.330   2.905  0.3850  0.1818 -0.0207
23839ION     CL28239  26.911   7.272  22.511 -0.0928  0.0170  0.1061
23840ION     CL28240  16.543   3.614  17.157  0.0126  0.0620  0.1668
23841ION     CL28241  23.297   1.262  15.796 -0.0938  0.1263  0.3540
23842ION     CL28242   9.917   7.308   4.986 -0.0763  0.0904  0.0503
23843ION     CL28243  17.752   5.585  19.682 -0.3548 -0.4555  0.3804
23844ION     CL28244  16.308   2.945   8.350  0.0679 -0.3126 -0.0694
23845ION     CL28245  18.333   7.381  18.302 -0.1688 -0.1204  0.2504
23846ION     CL28246  22.080   0.685  21.024  0.0250 -0.2496 -0.2368
23847ION     CL28247  24.726   4.183   8.078  0.0582 -0.0014 -0.4557
23848ION     CL28248  18.904   0.145  16.975  0.2531 -0.1986  0.2867
23849ION     CL28249  10.328   5.097   1.398  0.2782  0.0758 -0.3016
23850ION     CL28250  15.441   1.364   9.836 -0.0052 -0.4960 -0.1687
23851ION     CL28251  10.308   3.266   0.686 -0.0930 -0.2261 -0.2684
23852ION     CL28252  15.850   2.953   1.787  0.1806  0.0247 -0.1497
23853ION     CL28253   1.498   2.118   4.350 -0.0412  0.1264  0.2871
23854ION     CL28254  23.487   5.898  19.328  0.6078  0.0281  0.3235
23855ION     CL28255  19.980   1.578   0.460 -0.0187 -0.1967 -0.1901
23856ION     CL28256  24.100   3.752   1.327  0.1966 -0.6511  0.1544
23857ION     CL28257   0.321   3.313   4.801  0.6261  0.1774 -0.2457
23858ION     CL28258  14.819   0.529  16.463  0.1197  0.0292 -0.2006
23859ION     CL28259  25.743   5.572  16.225 -0.0169 -0.0173  0.0160
23860ION     CL28260   7.338   7.642  24.521 -0.1149  0.0194  0.2498
23861ION     CL28261  21.990   6.989   6.059 -0.1440 -0.3615 -0.0236
23862ION     CL28262  13.955   1.075  20.517 -0.1368  0.2959 -0.3468
23863ION     CL28263  29.419   0.400   4.112 -0.0107  0.0503 -0.2652
23864ION     CL28264   1.213   3.669   5.719 -0.2765  0.2908 -0.0061
23865ION     CL28265   6.122   4.571  19.127  0.0850  0.0033 -0.0228
23866ION     CL28266  18.902   4.639  10.121  0.0161  0.4305 -0.0037
23867ION     CL28267  17.209   2.448   5.834 -0.0152  0.0406  0.0880
23868ION     CL28268  25.515   0.632  22.715 -0.0054  0.1069 -0.0749
23869ION     CL28269  14.715   0.095  17.182 -0.3565  0.2211  0.0213
23870ION     CL28270   9.513   2.533  17.601  0.1550  0.3854 -0.2136
23871ION     CL28271  20.135   1.607   8.483  0.6896  0.4685  0.2311
23872ION     CL28272  15.498   2.513   1.486  0.0029 -0.1397  0.0942
23873ION     CL28273  15.424   0.849   6.100 -0.2616 -0.0621  0.0465
23874ION     CL28274  15.474   6.369   3.796  0.3894  0.0745 -0.1077
23875ION     CL28275   0.174   1.173  18.844 -0.3502  0.2477  0.3140
23876ION     CL28276  20.673   4.912   8.943  0.4994 -0.3140  0.1555
23877ION     CL28277  19.993   5.442   7.519 -0.1762  0.5264  0.2654
23878ION     CL28278  25.445   4.249  25.129  0.0237  0.0559  0.1471
23879ION     CL28279   5.851   3.518  22.549 -0.1637 -0.2899 -0.3031
23880ION     CL28280   6.977   0.777   7.712 -0.2652  0.3503  0.2531
23881ION     CL28281   6.536   0.375  23.579 -0.0936 -0.3181  0.1484
23882ION     CL28282   4.831   0.368   1.248  0.4872  0.6022  0.3383
23883ION     CL28283  31.175   6.749   2.972  0.3758  0.3032  0.0075
23884ION     CL28284  18.935   3.387  22.481 -0.0254  0.0656 -0.0322
23885ION     CL28285  23.511   3.620   4.670  0.1016 -0.3956  0.1366
23886ION     CL28286  20.853   5.204   9.957  0.1682  0.2500 -0.2110
23887ION     CL28287  17.828   4.049  24.763  0.3029 -0.0337 -0.0974
23888ION     CL28288  18.516   4.214   6.572 -0.0707  0.1491 -0.0759
23889ION     CL28289  26.944   0.734  24.581  0.0016  0.3770 -0.3990
23890ION     CL28290  14.778   4.334   6.243 -0.2189  0.5015  0.3351
23891ION     CL28291   3.613   3.540   9.415  0.4743  0.5127 -0.0292
23892ION     CL28292  27.783   3.083  20.745  0.1387  0.4325 -0.0128
23893ION     CL28293  24.817   7.757  16.633 -0.4602 -0.5171  0.1809
23894ION     CL28294  18.125   3.111   4.356  0.2602  0.3227 -0.3583
23895ION     CL28295   1.777   0.860   9.078  0.1017 -0.0640 -0.2169
23896ION     CL28296  11.614   3.436  22.370 -0.0317 -0.0742 -0.2098
23897ION     CL28297  13.232   3.782  19.010  0.2393  0.6757 -0.0596
23898ION     CL28298   9.848   1.101  24.637 -0.6955  0.1618 -0.3876
23899ION     CL28299  13.626   4.219  17.920 -0.1611 -0.3204 -0.1359
23900ION     CL28300  23.777   7.353  18.895 -0.1587  0.0051 -0.0637
23901ION     CL28301  25.438   1.075   6.910  0.0813  0.1555  0.1027
23902ION     CL28302  19.972   5.539   6.766 -0.0489  0.1898  0.4376
23903ION     CL28303  26.100   6.211  15.882 -0.1052  0.4625  0.0438
23904ION     CL28304   8.772   1.785   1.297  0.2696 -0.2137 -0.3688
23905ION     CL28305   5.364   7.822   6.031  0.0477 -0.1775 -0.1292
23906ION     CL28306  12.388   5.649  21.484  0.0780 -0.0884  0.2446
23907ION     CL28307   4.512   7.094   1.633 -0.0635  0.0178  0.0375
23908ION     CL28308  15.380   7.626   8.852 -0.0813 -0.3432  0.0144
23909ION     CL28309   2.959   1.283   1.471 -0.3928  0.0190  0.0095
23910ION     CL28310  11.592   7.176  20.570  0.4532 -0.0734 -0.1869
23911ION     CL28311  24.249   1.338   7.997 -0.4936 -0.2419  0.3128
23912ION     CL28312   2.195   1.747   2.826  0.2643 -0.1675 -0.0937
23913ION     CL28313  13.061   1.707   3.431 -0.1095  0.1010  0.3035
23914ION     CL28314  25.512   3.052  17.103  0.1437 -0.4040  0.4657
23915ION     CL28315  30.586   2.815  15.331  0.4648 -0.2011 -0.5033
23916ION     CL28316   6.657   2.035  15.877 -0.4833  0.1321  0.1919
23917ION     CL28317   3.563   3.949  21.505  0.5234 -0.0240 -0.1204
23918ION     CL28318  15.998   7.490  23.312 -0.0231 -0.1406 -0.4016
23919ION     CL28319   2.543   4.519   0.974  0.0703 -0.2390  0.0024
23920ION     CL28320   7.049   1.757   5.878 -0.3969  0.1305  0.2984
23921ION     CL28321  12.473   2.471  18.781  0.3735 -0.1047 -0.0751
23922ION     CL28322  20.377   5.005   1.248 -0.0077 -0.1716 -0.3192
23923ION     CL28323   5.879   5.883   1.544  0.1671 -0.2452  0.2815
23924ION     CL28324  10.414   2.429  23.123 -0.0877  0.1366 -0.0721
23925ION     CL28325  12.781   0.369   2.903 -0.1713 -0.1554  0.1060
23926ION     CL28326   4.129   4.035  17.031 -0.1547 -0.1391 -0.0243
23927ION     CL28327  12.883   2.596  16.219  0.0632  0.8152  0.0259
23928ION     CL28328  17.386   7.843   6.261  0.2613  0.0555 -0.0312
23929ION     CL28329   8.537   2.893  15.564 -0.2733 -0.1751  0.1735
23930ION     CL28330  17.707   7.562  10.696  0.2644  0.0764  0.1395
23931ION     CL28331  27.199   3.305   7.776 -0.0540  0.0063  0.0386
23932ION     CL28332  10.691   1.633   8.272  0.1054 -0.0759  0.2358
23933ION     CL28333   4.107   1.331  19.723 -0.0885 -0.3254  0.0139
23934ION     CL28334   1.762   1.026  15.650  0.0008  0.2050 -0.0887
23935ION     CL28335  21.091   6.254  23.296  0.2876 -0.1993 -0.0053
23936ION     CL28336  22.150   5.568   4.366 -0.2130 -0.4952  0.1984
23937ION     CL28337  10.378   1.394   4.241 -0.0069 -0.3441  0.2616
23938ION     CL28338  17.527   3.223   7.237  0.0050 -0.1758  0.1073
23939ION     CL28339  17.328   4.059  10.725  0.3484  0.1537  0.1577
23940ION     CL28340  22.816   5.799   4.060  0.3090 -0.2378  0.1241
23941ION     CL28341   6.653   7.508  17.232  0.0477 -0.1796  0.2285
23942ION     CL28342  17.237   1.110   6.027  0.5871  0.0426 -0.3244
23943ION     CL28343   4.852   1.374  18.859 -0.3309 -0.2620 -0.2316
23944ION     CL28344  16.049   7.766   2.145 -0.4371  0.4175  0.1838
23945ION     CL28345   2.271   2.970  23.926  0.2601 -0.1869  0.5110
23946ION     CL28346   1.714   1.606  22.546  0.2306 -0.0426 -0.2897
23947ION     CL28347  27.671   1.628  19.835 -0.2217  0.3081  0.3467
23948ION     CL28348  14.902   6.978  17.891  0.0612  0.2077 -0.1302
23949ION     CL28349   2.628   5.825  23.998  0.1123 -0.0037 -0.2022
23950ION     CL28350  13.097   1.565   8.857 -0.0198  0.2241 -0.0739
23951ION     CL28351  22.434   2.651   0.762 -0.2619  0.1755 -0.5249
23952ION     CL28352  11.601   4.843  25.447 -0.0762 -0.0328  0.3842
23953ION     CL28353  10.312   5.729  24.159 -0.2326  0.5569  0.2261
23954ION     CL28354  28.701   2.381   4.071  0.0826 -0.0089 -0.4608
23955ION     CL28355   0.896   5.078   7.150 -0.2507  0.0792  0.0203
23956ION     CL28356   3.954   2.681  22.799  0.2749  0.5112  0.1234
23957ION     CL28357   8.550   1.427  17.863 -0.1574 -0.0713  0.2495
23958ION     CL28358  19.550   4.775  19.791  0.0704 -0.0710 -0.1330
23959ION     CL28359  24.461   5.826   4.915 -0.4216 -0.0034 -0.2590
23960ION     CL28360  24.284   0.661   3.166 -0.0188  0.0816  0.0944
23961ION     CL28361   0.719   2.933   5.736  0.4643  0.2276 -0.0621
23962ION     CL28362  14.258   0.489   3.245  0.5965  0.4290 -0.1259
23963ION     CL28363  31.380   0.259   9.459 -0.1816 -0.5766 -0.3394
23964ION     CL28364  25.551   1.839  19.046  0.0296  0.2443 -0.2068
23965ION     CL28365  17.672   2.626   1.556 -0.4273  0.1258  0.1660
23966ION     CL28366  14.763   5.920   0.405 -0.1101  0.1671 -0.4293
23967ION     CL28367   3.695   6.847   9.620 -0.2753 -0.0041 -0.0101
23968ION     CL28368   2.912   5.227  18.895  0.2660  0.3051  0.0631
23969ION     CL28369  11.637   1.662  20.679  0.0583 -0.1926 -0.2852
23970ION     CL28370  10.080   0.687  22.656 -0.1529  0.0444  0.1433
23971ION     CL28371   2.443   4.225   2.528  0.3919  0.1020  0.0332
23972ION     CL28372   8.034   0.241  25.475  0.1610  0.4961 -0.0617
23973ION     CL28373  19.892   6.557   9.356  0.1496  0.2110  0.0111
23974ION     CL28374   0.586   2.789   8.890  0.8429  0.1404  0.2270
23975DOPC   NC328375  16.346   5.001  15.595 -0.0613  0.0876 -0.1021
23975DOPC   PO428376  16.205   5.127  15.247 -0.1072  0.0243  0.1993
23975DOPC   GL128377  15.944   4.977  14.848  0.1299  0.1261 -0.3740
23975DOPC   GL228378  16.106   5.129  14.835  0.0141 -0.1903 -0.0889
23975DOPC   C1A28379  15.764   4.908  14.385 -0.2377  0.0110 -0.2001
23975DOPC   D2A28380  15.788   5.156  13.965  0.0008  0.1550 -0.1797
23975DOPC   C3A28381  15.923   5.402  13.624 -0.0995 -0.1872 -0.1157
23975DOPC   C4A28382  15.808   5.740  13.280  0.0874  0.1580  0.1506
23975DOPC   C1B28383  16.255   5.066  14.412 -0.0688 -0.3664  0.0022
23975DOPC   D2B28384  16.315   5.163  13.904 -0.1523 -0.0146 -0.1801
23975DOPC   C3B28385  16.512   5.210  13.498 -0.0359 -0.0043  0.0350
23975DOPC   C4B28386  16.828   5.510  13.158  0.1386 -0.1124  0.0004
23976DOPC   NC328387  18.180   4.708  15.698  0.0500  0.2154  0.1369
23976DOPC   PO428388  18.028   5.081  15.621 -0.4707 -0.0701  0.0677
23976DOPC   GL128389  18.010   5.275  15.211 -0.1134 -0.1437 -0.0108
23976DOPC   GL228390  17.784   5.133  15.107  0.5711 -0.1355 -0.1866
23976DOPC   C1A28391  18.144   5.402  14.791 -0.2137 -0.1273 -0.2394
23976DOPC   D2A28392  18.297   5.600  14.389 -0.1396 -0.5022 -0.1431
23976DOPC   C3A28393  18.113   5.563  13.915 -0.3226  0.0166 -0.0394
23976DOPC   C4A28394  18.372   5.797  13.540 -0.3563 -0.3597  0.1406
23976DOPC   C1B28395  17.494   5.022  14.741  0.1202  0.1907  0.0905
23976DOPC   D2B28396  17.326   4.640  14.466  0.1054 -0.0263  0.0997
23976DOPC   C3B28397  17.720   4.701  14.134 -0.0392 -0.0987  0.1471
23976DOPC   C4B28398  18.117   4.913  14.037  0.0039 -0.0997 -0.1560
23977DOPC   NC328399  15.770   2.188  15.235 -0.1001  0.1518 -0.0473
23977DOPC   PO428400  15.365   2.287  15.229  0.0251 -0.1559  0.3593
23977DOPC   GL128401  15.484   2.433  14.899 -0.0603 -0.2174 -0.0268
23977DOPC   GL228402  15.687   2.267  14.799  0.3287  0.0904 -0.2376
23977DOPC   C1A28403  15.311   2.574  14.456 -0.0289 -0.0675  0.0805
23977DOPC   D2A28404  15.114   2.712  13.971 -0.3364  0.0001  0.1312
23977DOPC   C3A28405  14.800   2.426  13.844 -0.1126  0.0746 -0.2990
23977DOPC   C4A28406  14.439   2.119  13.640 -0.2863  0.0413  0.1714
23977DOPC   C1B28407  15.871   2.329  14.426 -0.1915  0.0217  0.0814
23977DOPC   D2B28408  16.017   2.414  14.008 -0.0571 -0.3426 -0.1852
23977DOPC   C3B28409  16.119   2.409  13.601  0.0926 -0.0708 -0.1476
23977DOPC   C4B28410  15.814   2.679  13.257 -0.1305  0.0210 -0.2451
23978DOPC   NC328411   0.113   2.550  14.641  0.2075  0.0665 -0.2161
23978DOPC   PO428412  -0.126   2.227  14.686 -0.0632 -0.0010 -0.3365
23978DOPC   GL128413  -0.284   2.412  14.371  0.1763  0.4874 -0.0378
23978DOPC   GL228414  -0.208   2.180  14.188 -0.0327  0.2650 -0.2499
23978DOPC   C1A28415  -0.309   2.658  13.999  0.0620  0.0670  0.2422
23978DOPC   D2A28416  -0.437   2.848  13.575 -0.2637  0.1137 -0.1746
23978DOPC   C3A28417  -0.402   3.243  13.422 -0.1111  0.1928 -0.0726
23978DOPC   C4A28418  -0.305   3.625  13.165 -0.0054 -0.2731 -0.0545
23978DOPC   C1B28419  -0.291   2.238  13.803  0.0608 -0.1969 -0.0730
23978DOPC   D2B28420  -0.334   2.322  13.321  0.1127 -0.1373 -0.0791
23978DOPC   C3B28421  -0.192   2.571  13.011 -0.0139  0.0138 -0.0563
23978DOPC   C4B28422  -0.262   2.902  12.617  0.2105  0.0759  0.1340
23979DOPC   NC328423   3.689   2.243  15.119  0.0586 -0.0044  0.2066
23979DOPC   PO428424   3.800   1.859  14.966 -0.2201  0.1578 -0.2877
23979DOPC   GL128425   4.009   1.862  14.574  0.1351 -0.1221 -0.3841
23979DOPC   GL228426   3.978   1.536  14.587  0.0487  0.0247  0.1289
23979DOPC   C1A28427   3.772   1.973  14.199  0.2290 -0.1529  0.1942
23979DOPC   D2A28428   3.524   1.737  13.900 -0.0538 -0.1608  0.2898
23979DOPC   C3A28429   3.613   1.766  13.490  0.2535 -0.1249  0.0755
23979DOPC   C4A28430   3.579   1.642  13.004  0.1359  0.1402  0.1895
23979DOPC   C1B28431   4.066   1.542  14.132  0.2550 -0.1432  0.0251
23979DOPC   D2B28432   4.034   1.537  13.606  0.0396  0.0901 -0.1191
23979DOPC   C3B28433   4.109   1.419  13.156  0.2420  0.0559  0.2401
23979DOPC   C4B28434   4.309   1.027  12.935  0.2690  0.1424  0.1321
23980DOPC   NC328435   1.989   3.859  14.229  0.0357 -0.1477  0.1372
23980DOPC   PO428436   2.251   3.580  14.121 -0.0238  0.4344  0.1123
23980DOPC   GL128437   2.200   3.353  13.691  0.0208  0.3129  0.1014
23980DOPC   GL228438   2.115   3.609  13.650  0.1868 -0.0781  0.0870
23980DOPC   C1A28439   2.328   3.205  13.326 -0.0520  0.0181  0.1112
23980DOPC   D2A28440   2.139   2.920  12.994  0.0161  0.0076  0.0836
23980DOPC   C3A28441   2.169   2.676  12.628  0.1752 -0.0953  0.2180
23980DOPC   C4A28442   2.212   2.540  12.154 -0.0223  0.1752 -0.0080
23980DOPC   C1B28443   1.746   3.630  13.408 -0.0189  0.0066  0.0314
23980DOPC   D2B28444   1.547   3.429  12.968  0.0876  0.1269 -0.3337
23980DOPC   C3B28445   1.248   3.472  12.583  0.1631 -0.0166 -0.1373
23980DOPC   C4B28446   0.895   3.688  12.323  0.4198 -0.1721 -0.0336
23981DOPC   NC328447  27.107   5.863  14.852  0.0653  0.0996 -0.0006
23981DOPC   PO428448  26.760   5.789  15.054 -0.2276  0.2227  0.0405
23981DOPC   GL128449  26.569   5.754  14.671 -0.2414 -0.1212  0.4712
23981DOPC   GL228450  26.453   5.477  14.719 -0.1087 -0.1583 -0.4323
23981DOPC   C1A28451  26.500   5.770  14.241 -0.0778  0.1209  0.1548
23981DOPC   D2A28452  26.400   5.847  13.752  0.0455 -0.0585 -0.1164
23981DOPC   C3A28453  26.442   5.554  13.436  0.0778  0.1448  0.1926
23981DOPC   C4A28454  26.678   5.459  13.004 -0.2106  0.0608 -0.1499
23981DOPC   C1B28455  26.281   5.335  14.295  0.0499 -0.1853  0.0152
23981DOPC   D2B28456  26.231   5.308  13.803  0.4123  0.0218  0.1664
23981DOPC   C3B28457  26.048   4.947  13.642 -0.0475 -0.2420 -0.1291
23981DOPC   C4B28458  26.093   4.514  13.411  0.3546 -0.1267 -0.0371
23982DOPC   NC328459  11.994   3.605  15.402  0.1198 -0.0665 -0.2835
23982DOPC   PO428460  12.373   3.477  15.430  0.3963 -0.1286  0.0246
23982DOPC   GL128461  12.650   3.252  15.130  0.0457 -0.3704  0.0478
23982DOPC   GL228462  12.560   3.570  14.989 -0.3928 -0.1772  0.0340
23982DOPC   C1A28463  12.615   2.836  14.862 -0.0256  0.0997  0.1535
23982DOPC   D2A28464  12.434   2.459  14.538 -0.0893 -0.1298 -0.0610
23982DOPC   C3A28465  12.478   2.600  14.056  0.0375 -0.1404 -0.2025
23982DOPC   C4A28466  12.578   2.567  13.646 -0.0720 -0.2704 -0.1475
23982DOPC   C1B28467  12.396   3.369  14.665  0.1261  0.0615 -0.0149
23982DOPC   D2B28468  12.192   3.374  14.231 -0.4587  0.2060 -0.2427
23982DOPC   C3B28469  11.930   3.534  13.823 -0.0302  0.0182  0.1146
23982DOPC   C4B28470  11.782   3.715  13.387  0.1613  0.1902 -0.2186
23983DOPC   NC328471  10.589   0.762  15.372 -0.0922  0.1174 -0.1659
23983DOPC   PO428472  10.464   0.404  15.275  0.2291 -0.1573  0.1251
23983DOPC   GL128473  10.433   0.264  14.899 -0.2461 -0.0409 -0.0955
23983DOPC   GL228474  10.668   0.110  14.881  0.0928  0.1547  0.0703
23983DOPC   C1A28475  10.500   0.338  14.429 -0.1090  0.1301  0.0545
23983DOPC   D2A28476  10.570   0.453  13.896 -0.0401 -0.3086  0.2928
23983DOPC   C3A28477  10.714   0.650  13.514  0.0867 -0.0019 -0.0271
23983DOPC   C4A28478  10.657   0.870  13.060 -0.0635 -0.4730  0.1773
23983DOPC   C1B28479  11.032   0.265  14.532  0.0732 -0.1745 -0.4991
23983DOPC   D2B28480  11.055   0.590  14.129 -0.0296  0.0796 -0.0747
23983DOPC   C3B28481  11.263   0.676  13.760 -0.0803 -0.1249  0.1683
23983DOPC   C4B28482  11.598   0.629  13.340  0.0454  0.0219 -0.2027
23984DOPC   NC328483  29.672   5.094  14.916  0.1255  0.1075 -0.0994
23984DOPC   PO428484  29.935   5.166  14.635 -0.1868  0.2706  0.0076
23984DOPC   GL128485  29.880   5.096  14.255  0.3230 -0.3531 -0.2068
23984DOPC   GL228486  30.134   4.900  14.281 -0.0769  0.0770  0.1731
23984DOPC   C1A28487  29.852   5.197  13.789  0.0553  0.2913 -0.0325
23984DOPC   D2A28488  29.831   5.513  13.339 -0.0841  0.0763 -0.1436
23984DOPC   C3A28489  30.256   5.549  13.357 -0.3164  0.1936  0.4518
23984DOPC   C4A28490  30.673   5.420  13.629  0.0424 -0.0274 -0.0500
23984DOPC   C1B28491  29.933   4.731  13.923 -0.2854  0.0130 -0.1671
23984DOPC   D2B28492  29.742   4.566  13.514 -0.1572 -0.0375 -0.0530
23984DOPC   C3B28493  29.733   4.242  13.168 -0.1368 -0.3442  0.4603
23984DOPC   C4B28494  29.620   4.019  12.733  0.0492  0.3719 -0.0972
23985DOPC   NC328495  10.301   7.053  15.446  0.0089  0.0864  0.0691
23985DOPC   PO428496  10.161   7.323  15.216 -0.0404 -0.0264 -0.2101
23985DOPC   GL128497  10.091   7.321  14.896 -0.0919  0.0814  0.1716
23985DOPC   GL228498  10.248   7.179  14.663 -0.1017  0.1999 -0.0507
23985DOPC   C1A28499   9.864   7.614  14.660  0.2084 -0.1280  0.4261
23985DOPC   D2A28500  10.021   7.985  14.401 -0.0372  0.1861  0.0566
23985DOPC   C3A28501  10.092   8.269  14.023  0.1369  0.0646  0.3068
23985DOPC   C4A28502  10.069   8.528  13.568 -0.0992  0.1245 -0.1319
23985DOPC   C1B28503  10.028   7.199  14.246  0.4580  0.1737 -0.1377
23985DOPC   D2B28504  10.088   7.317  13.770 -0.0388 -0.2565  0.0190
23985DOPC   C3B28505   9.797   7.593  13.521 -0.0532  0.1565  0.0963
23985DOPC   C4B28506   9.578   7.493  13.044 -0.0971 -0.3324 -0.0318
23986DOPC   NC328507  30.058   2.606  15.267 -0.1948 -0.0367 -0.1647
23986DOPC   PO428508  30.161   2.829  14.962 -0.1529  0.0798 -0.1162
23986DOPC   GL128509  29.960   2.948  14.613  0.1173 -0.0083  0.0396
23986DOPC   GL228510  30.206   2.971  14.456 -0.2331 -0.0114  0.0355
23986DOPC   C1A28511  29.765   2.646  14.407  0.0875 -0.1992  0.3198
23986DOPC   D2A28512  29.964   2.173  14.347 -0.0662  0.0765  0.0412
23986DOPC   C3A28513  30.102   1.755  14.136  0.0647  0.1185 -0.1713
23986DOPC   C4A28514  29.769   1.413  14.007  0.1673  0.2312  0.1788
23986DOPC   C1B28515  30.112   3.185  14.007  0.1071 -0.0275 -0.2104
23986DOPC   D2B28516  29.875   3.309  13.550 -0.0279  0.1694  0.2562
23986DOPC   C3B28517  29.461   3.316  13.322  0.0003  0.0484  0.1148
23986DOPC   C4B28518  29.260   3.245  12.845  0.1587  0.0862  0.0676
23987DOPC   NC328519  13.238   3.276  15.795 -0.1028 -0.0270 -0.1571
23987DOPC   PO428520  13.504   3.544  15.599 -0.0480 -0.1240 -0.0144
23987DOPC   GL128521  13.613   3.654  15.179  0.3421 -0.2005  0.1666
23987DOPC   GL228522  13.797   3.796  15.081  0.1818  0.3580  0.0463
23987DOPC   C1A28523  13.522   3.433  14.790 -0.0083 -0.0341  0.2514
23987DOPC   D2A28524  13.549   3.154  14.374 -0.1905  0.2939 -0.2460
23987DOPC   C3A28525  13.432   2.762  14.269  0.1470 -0.0656  0.0592
23987DOPC   C4A28526  13.326   2.485  13.884  0.1468  0.2190  0.0920
23987DOPC   C1B28527  13.915   3.889  14.635 -0.2926  0.0253  0.0490
23987DOPC   D2B28528  14.099   3.934  14.206 -0.1522  0.0261  0.0193
23987DOPC   C3B28529  14.084   3.700  13.777 -0.0458 -0.0412  0.0949
23987DOPC   C4B28530  14.215   3.462  13.354  0.1171  0.2088  0.0646
23988DOPC   NC328531  15.785   3.791  14.989  0.0579 -0.4962  0.1571
23988DOPC   PO428532  15.561   3.504  14.858  0.1946 -0.0603 -0.0109
23988DOPC   GL128533  15.177   3.502  14.673 -0.0845 -0.4509  0.0290
23988DOPC   GL228534  15.158   3.246  14.732 -0.0091 -0.3063 -0.1568
23988DOPC   C1A28535  15.266   3.651  14.247  0.0943 -0.2418 -0.1534
23988DOPC   D2A28536  15.538   3.802  13.851 -0.1633  0.0346 -0.0324
23988DOPC   C3A28537  15.687   3.933  13.421  0.0855  0.1070 -0.0309
23988DOPC   C4A28538  15.788   4.131  13.027  0.0336 -0.0802 -0.0921
23988DOPC   C1B28539  14.960   2.994  14.505  0.0912 -0.2522 -0.1886
23988DOPC   D2B28540  14.749   3.012  13.991 -0.0355 -0.0165 -0.0889
23988DOPC   C3B28541  14.811   3.322  13.565  0.1589 -0.0490  0.2605
23988DOPC   C4B28542  14.719   3.354  13.032  0.1411 -0.1400 -0.0604
23989DOPC   NC328543  12.552   4.466  14.903 -0.1865  0.1401 -0.2642
23989DOPC   PO428544  12.371   4.426  15.229  0.0277  0.2191 -0.2102
23989DOPC   GL128545  12.100   4.280  14.881  0.0106  0.0380  0.1265
23989DOPC   GL228546  11.986   4.487  14.923 -0.2386 -0.2284  0.3391
23989DOPC   C1A28547  12.072   4.249  14.468 -0.2756  0.1609  0.2296
23989DOPC   D2A28548  11.963   4.057  13.990 -0.1742  0.0181  0.1375
23989DOPC   C3A28549  12.242   3.884  13.642 -0.0078  0.1193  0.0251
23989DOPC   C4A28550  12.644   4.240  13.649 -0.0390 -0.2702 -0.1344
23989DOPC   C1B28551  11.680   4.669  14.655  0.2817 -0.0471  0.1021
23989DOPC   D2B28552  11.329   4.992  14.461  0.0306 -0.1267  0.0428
23989DOPC   C3B28553  11.264   4.859  14.082  0.1545  0.1772  0.1132
23989DOPC   C4B28554  11.218   4.518  13.748  0.0859  0.0864  0.3020
23990DOPC   NC328555  10.403   2.080  15.311  0.1368 -0.0865  0.0036
23990DOPC   PO428556  10.614   1.769  15.201 -0.1599  0.0428 -0.0173
23990DOPC   GL128557  10.671   1.654  14.737  0.2776  0.0559 -0.0666
23990DOPC   GL228558  10.899   1.708  14.860 -0.1799  0.0130  0.0203
23990DOPC   C1A28559  10.586   1.828  14.387 -0.2095  0.0579 -0.0970
23990DOPC   D2A28560  10.710   2.085  13.980  0.0079 -0.0852  0.2680
23990DOPC   C3A28561  10.690   2.132  13.542  0.0865 -0.2290 -0.1887
23990DOPC   C4A28562  10.433   2.063  13.101  0.0923 -0.1556 -0.1343
23990DOPC   C1B28563  11.226   1.585  14.537 -0.0056 -0.2268  0.1133
23990DOPC   D2B28564  11.562   1.448  14.218  0.1999  0.1757  0.0974
23990DOPC   C3B28565  11.832   1.409  13.895  0.0160  0.1385  0.2995
23990DOPC   C4B28566  12.128   1.766  13.654 -0.0733  0.3259  0.0596
23991DOPC   NC328567   1.348   3.005  14.491  0.0397  0.1186  0.0217
23991DOPC   PO428568   1.610   3.057  14.218 -0.1751  0.3874  0.0336
23991DOPC   GL128569   1.726   2.796  13.892 -0.2338  0.0114 -0.1057
23991DOPC   GL228570   1.750   3.083  13.733  0.0657  0.0921  0.1574
23991DOPC   C1A28571   1.891   2.385  13.709  0.0656  0.0468 -0.0169
23991DOPC   D2A28572   1.989   2.484  13.228  0.1203 -0.0229  0.0399
23991DOPC   C3A28573   2.280   2.165  12.940 -0.0885 -0.0862  0.2013
23991DOPC   C4A28574   2.590   1.804  12.665  0.0504 -0.2290 -0.0591
23991DOPC   C1B28575   1.370   3.175  13.459 -0.2655 -0.3453 -0.0326
23991DOPC   D2B28576   1.063   3.227  13.051 -0.2274 -0.1494  0.4018
23991DOPC   C3B28577   0.732   3.315  12.797  0.1362  0.0201  0.0790
23991DOPC   C4B28578   0.626   3.243  12.345  0.0077  0.0441  0.0849
23992DOPC   NC328579   1.209   2.123  14.219  0.0465  0.2516  0.2930
23992DOPC   PO428580   0.960   1.886  14.084  0.1006 -0.0444  0.3145
23992DOPC   GL128581   0.662   1.766  13.739 -0.1201  0.0379 -0.0476
23992DOPC   GL228582   0.578   2.084  13.686  0.0680  0.1821 -0.6059
23992DOPC   C1A28583   0.756   1.553  13.368  0.0705  0.2934  0.0194
23992DOPC   D2A28584   0.906   1.097  13.123  0.0878 -0.0255 -0.2311
23992DOPC   C3A28585   0.799   0.954  12.678  0.0007 -0.0676  0.0022
23992DOPC   C4A28586   0.731   0.968  12.200 -0.0057  0.1463  0.0171
23992DOPC   C1B28587   0.535   2.148  13.219 -0.1955 -0.1229 -0.1043
23992DOPC   D2B28588   0.112   2.108  12.903 -0.2974 -0.0603  0.1428
23992DOPC   C3B28589  -0.091   2.199  12.545  0.1264  0.0228  0.0461
23992DOPC   C4B28590  -0.183   2.287  12.034 -0.0422  0.2885  0.1530
23993DOPC   NC328591   0.469   1.866  14.221  0.0248 -0.5204 -0.1953
23993DOPC   PO428592   0.224   2.053  14.368  0.4919  0.4222 -0.2876
23993DOPC   GL128593   0.106   2.053  13.973  0.0306  0.1847  0.1157
23993DOPC   GL228594  -0.135   1.850  13.908  0.1683 -0.0841 -0.3218
23993DOPC   C1A28595   0.164   2.267  13.639 -0.2182 -0.0559  0.3226
23993DOPC   D2A28596   0.300   2.560  13.204  0.1009 -0.3641  0.3533
23993DOPC   C3A28597   0.244   2.597  12.769 -0.2174  0.0089  0.0391
23993DOPC   C4A28598   0.099   2.649  12.312  0.1122 -0.0862 -0.0836
23993DOPC   C1B28599  -0.299   1.809  13.480  0.4433 -0.0261  0.1964
23993DOPC   D2B28600  -0.338   1.358  13.291 -0.3749  0.1099 -0.1183
23993DOPC   C3B28601  -0.098   1.007  13.039  0.0043 -0.0606 -0.2702
23993DOPC   C4B28602   0.222   0.828  12.642  0.2525 -0.1627 -0.1305
23994DOPC   NC328603  28.519   6.466  14.383 -0.3008 -0.1905 -0.0453
23994DOPC   PO428604  28.364   6.828  14.457 -0.1473 -0.0804 -0.3130
23994DOPC   GL128605  28.438   7.154  14.163  0.2259  0.0381 -0.1380
23994DOPC   GL228606  28.133   7.214  14.241 -0.1279 -0.0319 -0.0005
23994DOPC   C1A28607  28.437   6.928  13.743 -0.0371 -0.1617 -0.1872
23994DOPC   D2A28608  28.437   6.946  13.213 -0.0057 -0.1864  0.0132
23994DOPC   C3A28609  28.646   6.469  13.250  0.0415  0.0322 -0.0114
23994DOPC   C4A28610  28.924   6.288  13.661  0.0343  0.1246  0.3105
23994DOPC   C1B28611  27.854   7.209  13.903 -0.0656  0.2077 -0.1481
23994DOPC   D2B28612  27.857   7.392  13.472  0.1315  0.2551  0.1536
23994DOPC   C3B28613  27.779   7.658  13.119 -0.2418 -0.1326  0.1077
23994DOPC   C4B28614  27.929   8.074  12.782 -0.1441  0.0240  0.2152
23995DOPC   NC328615  21.527   7.079  15.477  0.2375  0.2851 -0.0997
23995DOPC   PO428616  21.197   7.268  15.454 -0.3693 -0.0301 -0.0453
23995DOPC   GL128617  20.826   7.287  15.137  0.1395  0.2069 -0.0341
23995DOPC   GL228618  21.084   7.300  14.988  0.0736  0.1931  0.0549
23995DOPC   C1A28619  20.778   6.958  14.799  0.1278  0.1646  0.0139
23995DOPC   D2A28620  20.940   6.732  14.394  0.3290 -0.0579  0.0566
23995DOPC   C3A28621  20.940   6.594  13.961 -0.1961  0.2330 -0.0083
23995DOPC   C4A28622  20.779   6.330  13.529  0.0304  0.1329 -0.0611
23995DOPC   C1B28623  21.117   7.190  14.507  0.1201 -0.1433 -0.1298
23995DOPC   D2B28624  20.822   7.149  14.198  0.0325  0.3937 -0.0556
23995DOPC   C3B28625  20.695   7.041  13.830 -0.2223  0.1971 -0.2671
23995DOPC   C4B28626  20.866   6.835  13.471  0.0203  0.0223  0.0340
23996DOPC   NC328627  12.894   4.720  15.717  0.0462 -0.0288 -0.0536
23996DOPC   PO428628  12.971   4.811  15.316  0.1206 -0.1894  0.0006
23996DOPC   GL128629  13.136   4.847  14.908  0.1598 -0.0788  0.2431
23996DOPC   GL228630  13.114   5.113  14.948 -0.1728 -0.1659  0.3521
23996DOPC   C1A28631  12.925   4.677  14.568 -0.2937 -0.0981  0.2009
23996DOPC   D2A28632  12.506   4.485  14.413  0.0800  0.3386  0.2686
23996DOPC   C3A28633  12.328   4.454  13.947 -0.1314  0.0585  0.1377
23996DOPC   C4A28634  12.203   4.410  13.455  0.0104  0.0896 -0.3714
23996DOPC   C1B28635  12.846   5.235  14.643  0.1658 -0.3193 -0.0122
23996DOPC   D2B28636  12.494   5.007  14.393 -0.0222  0.3850 -0.1621
23996DOPC   C3B28637  12.247   5.002  13.968 -0.2460 -0.2216 -0.0103
23996DOPC   C4B28638  12.061   4.909  13.564 -0.2431 -0.1464 -0.1083
23997DOPC   NC328639  17.557   1.462  15.538  0.2035 -0.1927  0.1457
23997DOPC   PO428640  17.642   1.648  15.214 -0.2689  0.0183  0.1977
23997DOPC   GL128641  17.580   1.564  14.796  0.1497  0.1911 -0.1350
23997DOPC   GL228642  17.584   1.259  14.761  0.0677 -0.1513 -0.1557
23997DOPC   C1A28643  17.490   1.737  14.392  0.1833 -0.0739  0.2913
23997DOPC   D2A28644  17.414   1.973  14.022 -0.2324  0.0955  0.1459
23997DOPC   C3A28645  17.220   2.094  13.658 -0.0562  0.0890  0.0408
23997DOPC   C4A28646  17.108   2.278  13.182  0.0872  0.1541 -0.2994
23997DOPC   C1B28647  17.656   1.214  14.313  0.1077 -0.0508  0.2006
23997DOPC   D2B28648  17.691   0.935  13.864 -0.1420  0.0626  0.1634
23997DOPC   C3B28649  17.966   1.195  13.693 -0.2212  0.1522 -0.2122
23997DOPC   C4B28650  18.453   1.444  13.726  0.1252 -0.1695 -0.0192
23998DOPC   NC328651  12.926   1.468  16.221 -0.3819  0.0731 -0.0945
23998DOPC   PO428652  12.980   1.215  15.914 -0.2052  0.1628 -0.1113
23998DOPC   GL128653  13.083   1.267  15.433  0.0647 -0.0039  0.2082
23998DOPC   GL228654  12.795   1.347  15.405 -0.2278  0.2866  0.0453
23998DOPC   C1A28655  13.234   1.568  15.198  0.0896  0.1120 -0.0583
23998DOPC   D2A28656  13.298   2.063  15.093  0.0005 -0.2839  0.1399
23998DOPC   C3A28657  13.347   2.424  14.817 -0.1248 -0.1268 -0.3064
23998DOPC   C4A28658  13.457   2.890  14.788 -0.2378 -0.0534  0.2189
23998DOPC   C1B28659  12.765   1.234  14.989  0.0788 -0.0610 -0.1361
23998DOPC   D2B28660  12.533   0.915  14.762  0.2082  0.0527 -0.2685
23998DOPC   C3B28661  12.544   0.785  14.280  0.4110 -0.0425 -0.1145
23998DOPC   C4B28662  12.541   0.715  13.777  0.3588  0.0570  0.1830
23999DOPC   NC328663  26.582   4.991  15.379  0.0692 -0.0129 -0.0155
23999DOPC   PO428664  26.698   5.291  15.116  0.0326  0.0088  0.2092
23999DOPC   GL128665  26.852   5.373  14.770 -0.2821 -0.0069  0.1132
23999DOPC   GL228666  26.951   5.088  14.724  0.3899  0.2254 -0.0273
23999DOPC   C1A28667  26.850   5.461  14.371 -0.2560 -0.0488 -0.1445
23999DOPC   D2A28668  26.909   5.758  13.948 -0.1230  0.2045  0.2221
23999DOPC   C3A28669  26.793   6.114  13.607 -0.1944 -0.0126 -0.0423
23999DOPC   C4A28670  26.707   6.477  13.261 -0.0635  0.2249  0.0775
23999DOPC   C1B28671  26.590   4.978  14.454  0.3522 -0.0066 -0.1176
23999DOPC   D2B28672  26.271   4.876  14.079  0.0134 -0.0482 -0.0220
23999DOPC   C3B28673  25.929   4.591  13.989  0.2547  0.0774 -0.0249
23999DOPC   C4B28674  25.626   4.397  13.707 -0.2422  0.2136 -0.0676
24000DOPC   NC328675  22.069   6.741  15.275 -0.2816  0.1673 -0.0722
24000DOPC   PO428676  22.187   6.426  15.487  0.0297  0.1722 -0.1313
24000DOPC   GL128677  22.195   6.129  15.282 -0.1396  0.1136  0.3184
24000DOPC   GL228678  21.984   6.288  15.073 -0.2277 -0.2451  0.4361
24000DOPC   C1A28679  22.454   5.855  14.970  0.0191  0.0357  0.1480
24000DOPC   D2A28680  22.812   5.855  14.711  0.3304 -0.2110  0.0612
24000DOPC   C3A28681  22.967   5.861  14.298 -0.1170  0.1629 -0.0477
24000DOPC   C4A28682  23.010   5.698  13.815 -0.0031 -0.2289 -0.3284
24000DOPC   C1B28683  21.952   6.070  14.664 -0.0924  0.0864  0.2032
24000DOPC   D2B28684  21.975   5.780  14.235  0.1912  0.0878  0.1239
24000DOPC   C3B28685  21.635   5.956  13.962 -0.1161  0.0034 -0.1281
24000DOPC   C4B28686  21.343   5.804  13.580  0.0715 -0.0604 -0.0096
24001DOPC   NC328687  26.642   1.496  15.493 -0.3322  0.1576 -0.1221
24001DOPC   PO428688  26.767   1.721  15.219  0.0916  0.0368 -0.0351
24001DOPC   GL128689  26.862   1.518  14.775  0.3846 -0.6001 -0.1291
24001DOPC   GL228690  26.571   1.652  14.736  0.1914 -0.0504 -0.3972
24001DOPC   C1A28691  26.840   1.321  14.349 -0.0335  0.0089  0.3531
24001DOPC   D2A28692  26.906   1.261  13.912  0.1356 -0.0956  0.0708
24001DOPC   C3A28693  26.944   0.967  13.534  0.1016 -0.1412  0.3816
24001DOPC   C4A28694  27.105   0.634  13.212  0.0308  0.1343 -0.2430
24001DOPC   C1B28695  26.759   2.016  14.507  0.1503  0.1317 -0.0164
24001DOPC   D2B28696  26.690   2.319  14.111 -0.1380  0.0072  0.2943
24001DOPC   C3B28697  26.421   2.201  13.772 -0.1524  0.1612 -0.0314
24001DOPC   C4B28698  26.137   2.115  13.366  0.1242 -0.0348  0.0110
24002DOPC   NC328699  25.564   2.546  15.472  0.1633  0.0505  0.2254
24002DOPC   PO428700  25.523   2.248  15.186  0.0864  0.3595 -0.2739
24002DOPC   GL128701  25.394   2.248  14.736  0.1914 -0.1303 -0.0414
24002DOPC   GL228702  25.347   1.950  14.877  0.0377  0.0109 -0.0739
24002DOPC   C1A28703  25.561   2.258  14.314 -0.2862 -0.1424  0.2411
24002DOPC   D2A28704  25.677   2.160  13.861  0.0247  0.1532 -0.2575
24002DOPC   C3A28705  26.071   1.894  13.786 -0.0609  0.0123 -0.3098
24002DOPC   C4A28706  26.468   1.632  13.704 -0.0750  0.1315  0.0037
24002DOPC   C1B28707  25.443   1.677  14.493  0.3811 -0.1672  0.2018
24002DOPC   D2B28708  25.404   1.363  14.149  0.4677  0.0213  0.2964
24002DOPC   C3B28709  25.413   1.200  13.722 -0.1507  0.0725  0.0502
24002DOPC   C4B28710  25.462   0.914  13.336 -0.1840  0.0822 -0.0314
24003DOPC   NC328711  25.720   5.574  15.378 -0.1886  0.0714  0.0023
24003DOPC   PO428712  25.835   5.819  15.069  0.2097 -0.0813  0.0062
24003DOPC   GL128713  26.091   5.730  14.824 -0.0210 -0.0921 -0.1154
24003DOPC   GL228714  26.062   5.468  14.790 -0.2539  0.0298  0.0106
24003DOPC   C1A28715  26.051   5.814  14.433 -0.0322 -0.2234  0.1048
24003DOPC   D2A28716  25.901   5.802  13.912 -0.1944  0.0320 -0.0291
24003DOPC   C3A28717  25.736   5.446  13.657 -0.1661 -0.1107 -0.0209
24003DOPC   C4A28718  25.888   5.206  13.275  0.1735  0.2389 -0.2506
24003DOPC   C1B28719  25.904   5.156  14.576 -0.2820  0.1148 -0.2459
24003DOPC   D2B28720  25.726   4.784  14.421  0.2267 -0.1518 -0.0827
24003DOPC   C3B28721  25.482   4.776  13.950  0.1854 -0.1345 -0.1180
24003DOPC   C4B28722  25.528   4.997  13.544 -0.2747  0.2104 -0.1925
24004DOPC   NC328723  17.063   3.304  15.679  0.3248  0.0370 -0.1565
24004DOPC   PO428724  16.906   3.157  15.321  0.2970 -0.2653  0.0384
24004DOPC   GL128725  16.768   3.220  14.917  0.0248  0.1485  0.2765
24004DOPC   GL228726  16.510   3.326  14.895  0.0859 -0.0719 -0.0991
24004DOPC   C1A28727  16.904   3.505  14.636 -0.1161 -0.0362  0.1766
24004DOPC   D2A28728  17.284   3.708  14.369  0.3221 -0.0277  0.0155
24004DOPC   C3A28729  17.187   3.734  13.896 -0.1079 -0.0922  0.0758
24004DOPC   C4A28730  17.112   3.942  13.463  0.2515  0.2230 -0.0511
24004DOPC   C1B28731  16.420   3.479  14.449  0.0251  0.0833  0.0625
24004DOPC   D2B28732  16.194   3.797  14.118 -0.1094  0.1552  0.1132
24004DOPC   C3B28733  16.209   4.264  14.039 -0.1835  0.0831  0.3610
24004DOPC   C4B28734  16.094   4.745  13.991 -0.1796  0.0391  0.0511
24005DOPC   NC328735  23.267   4.605  15.673  0.1576 -0.0181 -0.2984
24005DOPC   PO428736  23.451   4.536  15.323 -0.2423  0.0177 -0.2526
24005DOPC   GL128737  23.365   4.802  14.959  0.0831  0.2326 -0.1888
24005DOPC   GL228738  23.253   4.545  14.892 -0.0693 -0.1459  0.2829
24005DOPC   C1A28739  23.645   5.049  14.726  0.1952 -0.5114  0.1653
24005DOPC   D2A28740  23.998   4.878  14.405 -0.1108  0.3967  0.0676
24005DOPC   C3A28741  23.969   4.786  13.951 -0.2575 -0.0189 -0.0709
24005DOPC   C4A28742  23.939   4.566  13.472  0.1746 -0.2103 -0.0531
24005DOPC   C1B28743  23.082   4.479  14.515  0.1572  0.1100  0.0486
24005DOPC   D2B28744  22.737   4.357  14.161  0.1870 -0.0159 -0.0222
24005DOPC   C3B28745  22.420   4.331  13.818 -0.2058 -0.4583 -0.1182
24005DOPC   C4B28746  22.175   3.966  13.567  0.1630 -0.1134  0.0059
24006DOPC   NC328747  14.859   5.161  15.011  0.0245 -0.0864  0.1512
24006DOPC   PO428748  15.257   5.005  15.020 -0.1146 -0.2230 -0.3137
24006DOPC   GL128749  15.399   4.938  14.692 -0.1758 -0.1263 -0.2427
24006DOPC   GL228750  15.599   5.182  14.695 -0.0939  0.1034 -0.1864
24006DOPC   C1A28751  15.308   4.676  14.251 -0.0432 -0.2329 -0.2362
24006DOPC   D2A28752  14.860   4.529  14.043 -0.2388 -0.1486 -0.0423
24006DOPC   C3A28753  14.747   4.801  13.669  0.0125  0.2559 -0.0376
24006DOPC   C4A28754  14.436   5.191  13.686 -0.1058 -0.0774  0.4362
24006DOPC   C1B28755  15.405   5.225  14.325  0.2700 -0.3498  0.2462
24006DOPC   D2B28756  15.215   5.029  13.887 -0.0402 -0.1383  0.1164
24006DOPC   C3B28757  15.248   4.638  13.608 -0.1307  0.0603 -0.1777
24006DOPC   C4B28758  15.497   4.417  13.252  0.1952 -0.2127  0.1097
24007DOPC   NC328759   1.533   0.242  14.753  0.0520 -0.0101  0.2776
24007DOPC   PO428760   1.706   0.437  14.474  0.0722 -0.0169 -0.2107
24007DOPC   GL128761   1.762   0.259  14.170  0.2215  0.0448 -0.0094
24007DOPC   GL228762   1.544   0.063  14.314 -0.1626  0.1788  0.1753
24007DOPC   C1A28763   1.502   0.304  13.899  0.1324  0.2573 -0.0701
24007DOPC   D2A28764   1.340   0.351  13.409 -0.0338 -0.0498 -0.0659
24007DOPC   C3A28765   1.502   0.314  12.963  0.2597 -0.1021  0.2185
24007DOPC   C4A28766   1.816  -0.033  12.724 -0.2543 -0.0875  0.1146
24007DOPC   C1B28767   1.188  -0.122  14.053 -0.0891  0.0197  0.1507
24007DOPC   D2B28768   0.866  -0.082  13.640  0.0318 -0.1619 -0.0823
24007DOPC   C3B28769   0.964   0.089  13.170  0.1298 -0.2955 -0.3681
24007DOPC   C4B28770   0.780   0.087  12.732 -0.1230  0.0242 -0.0161
24008DOPC   NC328771  17.381   4.028  15.717  0.2111 -0.0110 -0.1289
24008DOPC   PO428772  17.234   3.810  15.445 -0.3727 -0.0119  0.1196
24008DOPC   GL128773  17.365   3.823  15.020  0.1401 -0.0332 -0.2310
24008DOPC   GL228774  17.150   3.664  14.941  0.1117 -0.4292  0.0559
24008DOPC   C1A28775  17.345   4.136  14.740 -0.0588 -0.0475  0.1761
24008DOPC   D2A28776  17.608   4.526  14.909 -0.1052 -0.2423  0.1171
24008DOPC   C3A28777  17.962   4.635  14.571  0.2772 -0.1096 -0.1012
24008DOPC   C4A28778  18.376   4.604  14.341 -0.0340  0.0815  0.1772
24008DOPC   C1B28779  17.211   3.194  14.681 -0.2614  0.2864 -0.0521
24008DOPC   D2B28780  17.476   3.244  14.265 -0.0380 -0.2771 -0.1460
24008DOPC   C3B28781  17.432   2.989  13.855  0.0321 -0.1154 -0.2459
24008DOPC   C4B28782  17.387   2.972  13.337 -0.1715  0.1777  0.2764
24009DOPC   NC328783  28.452   4.171  14.491 -0.0313 -0.1666 -0.0303
24009DOPC   PO428784  28.426   4.504  14.672 -0.0614 -0.0537  0.0607
24009DOPC   GL128785  28.620   4.768  14.321 -0.1854  0.1005  0.1923
24009DOPC   GL228786  28.640   4.467  14.208 -0.0602 -0.1910 -0.1979
24009DOPC   C1A28787  28.715   4.908  13.883 -0.0272 -0.0507  0.3330
24009DOPC   D2A28788  28.855   4.846  13.344  0.0787 -0.0922  0.0094
24009DOPC   C3A28789  29.058   4.966  12.988  0.0368  0.2298  0.1715
24009DOPC   C4A28790  29.368   4.997  12.610  0.2123 -0.0595  0.1935
24009DOPC   C1B28791  28.340   4.320  14.034  0.0394  0.0194  0.0455
24009DOPC   D2B28792  28.003   4.206  13.614 -0.3466 -0.0307  0.0649
24009DOPC   C3B28793  27.817   4.098  13.229 -0.2512 -0.1221  0.1731
24009DOPC   C4B28794  27.778   3.807  12.840 -0.2677  0.0415 -0.0401
24010DOPC   NC328795  10.989   0.015  15.281 -0.3145 -0.0162 -0.0209
24010DOPC   PO428796  11.273   0.267  15.235 -0.1794 -0.0853  0.1479
24010DOPC   GL128797  11.613   0.279  14.878 -0.0078 -0.1137  0.0160
24010DOPC   GL228798  11.403   0.438  14.768 -0.0127  0.0111  0.1681
24010DOPC   C1A28799  11.736   0.125  14.522  0.1332 -0.0212  0.1787
24010DOPC   D2A28800  11.746  -0.116  14.147 -0.0950  0.2432 -0.2301
24010DOPC   C3A28801  11.692  -0.067  13.724  0.0418  0.0572  0.0929
24010DOPC   C4A28802  11.879  -0.260  13.293  0.2438 -0.1844  0.0700
24010DOPC   C1B28803  11.532   0.657  14.364 -0.0604  0.0292  0.0757
24010DOPC   D2B28804  11.669   0.922  13.959 -0.0634  0.0592 -0.0167
24010DOPC   C3B28805  11.666   1.074  13.535  0.1011  0.1846 -0.0230
24010DOPC   C4B28806  11.521   1.172  13.055 -0.3559  0.1546  0.0479
24011DOPC   NC328807  16.626   2.612  15.292 -0.1356  0.1151  0.2079
24011DOPC   PO428808  16.299   2.793  15.252  0.1139  0.0845  0.1599
24011DOPC   GL128809  16.155   2.966  14.743  0.1776  0.3055  0.1491
24011DOPC   GL228810  16.457   2.910  14.771  0.0164  0.1426 -0.0275
24011DOPC   C1A28811  16.144   2.842  14.250 -0.0632  0.2635 -0.0622
24011DOPC   D2A28812  16.034   2.857  13.763  0.0235  0.1519  0.4077
24011DOPC   C3A28813  15.926   3.132  13.388 -0.2487 -0.0734 -0.2057
24011DOPC   C4A28814  15.663   3.478  13.143 -0.2893  0.2072  0.1905
24011DOPC   C1B28815  16.727   3.054  14.480  0.3406  0.2219  0.1378
24011DOPC   D2B28816  16.999   3.274  14.179  0.1080 -0.1127 -0.0891
24011DOPC   C3B28817  16.904   3.185  13.730 -0.0504 -0.0072  0.1414
24011DOPC   C4B28818  16.518   2.878  13.552 -0.2017  0.2232  0.1220
24012DOPC   NC328819  16.791   0.047  15.474 -0.2155 -0.2025 -0.0693
24012DOPC   PO428820  17.005   0.288  15.208  0.2534  0.0334 -0.3599
24012DOPC   GL128821  16.995   0.331  14.846  0.4404  0.5353  0.0601
24012DOPC   GL228822  16.754   0.355  14.672  0.1041  0.4790 -0.0143
24012DOPC   C1A28823  17.278   0.256  14.565 -0.0689  0.2688 -0.0756
24012DOPC   D2A28824  17.535   0.221  14.127 -0.1377  0.2461 -0.2508
24012DOPC   C3A28825  17.357  -0.067  13.778 -0.2657  0.1285  0.3220
24012DOPC   C4A28826  17.303  -0.073  13.236  0.0209 -0.1138  0.0499
24012DOPC   C1B28827  16.951   0.625  14.423  0.2828  0.1055 -0.0921
24012DOPC   D2B28828  17.211   0.932  14.114 -0.2004 -0.2853 -0.1325
24012DOPC   C3B28829  17.181   0.948  13.647 -0.1822 -0.4346  0.2979
24012DOPC   C4B28830  17.493   1.039  13.314 -0.3698  0.0809 -0.0211
24013DOPC   NC328831  15.904   0.695  15.550 -0.2203  0.2741 -0.1884
24013DOPC   PO428832  16.011   0.421  15.211 -0.0825 -0.1112  0.1798
24013DOPC   GL128833  16.052   0.472  14.817  0.1281 -0.0637 -0.1157
24013DOPC   GL228834  16.303   0.440  14.727 -0.2593  0.1900  0.0771
24013DOPC   C1A28835  16.105   0.864  14.601  0.1388 -0.1623 -0.2179
24013DOPC   D2A28836  16.085   1.039  14.148  0.1662  0.1321 -0.1307
24013DOPC   C3A28837  16.322   1.149  13.765  0.1108  0.0852  0.0183
24013DOPC   C4A28838  16.517   1.284  13.299  0.3241  0.1535  0.2008
24013DOPC   C1B28839  16.398   0.654  14.287  0.0232  0.1422 -0.0085
24013DOPC   D2B28840  16.686   0.790  13.870 -0.2555  0.2160  0.6086
24013DOPC   C3B28841  16.755   0.818  13.405 -0.1942 -0.2191 -0.0785
24013DOPC   C4B28842  16.692   0.973  12.911 -0.1481  0.2264  0.0317
24014DOPC   NC328843  15.880   2.736  15.041 -0.0931 -0.0537 -0.0580
24014DOPC   PO428844  15.511   2.876  15.005  0.2633 -0.0215  0.2131
24014DOPC   GL128845  15.575   3.059  14.630  0.1450  0.1423 -0.0835
24014DOPC   GL228846  15.737   2.802  14.574 -0.1416  0.0986 -0.0105
24014DOPC   C1A28847  15.416   3.163  14.215  0.2497  0.1559 -0.1225
24014DOPC   D2A28848  15.242   3.307  13.792  0.1499 -0.2641 -0.1414
24014DOPC   C3A28849  15.219   3.276  13.281 -0.2636 -0.0822 -0.1315
24014DOPC   C4A28850  15.118   3.565  12.875  0.0430  0.0044 -0.0049
24014DOPC   C1B28851  15.664   2.756  14.072  0.1302  0.2311 -0.2238
24014DOPC   D2B28852  15.527   2.733  13.631 -0.3724  0.0301 -0.0279
24014DOPC   C3B28853  15.071   2.742  13.486  0.0836  0.1709 -0.1413
24014DOPC   C4B28854  14.600   2.533  13.383 -0.1114 -0.1750  0.0853
24015DOPC   NC328855  13.392   4.734  15.674 -0.2879  0.1906 -0.0013
24015DOPC   PO428856  13.315   4.443  15.445  0.1416  0.0310 -0.1117
24015DOPC   GL128857  13.158   4.465  15.070  0.1729 -0.0038 -0.1800
24015DOPC   GL228858  12.985   4.280  14.964 -0.2287  0.2266  0.3542
24015DOPC   C1A28859  13.399   4.434  14.710  0.0081 -0.1218  0.0207
24015DOPC   D2A28860  13.611   4.166  14.335 -0.0244 -0.1041 -0.0144
24015DOPC   C3A28861  13.729   4.339  13.919 -0.4012 -0.1660 -0.0900
24015DOPC   C4A28862  14.059   4.154  13.612  0.0882 -0.2812 -0.0349
24015DOPC   C1B28863  13.073   4.128  14.531 -0.4268  0.0604 -0.0806
24015DOPC   D2B28864  13.262   3.720  14.296  0.0013 -0.1085 -0.1834
24015DOPC   C3B28865  13.212   3.673  13.860  0.1371 -0.0278  0.1578
24015DOPC   C4B28866  13.084   3.919  13.487  0.1576 -0.0929 -0.0271
24016DOPC   NC328867  15.310   6.081  15.047  0.1504 -0.1605 -0.0425
24016DOPC   PO428868  15.706   6.086  14.990  0.1242  0.0952  0.1351
24016DOPC   GL128869  15.731   6.042  14.542 -0.3869  0.3902  0.0744
24016DOPC   GL228870  15.488   5.904  14.533 -0.2151 -0.4141 -0.2049
24016DOPC   C1A28871  15.633   6.187  14.124 -0.2555  0.0082  0.0974
24016DOPC   D2A28872  15.663   6.400  13.684 -0.2606  0.1396 -0.1975
24016DOPC   C3A28873  15.517   6.832  13.666 -0.0073 -0.2838 -0.3071
24016DOPC   C4A28874  15.455   7.287  13.596  0.1456  0.2334 -0.2380
24016DOPC   C1B28875  15.526   5.657  14.218  0.0297  0.0168  0.0375
24016DOPC   D2B28876  15.432   5.508  13.753  0.0029  0.1124 -0.0620
24016DOPC   C3B28877  15.282   5.713  13.369  0.0001  0.1352  0.0114
24016DOPC   C4B28878  15.239   5.911  12.922  0.4773 -0.1940 -0.0406
24017DOPC   NC328879   0.986   7.103  15.162  0.0244  0.2901 -0.1879
24017DOPC   PO428880   0.954   7.325  14.820 -0.1609  0.1734  0.0651
24017DOPC   GL128881   0.789   7.244  14.368 -0.1339  0.2566  0.0988
24017DOPC   GL228882   1.028   7.451  14.282 -0.0104  0.5314 -0.1660
24017DOPC   C1A28883   0.431   7.387  14.170 -0.2015  0.0389 -0.1304
24017DOPC   D2A28884   0.047   7.409  13.778  0.0691  0.1386  0.0897
24017DOPC   C3A28885   0.224   7.861  13.773 -0.3145  0.0860 -0.1055
24017DOPC   C4A28886  -0.061   8.224  13.633  0.0834 -0.1092  0.2613
24017DOPC   C1B28887   0.892   7.257  13.875  0.3378 -0.2033  0.1129
24017DOPC   D2B28888   0.794   7.353  13.376  0.0248 -0.1782 -0.0299
24017DOPC   C3B28889   0.800   7.434  12.897  0.0369  0.0614  0.0579
24017DOPC   C4B28890   0.723   7.433  12.406  0.0626  0.2233 -0.0661
24018DOPC   NC328891  31.200   3.411  14.578  0.1924  0.0080 -0.0070
24018DOPC   PO428892  31.516   3.386  14.324 -0.1562  0.1836  0.1091
24018DOPC   GL128893  31.585   3.671  14.166  0.1135  0.0463 -0.0320
24018DOPC   GL228894  31.818   3.714  14.324 -0.4126  0.1922 -0.0258
24018DOPC   C1A28895  31.570   3.838  13.721  0.1693 -0.1067 -0.0768
24018DOPC   D2A28896  31.418   4.023  13.324  0.3046  0.1221 -0.2331
24018DOPC   C3A28897  31.041   4.164  13.086  0.2308 -0.1705  0.1257
24018DOPC   C4A28898  30.844   4.165  12.615 -0.2390 -0.2510 -0.0105
24018DOPC   C1B28899  32.012   3.676  13.945 -0.2418  0.0456  0.4802
24018DOPC   D2B28900  31.965   3.737  13.458 -0.0575 -0.1158  0.2439
24018DOPC   C3B28901  31.918   4.083  13.192  0.3135 -0.0220  0.2564
24018DOPC   C4B28902  32.047   4.476  12.858 -0.0229 -0.1513  0.0404
24019DOPC   NC328903  24.454   7.340  14.830 -0.0816  0.0267  0.1214
24019DOPC   PO428904  24.588   7.493  15.119  0.1201 -0.2813 -0.1254
24019DOPC   GL128905  24.568   7.860  14.939  0.1681  0.3129  0.0907
24019DOPC   GL228906  24.888   7.781  14.811 -0.0366 -0.0663  0.0327
24019DOPC   C1A28907  24.406   8.041  14.524  0.1963 -0.1097  0.0104
24019DOPC   D2A28908  24.272   8.271  14.087 -0.0380 -0.2856  0.1656
24019DOPC   C3A28909  23.875   8.288  13.890  0.2579 -0.3363  0.3455
24019DOPC   C4A28910  23.724   8.312  13.508 -0.0606 -0.0455 -0.3823
24019DOPC   C1B28911  24.811   7.874  14.320 -0.1056 -0.1071  0.0111
24019DOPC   D2B28912  24.554   7.842  13.870  0.0980 -0.1768  0.0635
24019DOPC   C3B28913  24.342   8.022  13.541 -0.0027  0.2180  0.0396
24019DOPC   C4B28914  23.902   7.877  13.245 -0.2786  0.0265 -0.0678
24020DOPC   NC328915  18.409   3.994  15.717  0.1010 -0.0033  0.1299
24020DOPC   PO428916  18.805   4.129  15.760  0.0606 -0.1443 -0.0589
24020DOPC   GL128917  18.918   3.999  15.376  0.1781 -0.1055  0.4169
24020DOPC   GL228918  18.547   4.100  15.295 -0.3105  0.2597  0.0032
24020DOPC   C1A28919  18.950   4.009  14.889 -0.0553 -0.1945  0.0818
24020DOPC   D2A28920  19.100   3.916  14.438  0.1334 -0.2886  0.0929
24020DOPC   C3A28921  19.175   4.364  14.182 -0.0590  0.2792  0.0992
24020DOPC   C4A28922  19.095   4.544  13.694 -0.1767  0.0588  0.1398
24020DOPC   C1B28923  18.562   4.343  14.921 -0.3902  0.1833  0.1886
24020DOPC   D2B28924  18.671   4.171  14.435 -0.1478  0.1147  0.5329
24020DOPC   C3B28925  18.719   4.265  13.981  0.0669 -0.0658  0.4142
24020DOPC   C4B28926  18.673   4.316  13.485  0.1037 -0.0041 -0.0700
24021DOPC   NC328927  20.381   1.526  15.243  0.0147  0.0384  0.1350
24021DOPC   PO428928  19.999   1.594  15.278  0.0980 -0.0041  0.1960
24021DOPC   GL128929  19.867   1.299  14.961  0.1340  0.1891 -0.1814
24021DOPC   GL228930  20.135   1.445  14.848  0.0950 -0.0879  0.0129
24021DOPC   C1A28931  19.536   1.126  14.727 -0.1753  0.1012  0.1439
24021DOPC   D2A28932  19.476   1.035  14.244  0.2940 -0.0831  0.0341
24021DOPC   C3A28933  19.256   0.854  13.924 -0.1822 -0.1918  0.2415
24021DOPC   C4A28934  19.120   0.882  13.447 -0.1856  0.1304 -0.0803
24021DOPC   C1B28935  20.082   1.228  14.483  0.1959  0.0293 -0.1222
24021DOPC   D2B28936  19.922   1.042  14.068  0.2623  0.1049 -0.0805
24021DOPC   C3B28937  19.877   1.422  13.770  0.0755 -0.0154  0.2537
24021DOPC   C4B28938  19.998   1.753  13.561  0.1961 -0.1078 -0.1180
24022DOPC   NC328939  30.303   0.208  15.022  0.0592  0.2428 -0.2232
24022DOPC   PO428940  30.389   0.138  14.666 -0.5161  0.1203 -0.1084
24022DOPC   GL128941  30.186   0.396  14.333 -0.0051  0.2260  0.0366
24022DOPC   GL228942  30.441   0.585  14.484  0.2877  0.2077  0.2748
24022DOPC   C1A28943  30.056   0.290  13.953 -0.0995 -0.2268 -0.0101
24022DOPC   D2A28944  29.862   0.201  13.502 -0.0652  0.1682  0.0546
24022DOPC   C3A28945  29.663   0.365  13.042  0.0240  0.3054 -0.1611
24022DOPC   C4A28946  29.265   0.586  12.873  0.0353  0.3651 -0.0004
24022DOPC   C1B28947  30.746   0.731  14.199 -0.1028 -0.1694 -0.0693
24022DOPC   D2B28948  31.117   0.938  13.820  0.1006 -0.2070  0.2708
24022DOPC   C3B28949  31.521   0.841  13.621  0.2062 -0.0381 -0.1476
24022DOPC   C4B28950  31.935   0.803  13.314  0.1298 -0.1060 -0.2740
24023DOPC   NC328951  29.977   4.092  14.418 -0.1582  0.1191 -0.1021
24023DOPC   PO428952  30.235   4.381  14.490 -0.1289  0.2055 -0.0001
24023DOPC   GL128953  30.478   4.481  14.152  0.0707  0.0978 -0.0879
24023DOPC   GL228954  30.262   4.273  14.032  0.3237 -0.0235 -0.1730
24023DOPC   C1A28955  30.634   4.556  13.793  0.1797 -0.1335 -0.1112
24023DOPC   D2A28956  30.569   4.727  13.332 -0.3140 -0.3622  0.0719
24023DOPC   C3A28957  30.573   5.196  13.126 -0.0080 -0.2252 -0.0626
24023DOPC   C4A28958  30.726   5.561  12.803  0.1199  0.0022 -0.4314
24023DOPC   C1B28959  30.187   4.355  13.611  0.1165 -0.1440  0.1030
24023DOPC   D2B28960  30.118   4.468  13.143 -0.1339 -0.2675 -0.4817
24023DOPC   C3B28961  30.114   4.439  12.690  0.2165 -0.0649 -0.1266
24023DOPC   C4B28962  30.112   4.384  12.244  0.0906 -0.0028  0.1000
24024DOPC   NC328963  23.017   6.672  15.044 -0.1815  0.1633 -0.1937
24024DOPC   PO428964  23.144   6.939  15.248  0.1954 -0.2152 -0.0042
24024DOPC   GL128965  23.309   7.055  14.876 -0.3268 -0.0652 -0.3193
24024DOPC   GL228966  23.168   7.365  14.924  0.0963  0.0659 -0.2606
24024DOPC   C1A28967  23.666   6.904  14.724  0.0295 -0.0565  0.0403
24024DOPC   D2A28968  23.804   6.944  14.226 -0.0992  0.4636  0.0074
24024DOPC   C3A28969  23.823   7.124  13.809  0.1557 -0.2818 -0.0977
24024DOPC   C4A28970  23.618   7.418  13.577  0.3102  0.3040 -0.1561
24024DOPC   C1B28971  22.908   7.403  14.591  0.1713  0.1278 -0.6433
24024DOPC   D2B28972  22.687   7.565  14.205  0.3124  0.3808  0.1725
24024DOPC   C3B28973  22.804   7.892  13.933 -0.1856  0.2848  0.4824
24024DOPC   C4B28974  22.840   8.145  13.530  0.1985 -0.3035  0.1749
24025DOPC   NC328975  19.272   4.212  15.657 -0.1012  0.2385 -0.2768
24025DOPC   PO428976  19.584   4.380  15.821 -0.2375  0.1446 -0.0506
24025DOPC   GL128977  19.762   4.543  15.470  0.1936  0.0227 -0.0402
24025DOPC   GL228978  19.753   4.302  15.344  0.1389  0.2825  0.4248
24025DOPC   C1A28979  19.453   4.819  15.285  0.1379  0.2403 -0.1910
24025DOPC   D2A28980  19.264   4.927  14.865  0.1994 -0.0325  0.3989
24025DOPC   C3A28981  19.226   4.865  14.373  0.2505 -0.1626 -0.2186
24025DOPC   C4A28982  19.441   4.771  14.010 -0.1717 -0.0716 -0.1534
24025DOPC   C1B28983  19.634   4.363  14.936  0.3223 -0.0944 -0.1000
24025DOPC   D2B28984  19.645   4.720  14.612 -0.1923  0.3198  0.1070
24025DOPC   C3B28985  19.735   4.500  14.229  0.0718 -0.0838  0.1012
24025DOPC   C4B28986  19.667   4.459  13.750 -0.1307  0.1357  0.1020
24026DOPC   NC328987  28.419   5.773  14.994 -0.0072  0.0191  0.3787
24026DOPC   PO428988  28.075   5.564  14.926 -0.3054 -0.1280  0.3019
24026DOPC   GL128989  28.056   5.503  14.496 -0.2218 -0.3315  0.0133
24026DOPC   GL228990  27.770   5.502  14.473  0.0397 -0.2888  0.1779
24026DOPC   C1A28991  28.249   5.735  14.172  0.2500  0.0178  0.0945
24026DOPC   D2A28992  28.379   5.967  13.713  0.0286 -0.0792  0.2700
24026DOPC   C3A28993  28.326   5.963  13.229 -0.1109 -0.2422  0.0779
24026DOPC   C4A28994  28.418   6.128  12.778  0.0211  0.1493  0.1169
24026DOPC   C1B28995  27.705   5.500  14.026  0.4362 -0.1978  0.0742
24026DOPC   D2B28996  27.542   5.515  13.569  0.0396 -0.0066 -0.0972
24026DOPC   C3B28997  27.278   5.564  13.175  0.0029  0.2325  0.0326
24026DOPC   C4B28998  27.159   5.562  12.734 -0.0779  0.0961  0.0993
24027DOPC   NC328999  24.661   5.999  15.282  0.1243  0.1152 -0.2219
24027DOPC   PO429000  24.840   5.740  14.998 -0.1698 -0.3827 -0.3023
24027DOPC   GL129001  24.936   5.768  14.629 -0.1054 -0.2364 -0.1051
24027DOPC   GL229002  24.717   5.624  14.496 -0.0866 -0.1206 -0.2272
24027DOPC   C1A29003  25.020   6.068  14.327 -0.1021 -0.0807  0.1144
24027DOPC   D2A29004  25.163   6.190  13.861 -0.0834 -0.0091  0.2075
24027DOPC   C3A29005  24.972   6.198  13.391 -0.1341  0.0247  0.1757
24027DOPC   C4A29006  24.617   6.281  13.108  0.0968  0.0154  0.1904
24027DOPC   C1B29007  24.694   5.255  14.358 -0.1566 -0.0901 -0.0622
24027DOPC   D2B29008  24.462   4.911  14.198  0.0711 -0.3810 -0.0828
24027DOPC   C3B29009  24.382   5.095  13.795  0.2368  0.2001 -0.1604
24027DOPC   C4B29010  24.540   5.389  13.421 -0.0436 -0.1001 -0.0273
24028DOPC   NC329011  24.294   2.060  15.239 -0.3831  0.0424 -0.0479
24028DOPC   PO429012  24.529   2.310  15.022 -0.4203 -0.0207  0.1850
24028DOPC   GL129013  24.619   2.464  14.684  0.5331  0.0966  0.1894
24028DOPC   GL229014  24.916   2.511  14.747  0.0600  0.1143  0.4059
24028DOPC   C1A29015  24.565   2.274  14.280 -0.0373  0.2192  0.0019
24028DOPC   D2A29016  24.440   2.390  13.761 -0.1746 -0.3332 -0.0199
24028DOPC   C3A29017  24.687   2.296  13.418  0.3747 -0.2671  0.3248
24028DOPC   C4A29018  24.726   2.055  12.980 -0.1256  0.1735 -0.1119
24028DOPC   C1B29019  24.756   2.915  14.559 -0.1441 -0.0066  0.1300
24028DOPC   D2B29020  24.597   3.274  14.269 -0.0864  0.2113 -0.1766
24028DOPC   C3B29021  24.963   3.540  14.036  0.0665  0.2041  0.0615
24028DOPC   C4B29022  25.308   3.942  13.975  0.1578  0.0182 -0.0287
24029DOPC   NC329023   9.538   4.572  15.528  0.2275  0.3211 -0.2308
24029DOPC   PO429024   9.467   4.982  15.509 -0.1031 -0.0231  0.2238
24029DOPC   GL129025   9.498   5.054  15.151  0.2824  0.1437  0.1438
24029DOPC   GL229026   9.351   5.022  14.937  0.2317 -0.0083 -0.1793
24029DOPC   C1A29027   9.855   4.988  14.872  0.0710  0.2447 -0.1864
24029DOPC   D2A29028  10.355   5.054  14.729  0.0903  0.3342 -0.2278
24029DOPC   C3A29029  10.590   5.361  14.495 -0.2725 -0.0492 -0.1047
24029DOPC   C4A29030  10.588   5.490  14.041 -0.0889 -0.1678  0.1794
24029DOPC   C1B29031   9.445   4.998  14.545  0.1257  0.1601 -0.3436
24029DOPC   D2B29032   9.530   4.812  14.095 -0.3299  0.1069  0.1438
24029DOPC   C3B29033   9.592   4.462  13.765 -0.1292 -0.0776 -0.2484
24029DOPC   C4B29034   9.621   4.145  13.388 -0.0790 -0.0266 -0.0263
24030DOPC   NC329035  26.891   2.866  15.606 -0.0818 -0.2065  0.1354
24030DOPC   PO429036  27.002   2.961  15.192 -0.2756  0.0675 -0.1214
24030DOPC   GL129037  26.988   2.934  14.752 -0.2436  0.1381 -0.0858
24030DOPC   GL229038  26.702   2.876  14.742 -0.0714 -0.1274 -0.2380
24030DOPC   C1A29039  27.205   2.851  14.402 -0.1095  0.0493 -0.1054
24030DOPC   D2A29040  27.470   2.768  14.012  0.0216 -0.0907  0.0157
24030DOPC   C3A29041  27.261   2.583  13.675 -0.0903 -0.0138  0.1351
24030DOPC   C4A29042  26.981   2.499  13.247 -0.1140 -0.2281  0.0947
24030DOPC   C1B29043  26.519   2.905  14.397  0.1012 -0.0940 -0.0067
24030DOPC   D2B29044  26.326   2.904  13.958 -0.3960 -0.2722 -0.1620
24030DOPC   C3B29045  26.003   2.990  13.628 -0.0457 -0.1365  0.2518
24030DOPC   C4B29046  25.956   3.026  13.144 -0.0436  0.1536  0.1673
24031DOPC   NC329047  23.847   6.572  15.677 -0.0432 -0.2875  0.1289
24031DOPC   PO429048  24.082   6.692  15.353 -0.3734  0.2381 -0.0031
24031DOPC   GL129049  23.981   6.695  14.942 -0.0618  0.1578  0.0338
24031DOPC   GL229050  23.849   6.458  14.852 -0.0919  0.3331  0.4064
24031DOPC   C1A29051  24.185   6.573  14.583  0.3849 -0.0269  0.1056
24031DOPC   D2A29052  24.094   6.519  14.112 -0.2471 -0.0655 -0.0100
24031DOPC   C3A29053  23.923   6.683  13.700 -0.0116 -0.4935 -0.0136
24031DOPC   C4A29054  23.821   6.991  13.311  0.0788  0.0395 -0.0362
24031DOPC   C1B29055  23.733   6.463  14.406 -0.1706 -0.3001  0.2852
24031DOPC   D2B29056  23.529   6.576  13.997 -0.1166 -0.0488  0.2105
24031DOPC   C3B29057  23.515   6.315  13.634  0.0203  0.0461 -0.1184
24031DOPC   C4B29058  23.609   6.064  13.156 -0.0655 -0.1634  0.0878
24032DOPC   NC329059  21.834   7.344  15.755 -0.0914 -0.0225  0.1547
24032DOPC   PO429060  22.082   7.159  15.567 -0.3254 -0.0225  0.2285
24032DOPC   GL129061  22.150   7.157  15.127  0.0853  0.1042 -0.2619
24032DOPC   GL229062  22.011   7.433  15.068  0.4155  0.0164 -0.2202
24032DOPC   C1A29063  22.155   6.887  14.805  0.0339 -0.1500 -0.2669
24032DOPC   D2A29064  22.023   6.838  14.342  0.1335  0.0696  0.0678
24032DOPC   C3A29065  21.822   7.024  13.984  0.1519 -0.0624  0.1235
24032DOPC   C4A29066  21.694   7.120  13.536  0.0398  0.0279  0.1833
24032DOPC   C1B29067  21.956   7.350  14.606 -0.0951 -0.2425  0.1878
24032DOPC   D2B29068  21.530   7.431  14.347 -0.1580  0.1620  0.1520
24032DOPC   C3B29069  21.329   7.423  13.923  0.0104 -0.0455  0.1018
24032DOPC   C4B29070  21.053   7.375  13.509  0.0682 -0.0788  0.1698
24033DOPC   NC329071  23.765   6.216  15.255  0.0514  0.0197 -0.0027
24033DOPC   PO429072  23.408   6.215  15.117  0.3358 -0.1093 -0.0142
24033DOPC   GL129073  23.272   6.311  14.768 -0.3103  0.1368  0.0824
24033DOPC   GL229074  23.412   6.573  14.798  0.1600  0.1650 -0.1337
24033DOPC   C1A29075  22.869   6.360  14.554  0.2351 -0.0688 -0.2266
24033DOPC   D2A29076  22.440   6.559  14.328 -0.0501 -0.0930  0.0185
24033DOPC   C3A29077  22.405   6.642  13.890  0.3979  0.2820  0.1691
24033DOPC   C4A29078  22.326   6.420  13.436  0.0930  0.2244 -0.0321
24033DOPC   C1B29079  23.283   6.689  14.351  0.2187 -0.2073 -0.2529
24033DOPC   D2B29080  22.969   6.679  13.951 -0.3066  0.2322 -0.1258
24033DOPC   C3B29081  22.879   6.820  13.541 -0.4289  0.0927  0.0798
24033DOPC   C4B29082  22.734   7.140  13.191 -0.2490  0.0201  0.1039
24034DOPC   NC329083  19.840   0.296  15.678 -0.0476  0.1038  0.0434
24034DOPC   PO429084  20.127   0.063  15.530  0.0952  0.0176 -0.2662
24034DOPC   GL129085  20.211   0.003  15.176 -0.5474 -0.1404 -0.0106
24034DOPC   GL229086  20.441   0.228  15.093 -0.0859 -0.3581 -0.0598
24034DOPC   C1A29087  20.129  -0.257  14.822 -0.2704  0.1180  0.0277
24034DOPC   D2A29088  20.457  -0.500  14.486  0.0324  0.2564 -0.0090
24034DOPC   C3A29089  20.384  -0.199  14.097 -0.1956  0.2284 -0.1295
24034DOPC   C4A29090  20.133  -0.017  13.776 -0.1123 -0.0550 -0.6155
24034DOPC   C1B29091  20.319   0.510  14.784 -0.1760 -0.0534  0.0516
24034DOPC   D2B29092  20.383   0.812  14.413 -0.0557 -0.2216 -0.0729
24034DOPC   C3B29093  20.535   0.789  14.029 -0.2008 -0.2654 -0.0741
24034DOPC   C4B29094  20.704   0.991  13.666 -0.0967  0.0843  0.1302
24035DOPC   NC329095  19.069   3.570  15.239 -0.1991  0.0898  0.0541
24035DOPC   PO429096  19.075   3.200  15.240  0.1271 -0.2028 -0.0007
24035DOPC   GL129097  19.158   3.314  14.869 -0.0183  0.3150 -0.1026
24035DOPC   GL229098  19.023   3.556  14.792  0.2584 -0.0849 -0.0585
24035DOPC   C1A29099  19.174   3.009  14.603 -0.0346 -0.2774  0.3927
24035DOPC   D2A29100  19.438   2.974  14.166  0.3011 -0.0591 -0.0559
24035DOPC   C3A29101  19.765   3.092  14.255  0.2247 -0.1949  0.1585
24035DOPC   C4A29102  20.130   3.305  14.308  0.0625 -0.1227 -0.2082
24035DOPC   C1B29103  19.239   3.468  14.414  0.0744  0.0652 -0.0590
24035DOPC   D2B29104  19.483   3.447  13.984  0.1891 -0.1312  0.2616
24035DOPC   C3B29105  19.902   3.407  13.750  0.1035  0.0121  0.1284
24035DOPC   C4B29106  20.340   3.167  13.756 -0.1015 -0.0793  0.1823
24036DOPC   NC329107  22.561   2.435  15.273  0.3010 -0.0215  0.1781
24036DOPC   PO429108  22.309   2.581  15.000 -0.1577 -0.2436 -0.2227
24036DOPC   GL129109  22.404   2.823  14.697 -0.3888 -0.2812 -0.0654
24036DOPC   GL229110  22.184   2.857  14.572 -0.2851  0.0520  0.1325
24036DOPC   C1A29111  22.568   2.690  14.344  0.1900 -0.0989  0.1662
24036DOPC   D2A29112  22.828   2.482  13.951  0.0253 -0.0699  0.1307
24036DOPC   C3A29113  22.647   2.503  13.574  0.2991 -0.1342  0.1812
24036DOPC   C4A29114  22.205   2.526  13.358  0.2136 -0.2732  0.0834
24036DOPC   C1B29115  22.104   2.538  14.320 -0.1412  0.2254 -0.3596
24036DOPC   D2B29116  21.956   2.047  14.168 -0.1374 -0.0647 -0.0384
24036DOPC   C3B29117  21.823   1.862  13.786  0.1143 -0.2150 -0.1061
24036DOPC   C4B29118  21.732   1.663  13.427 -0.1456  0.0203  0.0347
24037DOPC   NC329119  15.333   5.385  15.427  0.0306  0.2369  0.2888
24037DOPC   PO429120  15.125   5.576  15.149 -0.3600 -0.1733  0.1717
24037DOPC   GL129121  15.340   5.523  14.839 -0.2837  0.1574  0.3884
24037DOPC   GL229122  15.608   5.611  14.881 -0.3355 -0.0631 -0.2080
24037DOPC   C1A29123  15.073   5.615  14.471  0.1346 -0.0125 -0.0094
24037DOPC   D2A29124  14.816   5.774  14.075  0.1228 -0.3371 -0.0328
24037DOPC   C3A29125  14.857   5.937  13.611  0.1912  0.2345 -0.0521
24037DOPC   C4A29126  14.920   6.199  13.184 -0.3973  0.1272  0.2797
24037DOPC   C1B29127  15.878   5.524  14.543  0.0263  0.2858  0.0660
24037DOPC   D2B29128  16.025   5.563  14.072  0.0005 -0.0451 -0.2063
24037DOPC   C3B29129  15.881   5.871  13.787  0.1968 -0.1116  0.1644
24037DOPC   C4B29130  15.378   6.008  13.773  0.3141  0.3049  0.2297
24038DOPC   NC329131  25.611   3.857  15.283 -0.0230  0.2590 -0.0815
24038DOPC   PO429132  25.462   4.143  15.120 -0.1078  0.2076  0.1222
24038DOPC   GL129133  25.347   4.095  14.737  0.0697 -0.1697  0.0273
24038DOPC   GL229134  25.584   4.280  14.713 -0.2139  0.1201 -0.0209
24038DOPC   C1A29135  25.031   4.315  14.513  0.0843 -0.0715 -0.3744
24038DOPC   D2A29136  24.668   4.457  14.226  0.1225  0.2927  0.1737
24038DOPC   C3A29137  24.627   4.527  13.777  0.2103  0.1426 -0.1483
24038DOPC   C4A29138  24.576   4.421  13.302  0.1105  0.0102  0.2585
24038DOPC   C1B29139  25.895   4.256  14.379  0.0541 -0.1125  0.0110
24038DOPC   D2B29140  26.286   3.943  14.228  0.2500  0.0476  0.0603
24038DOPC   C3B29141  26.253   4.204  13.855  0.2518 -0.1508 -0.1205
24038DOPC   C4B29142  26.469   4.591  13.676 -0.0543  0.2031 -0.2131
24039DOPC   NC329143   0.538   6.555  14.704  0.1061 -0.0767 -0.1091
24039DOPC   PO429144   0.201   6.401  14.670  0.1359 -0.2007  0.3550
24039DOPC   GL129145   0.404   6.512  14.271  0.1865 -0.2945  0.0065
24039DOPC   GL229146   0.534   6.263  14.232  0.2417 -0.2347 -0.0101
24039DOPC   C1A29147   0.302   6.557  13.824  0.1277  0.0483  0.0426
24039DOPC   D2A29148   0.162   6.339  13.436 -0.0513 -0.0097 -0.0888
24039DOPC   C3A29149  -0.143   5.941  13.377 -0.1343 -0.2435  0.0319
24039DOPC   C4A29150  -0.439   5.596  13.187  0.2476 -0.1990  0.0682
24039DOPC   C1B29151   0.568   6.123  13.853  0.0870 -0.0344  0.0835
24039DOPC   D2B29152   0.603   6.083  13.353  0.3365  0.0463  0.1367
24039DOPC   C3B29153   0.282   5.911  13.164  0.0978 -0.1317 -0.0556
24039DOPC   C4B29154  -0.056   5.880  12.818 -0.1426  0.1954  0.0014
24040DOPC   NC329155   6.967   0.163  14.361  0.2127 -0.0773  0.1802
24040DOPC   PO429156   7.135  -0.207  14.382  0.0270 -0.1115 -0.1006
24040DOPC   GL129157   7.406  -0.257  14.169  0.0209  0.3933  0.3427
24040DOPC   GL229158   7.696  -0.171  14.197  0.3263  0.1242  0.0312
24040DOPC   C1A29159   7.484  -0.414  13.772  0.0108  0.1179 -0.0952
24040DOPC   D2A29160   7.406  -0.660  13.343  0.2145 -0.1934 -0.2075
24040DOPC   C3A29161   7.546  -0.808  12.935 -0.0196  0.0099 -0.1382
24040DOPC   C4A29162   7.493  -1.012  12.530 -0.0581  0.1941  0.2108
24040DOPC   C1B29163   7.791   0.029  13.801 -0.0128 -0.1999 -0.0869
24040DOPC   D2B29164   7.718   0.443  13.576 -0.1489 -0.1694 -0.2165
24040DOPC   C3B29165   7.980   0.684  13.242 -0.2682  0.1662  0.0103
24040DOPC   C4B29166   8.156   0.922  12.871  0.2874 -0.1201  0.0837
24041DOPC   NC329167   0.492   5.619  14.900 -0.1437  0.2613 -0.2168
24041DOPC   PO429168   0.300   5.610  14.565 -0.3097 -0.3997 -0.1598
24041DOPC   GL129169   0.288   5.893  14.115 -0.0169  0.0035 -0.0971
24041DOPC   GL229170   0.148   5.704  14.070  0.1220 -0.0207 -0.1919
24041DOPC   C1A29171   0.023   6.083  13.852  0.0107 -0.0459 -0.2539
24041DOPC   D2A29172  -0.346   6.401  13.745  0.0570  0.1042  0.0611
24041DOPC   C3A29173  -0.093   6.758  13.563  0.0331 -0.2482  0.4090
24041DOPC   C4A29174  -0.121   7.238  13.344 -0.2372 -0.1182  0.0964
24041DOPC   C1B29175   0.293   5.741  13.646 -0.0611  0.0674  0.2642
24041DOPC   D2B29176   0.637   5.582  13.307 -0.4388  0.0341 -0.1679
24041DOPC   C3B29177   0.976   5.344  13.135 -0.0443 -0.1112  0.2539
24041DOPC   C4B29178   1.358   5.166  12.923  0.2660  0.1986 -0.1731
24042DOPC   NC329179  30.408   1.979  14.850  0.1679  0.0380  0.0519
24042DOPC   PO429180  30.157   2.265  14.935 -0.2204 -0.1374 -0.1164
24042DOPC   GL129181  30.160   2.557  14.568 -0.0904 -0.0402 -0.1276
24042DOPC   GL229182  30.388   2.407  14.482 -0.1139 -0.1713  0.1442
24042DOPC   C1A29183  30.147   2.626  14.155  0.4080 -0.3219  0.1229
24042DOPC   D2A29184  30.106   2.703  13.665 -0.1439 -0.1772 -0.0583
24042DOPC   C3A29185  30.088   2.927  13.307 -0.0333  0.0840 -0.0631
24042DOPC   C4A29186  29.926   3.042  12.864 -0.1705  0.1502  0.3303
24042DOPC   C1B29187  30.525   2.263  14.070 -0.0328  0.0456  0.0019
24042DOPC   D2B29188  30.740   2.091  13.605  0.1814  0.1067 -0.0373
24042DOPC   C3B29189  30.627   2.229  13.207  0.0046 -0.2264  0.1779
24042DOPC   C4B29190  30.774   2.693  12.899 -0.1005  0.2281  0.0248
24043DOPC   NC329191  15.399   1.385  15.075  0.1163 -0.3120 -0.2305
24043DOPC   PO429192  15.227   1.016  15.133 -0.1590 -0.1877  0.0546
24043DOPC   GL129193  15.198   0.835  14.800  0.0553 -0.1606  0.0837
24043DOPC   GL229194  15.353   1.096  14.650 -0.0915 -0.1685  0.2675
24043DOPC   C1A29195  14.950   0.721  14.509 -0.1087 -0.2530 -0.0517
24043DOPC   D2A29196  14.769   0.767  14.047  0.0172  0.0600  0.0378
24043DOPC   C3A29197  15.081   0.761  13.725 -0.0572  0.0933  0.0171
24043DOPC   C4A29198  15.435   0.647  13.413  0.1260 -0.0443  0.3259
24043DOPC   C1B29199  15.213   1.079  14.191 -0.0797  0.0505  0.2067
24043DOPC   D2B29200  15.171   1.234  13.705  0.0676  0.3865  0.0404
24043DOPC   C3B29201  15.115   1.089  13.311  0.3267 -0.1946 -0.0035
24043DOPC   C4B29202  15.418   0.885  12.945  0.0571 -0.0025 -0.1720
24044DOPC   NC329203   6.466   3.300  15.449 -0.0789 -0.2846  0.0313
24044DOPC   PO429204   6.249   3.002  15.346  0.1147  0.4382 -0.1745
24044DOPC   GL129205   6.318   3.011  14.925  0.0801  0.2104 -0.2826
24044DOPC   GL229206   6.509   3.143  14.854 -0.1617  0.1401  0.2537
24044DOPC   C1A29207   6.080   3.165  14.577 -0.0974 -0.2515  0.1992
24044DOPC   D2A29208   6.184   3.134  14.122 -0.2456 -0.1998  0.3049
24044DOPC   C3A29209   6.184   3.376  13.692  0.3452 -0.0064 -0.3909
24044DOPC   C4A29210   6.417   3.568  13.305 -0.2435 -0.0985 -0.1475
24044DOPC   C1B29211   6.523   3.034  14.498  0.1858  0.0281 -0.0145
24044DOPC   D2B29212   6.659   2.985  14.012 -0.3896  0.0151 -0.2487
24044DOPC   C3B29213   6.726   2.767  13.569  0.0943  0.3251 -0.2797
24044DOPC   C4B29214   6.884   2.629  13.171 -0.1504  0.2178  0.1990
24045DOPC   NC329215   3.391   4.241  14.494 -0.0215  0.1365  0.2523
24045DOPC   PO429216   3.613   4.537  14.590  0.3879  0.0076  0.0064
24045DOPC   GL129217   3.789   4.692  14.235  0.0710 -0.3071 -0.1537
24045DOPC   GL229218   3.789   4.414  14.111  0.0713  0.1395 -0.1303
24045DOPC   C1A29219   3.553   4.882  13.924 -0.0981 -0.0799  0.1238
24045DOPC   D2A29220   3.494   5.036  13.489 -0.1379 -0.2323  0.0019
24045DOPC   C3A29221   3.213   4.855  13.202  0.2000  0.2381  0.2177
24045DOPC   C4A29222   2.889   4.698  12.910  0.0455 -0.0505  0.3505
24045DOPC   C1B29223   3.784   4.465  13.742  0.1050  0.0108  0.1518
24045DOPC   D2B29224   4.055   4.264  13.446 -0.0563  0.1390  0.0183
24045DOPC   C3B29225   4.492   4.124  13.313 -0.1990  0.1843 -0.2670
24045DOPC   C4B29226   4.691   3.737  13.052 -0.1958 -0.0698  0.1182
24046DOPC   NC329227   7.053   5.790  15.126  0.1184  0.0824  0.2621
24046DOPC   PO429228   7.394   5.566  15.168  0.1400  0.0040 -0.0033
24046DOPC   GL129229   7.515   5.489  14.766 -0.1815 -0.3629  0.0199
24046DOPC   GL229230   7.313   5.740  14.699 -0.3723 -0.0916 -0.0560
24046DOPC   C1A29231   7.489   5.155  14.452 -0.1482 -0.0799 -0.0833
24046DOPC   D2A29232   7.679   5.121  14.010 -0.1370  0.0635  0.3733
24046DOPC   C3A29233   8.039   4.816  13.848  0.3568  0.2545 -0.3228
24046DOPC   C4A29234   8.274   4.440  13.597  0.1350 -0.2156 -0.0750
24046DOPC   C1B29235   7.556   5.639  14.290  0.1973  0.0978  0.0554
24046DOPC   D2B29236   7.727   5.680  13.834  0.0606 -0.0425 -0.2515
24046DOPC   C3B29237   7.807   5.920  13.459 -0.0775  0.2394 -0.1498
24046DOPC   C4B29238   7.507   6.282  13.375  0.2710 -0.3803  0.0913
24047DOPC   NC329239   4.372   4.744  14.739  0.0256  0.1079  0.0902
24047DOPC   PO429240   4.132   4.560  14.477 -0.1391 -0.1492  0.0173
24047DOPC   GL129241   4.236   4.598  14.089  0.3614  0.3178  0.3968
24047DOPC   GL229242   4.494   4.451  14.235  0.4496 -0.0098 -0.0837
24047DOPC   C1A29243   4.467   4.893  13.913  0.0015 -0.3155 -0.2665
24047DOPC   D2A29244   4.522   5.295  13.647 -0.4118 -0.1070 -0.0870
24047DOPC   C3A29245   4.957   5.360  13.812  0.0454  0.1350 -0.0893
24047DOPC   C4A29246   5.230   5.195  14.232 -0.0679 -0.0508  0.0240
24047DOPC   C1B29247   4.691   4.115  13.980  0.0496 -0.1416 -0.0337
24047DOPC   D2B29248   4.942   4.016  13.538 -0.0869 -0.1143  0.0904
24047DOPC   C3B29249   5.051   4.096  13.070 -0.2376  0.1230  0.1546
24047DOPC   C4B29250   5.343   4.098  12.582  0.0660  0.0228 -0.0883
24048DOPC   NC329251  23.129   1.297  15.034 -0.1513  0.0065  0.1278
24048DOPC   PO429252  23.368   0.952  14.961  0.0442  0.0900 -0.0118
24048DOPC   GL129253  23.623   0.974  14.622 -0.0510  0.0248 -0.3977
24048DOPC   GL229254  23.314   1.108  14.585  0.0565 -0.2136 -0.2447
24048DOPC   C1A29255  23.731   1.269  14.266  0.0414  0.1296  0.1094
24048DOPC   D2A29256  23.639   1.493  13.837  0.0679 -0.0523  0.0667
24048DOPC   C3A29257  23.859   1.617  13.417 -0.1198 -0.2011 -0.1139
24048DOPC   C4A29258  24.092   1.770  13.012 -0.0837 -0.1467  0.3833
24048DOPC   C1B29259  23.234   1.086  14.138 -0.0127 -0.2775 -0.1189
24048DOPC   D2B29260  23.263   1.153  13.710  0.0474  0.1827  0.2834
24048DOPC   C3B29261  23.115   1.056  13.291 -0.2253 -0.0615 -0.0356
24048DOPC   C4B29262  23.277   1.037  12.816 -0.1286  0.1183  0.4102
24049DOPC   NC329263   2.086   5.539  14.997  0.0029  0.1626  0.1205
24049DOPC   PO429264   1.800   5.685  14.781 -0.0084  0.1008  0.0158
24049DOPC   GL129265   1.761   5.747  14.391  0.0443 -0.4369  0.1692
24049DOPC   GL229266   1.509   5.641  14.289  0.1179  0.2086  0.1729
24049DOPC   C1A29267   1.977   5.918  14.060  0.1714  0.0114  0.1770
24049DOPC   D2A29268   2.238   5.757  13.657  0.2730  0.1986  0.0311
24049DOPC   C3A29269   2.270   5.690  13.215 -0.1481 -0.2551  0.1054
24049DOPC   C4A29270   2.346   5.410  12.793  0.0733 -0.3336 -0.0766
24049DOPC   C1B29271   1.505   5.708  13.867  0.2255 -0.0511 -0.1259
24049DOPC   D2B29272   1.479   5.992  13.493 -0.0021 -0.0879 -0.0073
24049DOPC   C3B29273   1.793   5.965  13.143 -0.0527 -0.0854 -0.1456
24049DOPC   C4B29274   1.825   5.937  12.687 -0.0175  0.0910  0.1048
24050DOPC   NC329275   3.251   3.831  15.034 -0.1827  0.0530 -0.2343
24050DOPC   PO429276   3.220   3.776  14.629  0.1584  0.0500  0.0559
24050DOPC   GL129277   3.365   3.826  14.261  0.1320  0.0011  0.3534
24050DOPC   GL229278   3.113   3.776  14.103 -0.1957 -0.1821  0.1205
24050DOPC   C1A29279   3.774   3.888  14.039 -0.1211  0.0384  0.2844
24050DOPC   D2A29280   4.170   4.156  13.962 -0.3563  0.2381  0.0338
24050DOPC   C3A29281   4.457   4.443  13.713 -0.0877 -0.0192  0.1557
24050DOPC   C4A29282   4.823   4.549  13.379  0.0036  0.1860  0.1394
24050DOPC   C1B29283   3.150   3.736  13.704  0.1485 -0.2606  0.2783
24050DOPC   D2B29284   3.206   3.696  13.235  0.1286 -0.0615 -0.1896
24050DOPC   C3B29285   3.583   3.530  13.371 -0.3753  0.1429  0.5160
24050DOPC   C4B29286   3.983   3.247  13.404  0.0593 -0.0295  0.0664
24051DOPC   NC329287   2.069   6.823  14.580  0.4980  0.1229  0.1398
24051DOPC   PO429288   1.960   7.122  14.362 -0.2714 -0.2278 -0.0647
24051DOPC   GL129289   1.838   7.229  13.971 -0.0576  0.1441  0.2332
24051DOPC   GL229290   2.178   7.153  14.029 -0.1659  0.0673 -0.2695
24051DOPC   C1A29291   1.781   7.351  13.550 -0.2187 -0.1925  0.0596
24051DOPC   D2A29292   1.907   7.477  13.143  0.0091 -0.2477  0.0230
24051DOPC   C3A29293   2.064   7.158  12.887  0.1041 -0.1629  0.1255
24051DOPC   C4A29294   1.922   6.922  12.426  0.2566  0.0165 -0.1478
24051DOPC   C1B29295   2.555   7.195  13.791  0.2260  0.1906 -0.0627
24051DOPC   D2B29296   2.829   7.371  13.447 -0.0671 -0.2650  0.0046
24051DOPC   C3B29297   3.034   7.213  13.123 -0.4331 -0.2224  0.2038
24051DOPC   C4B29298   3.357   6.951  12.806  0.4962  0.1932  0.0139
24052DOPC   NC329299   9.800   2.405  15.003 -0.2591 -0.1164 -0.2360
24052DOPC   PO429300  10.065   2.697  14.863  0.1083 -0.1978 -0.1913
24052DOPC   GL129301   9.937   2.942  14.537 -0.0835 -0.0612 -0.0883
24052DOPC   GL229302  10.261   3.013  14.530  0.2356 -0.1310 -0.0938
24052DOPC   C1A29303   9.916   2.662  14.184  0.0460 -0.0388  0.3167
24052DOPC   D2A29304   9.839   2.552  13.654  0.2483 -0.0052 -0.2170
24052DOPC   C3A29305   9.644   2.212  13.432  0.3153 -0.1968  0.1104
24052DOPC   C4A29306   9.298   2.044  13.125 -0.1063 -0.0090 -0.1397
24052DOPC   C1B29307  10.397   2.847  14.192 -0.1146 -0.1730 -0.0175
24052DOPC   D2B29308  10.317   2.503  13.851  0.2216  0.1356 -0.0348
24052DOPC   C3B29309  10.323   2.642  13.411 -0.0506  0.0986  0.0031
24052DOPC   C4B29310  10.530   2.872  13.011 -0.1122 -0.0155 -0.0853
24053DOPC   NC329311  21.741   6.169  15.432  0.0450 -0.1148 -0.0678
24053DOPC   PO429312  21.613   6.555  15.386  0.4665  0.2929 -0.1387
24053DOPC   GL129313  21.646   6.633  14.988  0.0937  0.0936 -0.5494
24053DOPC   GL229314  21.726   7.009  15.068  0.0566  0.2300  0.2026
24053DOPC   C1A29315  21.695   6.502  14.611  0.1723 -0.0669  0.1390
24053DOPC   D2A29316  21.883   6.345  14.204 -0.0814 -0.0798 -0.0369
24053DOPC   C3A29317  22.063   6.133  13.838  0.0751  0.0807 -0.2111
24053DOPC   C4A29318  22.308   5.695  13.830  0.2811  0.5389 -0.1777
24053DOPC   C1B29319  21.495   7.380  14.863 -0.1417  0.3263 -0.1393
24053DOPC   D2B29320  21.240   7.743  14.658 -0.2364 -0.0104  0.0731
24053DOPC   C3B29321  21.273   8.143  14.350  0.3403 -0.0576  0.0236
24053DOPC   C4B29322  21.488   8.404  13.975 -0.0072  0.4626 -0.0496
24054DOPC   NC329323   3.609   7.209  14.256  0.1756 -0.1020  0.1888
24054DOPC   PO429324   3.235   7.226  14.448  0.0408 -0.0957  0.0183
24054DOPC   GL129325   2.860   6.996  14.138  0.1972  0.1578 -0.3080
24054DOPC   GL229326   2.717   7.233  14.220 -0.4036 -0.3459  0.3192
24054DOPC   C1A29327   2.557   6.728  13.895 -0.1889 -0.1019 -0.0528
24054DOPC   D2A29328   2.393   6.313  13.667  0.2846 -0.0224  0.0617
24054DOPC   C3A29329   2.217   6.202  13.178 -0.2465 -0.1797 -0.1552
24054DOPC   C4A29330   1.893   6.398  12.897 -0.0933  0.1330 -0.2387
24054DOPC   C1B29331   2.940   7.507  13.957 -0.2662 -0.0095 -0.4844
24054DOPC   D2B29332   3.039   7.974  13.787 -0.1523 -0.1234 -0.1003
24054DOPC   C3B29333   2.866   8.035  13.400 -0.0214 -0.0089  0.3632
24054DOPC   C4B29334   2.594   8.088  13.028 -0.0843  0.2070 -0.0193
24055DOPC   NC329335  22.911   5.168  15.194  0.0782  0.1339  0.0019
24055DOPC   PO429336  23.007   4.812  15.286  0.2302  0.2481  0.0360
24055DOPC   GL129337  22.858   4.797  14.861 -0.0582  0.0529 -0.1296
24055DOPC   GL229338  22.636   4.875  14.939  0.1545 -0.2564  0.0015
24055DOPC   C1A29339  22.756   4.899  14.438  0.0669 -0.2557 -0.2181
24055DOPC   D2A29340  23.107   4.841  14.007  0.2792 -0.1204 -0.1333
24055DOPC   C3A29341  23.088   4.461  13.721  0.0669  0.2002 -0.0913
24055DOPC   C4A29342  23.112   4.145  13.308  0.2597 -0.2233  0.2357
24055DOPC   C1B29343  22.278   4.975  14.674 -0.2871  0.0329  0.2554
24055DOPC   D2B29344  22.298   5.325  14.260  0.2401 -0.3071  0.0369
24055DOPC   C3B29345  22.313   5.218  13.801  0.0016 -0.1305 -0.0783
24055DOPC   C4B29346  22.092   5.282  13.374  0.2946 -0.2091  0.3067
24056DOPC   NC329347  31.104   6.482  14.672 -0.2107 -0.0184 -0.0800
24056DOPC   PO429348  30.696   6.527  14.619  0.0892  0.0498 -0.0482
24056DOPC   GL129349  30.486   6.663  14.294  0.2655 -0.1674 -0.2074
24056DOPC   GL229350  30.445   6.381  14.151 -0.1385 -0.1982 -0.0906
24056DOPC   C1A29351  30.330   6.752  13.880  0.2559 -0.2480 -0.0561
24056DOPC   D2A29352  30.153   6.918  13.451  0.0478 -0.2364 -0.0914
24056DOPC   C3A29353  30.470   7.004  13.083  0.0307 -0.0614  0.2849
24056DOPC   C4A29354  30.994   7.012  12.959  0.1327 -0.1329 -0.0761
24056DOPC   C1B29355  30.143   6.235  13.820 -0.2099  0.2139 -0.3404
24056DOPC   D2B29356  29.910   5.992  13.424  0.1907  0.0407  0.2603
24056DOPC   C3B29357  29.981   5.801  12.966  0.2033 -0.2881 -0.0045
24056DOPC   C4B29358  30.087   5.330  12.873 -0.0016  0.2073  0.0896
24057DOPC   NC329359  28.008   7.126  14.718 -0.0381 -0.0152  0.2468
24057DOPC   PO429360  27.973   7.499  14.856  0.2712 -0.0236 -0.1233
24057DOPC   GL129361  27.995   7.590  14.413 -0.2322  0.2346 -0.2454
24057DOPC   GL229362  27.728   7.454  14.442 -0.1784 -0.0560  0.2829
24057DOPC   C1A29363  27.981   7.758  14.020 -0.1173  0.0954  0.1295
24057DOPC   D2A29364  28.013   7.841  13.595 -0.1352 -0.1200 -0.0680
24057DOPC   C3A29365  27.918   8.250  13.447 -0.0565 -0.0154 -0.0177
24057DOPC   C4A29366  27.820   8.679  13.211  0.0231 -0.1663  0.0211
24057DOPC   C1B29367  27.642   7.046  14.339 -0.1447 -0.4846 -0.1528
24057DOPC   D2B29368  27.542   6.592  14.252 -0.0274 -0.2797  0.1221
24057DOPC   C3B29369  27.371   6.565  13.827  0.1751  0.4281 -0.1126
24057DOPC   C4B29370  27.214   6.501  13.433 -0.1764  0.0679 -0.1952
24058DOPC   NC329371  29.418   1.359  14.810  0.1664  0.2097  0.0729
24058DOPC   PO429372  29.162   1.064  14.798 -0.2408 -0.2154 -0.1461
24058DOPC   GL129373  29.183   0.860  14.467  0.0380 -0.2190  0.2709
24058DOPC   GL229374  29.078   0.569  14.581 -0.2640 -0.1151  0.2218
24058DOPC   C1A29375  29.196   0.802  13.941 -0.1891  0.0029 -0.0733
24058DOPC   D2A29376  29.152   0.909  13.448 -0.1976  0.3189  0.1638
24058DOPC   C3A29377  28.947   0.976  13.031  0.3077 -0.0891  0.0863
24058DOPC   C4A29378  28.642   1.107  12.689  0.3362  0.0002  0.2073
24058DOPC   C1B29379  29.067   0.379  14.204 -0.0719  0.0992  0.1772
24058DOPC   D2B29380  28.687   0.093  13.991 -0.0550 -0.1348 -0.3313
24058DOPC   C3B29381  28.591   0.081  13.548  0.2994 -0.0680  0.3592
24058DOPC   C4B29382  28.453   0.153  13.157  0.2957 -0.0252 -0.1384
24059DOPC   NC329383  24.462   4.157  15.403  0.0092 -0.3009 -0.0660
24059DOPC   PO429384  24.313   4.477  15.167  0.0017  0.0981  0.1163
24059DOPC   GL129385  24.285   4.332  14.818 -0.3604  0.2583  0.0884
24059DOPC   GL229386  24.110   4.527  14.683  0.0276  0.2275  0.1615
24059DOPC   C1A29387  24.474   4.057  14.577 -0.0442  0.2692 -0.0916
24059DOPC   D2A29388  24.316   3.607  14.440  0.2284  0.1546  0.1920
24059DOPC   C3A29389  24.226   3.722  14.024  0.1040  0.0214  0.2002
24059DOPC   C4A29390  24.187   3.522  13.587  0.0900  0.0288  0.4973
24059DOPC   C1B29391  24.182   4.444  14.229 -0.2382 -0.0704 -0.4288
24059DOPC   D2B29392  24.185   4.209  13.745 -0.2546  0.1400 -0.1167
24059DOPC   C3B29393  24.049   4.008  13.363 -0.0629 -0.0785  0.6012
24059DOPC   C4B29394  24.055   3.740  12.943  0.2212  0.0494  0.0359
24060DOPC   NC329395  16.457   3.285  15.366 -0.1540 -0.2866 -0.2935
24060DOPC   PO429396  16.277   3.631  15.186 -0.2507 -0.0997 -0.1864
24060DOPC   GL129397  16.201   3.627  14.778  0.3923  0.0779  0.4805
24060DOPC   GL229398  16.116   3.383  14.767 -0.6220 -0.1036 -0.1526
24060DOPC   C1A29399  16.357   3.999  14.528  0.1995  0.0902  0.0152
24060DOPC   D2A29400  16.747   4.335  14.284  0.1344  0.0278  0.0928
24060DOPC   C3A29401  17.186   4.161  14.221 -0.2949  0.0067 -0.0652
24060DOPC   C4A29402  17.564   4.278  13.899 -0.0715 -0.0947 -0.2152
24060DOPC   C1B29403  15.908   3.291  14.390 -0.1220 -0.1387 -0.0332
24060DOPC   D2B29404  15.790   3.231  13.913  0.2250 -0.1568 -0.2627
24060DOPC   C3B29405  16.014   3.545  13.710  0.1182 -0.1056 -0.1617
24060DOPC   C4B29406  16.229   3.958  13.627 -0.1521  0.0605 -0.2819
24061DOPC   NC329407  10.997   2.188  15.848 -0.1370 -0.1835  0.2328
24061DOPC   PO429408  10.713   2.332  15.626  0.0363  0.0127  0.2104
24061DOPC   GL129409  10.800   2.463  15.315 -0.2195  0.0188 -0.1327
24061DOPC   GL229410  10.846   2.228  15.159  0.0745  0.0113 -0.0390
24061DOPC   C1A29411  11.100   2.639  15.089 -0.0270 -0.1534  0.2394
24061DOPC   D2A29412  11.181   3.037  14.754 -0.0071  0.0393  0.0076
24061DOPC   C3A29413  11.579   2.876  14.507 -0.0437  0.3390  0.1739
24061DOPC   C4A29414  11.921   2.789  14.209 -0.0704  0.1520  0.0564
24061DOPC   C1B29415  11.047   2.157  14.693 -0.1022  0.0835 -0.0862
24061DOPC   D2B29416  11.171   1.984  14.232  0.1565 -0.0063  0.0311
24061DOPC   C3B29417  10.942   1.588  14.087 -0.1841  0.2145 -0.1298
24061DOPC   C4B29418  10.662   1.479  13.695 -0.0941 -0.0568 -0.0280
24062DOPC   NC329419  19.363   7.135  15.100 -0.2111 -0.2032 -0.1116
24062DOPC   PO429420  19.705   7.134  15.265 -0.0916 -0.1122 -0.2544
24062DOPC   GL129421  19.917   6.926  14.865 -0.0738 -0.4648 -0.0556
24062DOPC   GL229422  19.610   6.818  14.899 -0.2150  0.5916  0.0755
24062DOPC   C1A29423  19.967   7.192  14.528  0.0383 -0.0046  0.3587
24062DOPC   D2A29424  20.254   7.163  14.095  0.0143  0.6867  0.1059
24062DOPC   C3A29425  20.226   7.215  13.701 -0.0649 -0.1212 -0.1802
24062DOPC   C4A29426  20.521   7.231  13.294  0.0678  0.0087  0.2661
24062DOPC   C1B29427  19.450   7.173  14.653 -0.2344 -0.0592 -0.1005
24062DOPC   D2B29428  19.403   7.434  14.199 -0.4280 -0.1691  0.4855
24062DOPC   C3B29429  19.349   7.413  13.689 -0.2711  0.2449 -0.1037
24062DOPC   C4B29430  19.296   7.393  13.238 -0.0200  0.1179  0.1390
24063DOPC   NC329431  20.969   5.385  15.725  0.2174  0.0981 -0.3134
24063DOPC   PO429432  20.621   5.457  15.547 -0.1324  0.2117  0.5097
24063DOPC   GL129433  20.585   5.658  15.244  0.2741  0.0557  0.5984
24063DOPC   GL229434  20.645   5.894  15.276 -0.2596  0.1681 -0.3896
24063DOPC   C1A29435  20.289   5.570  14.854 -0.0126  0.1570 -0.1302
24063DOPC   D2A29436  20.158   5.383  14.392 -0.1821  0.1328 -0.2045
24063DOPC   C3A29437  19.793   5.650  14.248  0.0189  0.1846 -0.1877
24063DOPC   C4A29438  19.694   5.834  13.800  0.0625  0.0896 -0.1589
24063DOPC   C1B29439  21.070   5.984  15.190  0.0229  0.0184  0.2024
24063DOPC   D2B29440  21.562   5.991  14.992  0.2751 -0.1835  0.0318
24063DOPC   C3B29441  21.668   5.533  14.903  0.1917 -0.3834 -0.2510
24063DOPC   C4B29442  21.616   5.053  14.842 -0.2169  0.1253  0.3346
24064DOPC   NC329443  21.072   7.696  15.195 -0.0914 -0.0189  0.1094
24064DOPC   PO429444  20.969   8.085  15.080 -0.1447  0.0477  0.1809
24064DOPC   GL129445  20.855   8.358  14.778 -0.0813 -0.1303  0.1118
24064DOPC   GL229446  21.179   8.348  14.751  0.1091  0.2368 -0.1187
24064DOPC   C1A29447  20.703   8.246  14.347  0.1657  0.1889  0.1190
24064DOPC   D2A29448  20.505   8.141  13.945  0.0757  0.1953 -0.0023
24064DOPC   C3A29449  20.625   8.274  13.531  0.0930  0.1306 -0.3764
24064DOPC   C4A29450  20.474   8.693  13.277 -0.2030  0.0389 -0.1351
24064DOPC   C1B29451  21.483   8.597  14.415 -0.1301  0.3562 -0.2703
24064DOPC   D2B29452  21.615   8.854  13.996 -0.1547  0.0455 -0.0700
24064DOPC   C3B29453  21.910   9.106  13.698  0.2467  0.2748 -0.1445
24064DOPC   C4B29454  22.365   9.046  13.449 -0.0376  0.1452 -0.0036
24065DOPC   NC329455  18.470   3.277  15.468  0.1722  0.2715  0.0679
24065DOPC   PO429456  18.626   3.639  15.473 -0.1738 -0.1342  0.0067
24065DOPC   GL129457  18.657   3.700  15.043 -0.2718  0.0928 -0.0934
24065DOPC   GL229458  18.643   3.383  15.058  0.1316 -0.1501  0.0799
24065DOPC   C1A29459  18.612   3.724  14.562 -0.0140  0.1528 -0.0798
24065DOPC   D2A29460  18.768   3.729  14.079  0.1262  0.3390 -0.1444
24065DOPC   C3A29461  19.254   3.883  13.978  0.1959  0.1036  0.0885
24065DOPC   C4A29462  19.684   4.016  14.031  0.2097  0.0714  0.1239
24065DOPC   C1B29463  18.663   3.247  14.668  0.0790 -0.2699  0.1080
24065DOPC   D2B29464  18.868   3.152  14.212  0.2472  0.3145  0.1663
24065DOPC   C3B29465  19.037   3.380  13.845 -0.1324  0.2752  0.1314
24065DOPC   C4B29466  19.179   3.335  13.385 -0.0708 -0.0416 -0.2192
24066DOPC   NC329467   0.828   4.330  14.486  0.1559 -0.2237 -0.0042
24066DOPC   PO429468   0.476   4.210  14.435  0.1564 -0.0008 -0.0686
24066DOPC   GL129469   0.386   4.085  14.020 -0.2065 -0.0041 -0.1770
24066DOPC   GL229470   0.720   4.092  14.086  0.1290 -0.0772  0.2446
24066DOPC   C1A29471   0.271   4.305  13.681  0.3146 -0.1253  0.0695
24066DOPC   D2A29472   0.006   4.784  13.610  0.1761 -0.0821 -0.3234
24066DOPC   C3A29473   0.036   4.889  13.127  0.0237  0.3967  0.3753
24066DOPC   C4A29474   0.056   4.768  12.621 -0.1705 -0.0508 -0.1282
24066DOPC   C1B29475   0.938   3.914  13.719  0.0373  0.1328 -0.0536
24066DOPC   D2B29476   1.196   3.730  13.328 -0.1315 -0.2800  0.1008
24066DOPC   C3B29477   0.862   3.749  12.992 -0.1862 -0.0339 -0.0221
24066DOPC   C4B29478   0.471   3.897  12.693  0.1005  0.3431 -0.1090
24067DOPC   NC329479  13.453   1.207  15.771 -0.3168 -0.1164 -0.1074
24067DOPC   PO429480  13.348   0.887  15.573 -0.0443 -0.0704 -0.1240
24067DOPC   GL129481  13.364   0.850  15.148  0.5354 -0.0485  0.0914
24067DOPC   GL229482  13.092   0.879  15.102  0.3381 -0.0521  0.0408
24067DOPC   C1A29483  13.572   0.670  14.804 -0.1581 -0.0821 -0.0321
24067DOPC   D2A29484  13.820   0.823  14.338 -0.0483 -0.2453  0.1293
24067DOPC   C3A29485  13.687   0.868  13.900 -0.1073 -0.1744 -0.0245
24067DOPC   C4A29486  13.617   0.958  13.443  0.1020  0.3594  0.2623
24067DOPC   C1B29487  12.957   0.524  14.845 -0.1330  0.0067 -0.0401
24067DOPC   D2B29488  12.932   0.357  14.336  0.2661 -0.2769 -0.0399
24067DOPC   C3B29489  12.619   0.294  13.952  0.0075  0.2236  0.0338
24067DOPC   C4B29490  12.212   0.021  13.745 -0.2139 -0.2596 -0.2852
24068DOPC   NC329491  26.065   7.394  15.485  0.2723  0.3721 -0.0349
24068DOPC   PO429492  26.149   7.677  15.284  0.0077 -0.1616 -0.2281
24068DOPC   GL129493  26.312   7.581  14.888  0.1580  0.0547  0.0020
24068DOPC   GL229494  26.469   7.790  14.955 -0.0538 -0.0162  0.3909
24068DOPC   C1A29495  26.140   7.397  14.432  0.1173  0.1667 -0.1059
24068DOPC   D2A29496  26.126   7.198  13.985  0.1562  0.1483 -0.2073
24068DOPC   C3A29497  26.186   7.513  13.608  0.1805 -0.1288 -0.1070
24068DOPC   C4A29498  26.251   7.761  13.184 -0.1435  0.0911 -0.1114
24068DOPC   C1B29499  26.657   7.617  14.518  0.1578 -0.2897  0.1308
24068DOPC   D2B29500  26.485   7.728  14.094 -0.0067  0.0666 -0.2406
24068DOPC   C3B29501  26.605   7.814  13.636  0.0471  0.1006 -0.1449
24068DOPC   C4B29502  26.770   7.549  13.230 -0.0603  0.1736  0.0030
24069DOPC   NC329503  26.992   7.844  14.982  0.0602  0.1406 -0.0791
24069DOPC   PO429504  26.794   8.175  14.906 -0.1767 -0.1619  0.0195
24069DOPC   GL129505  26.587   8.147  14.585  0.0845 -0.2969 -0.1404
24069DOPC   GL229506  26.506   8.443  14.621  0.3123 -0.2146  0.1052
24069DOPC   C1A29507  26.830   8.061  14.271  0.0566  0.0758  0.2583
24069DOPC   D2A29508  27.064   7.802  13.839  0.4215  0.0154  0.0797
24069DOPC   C3A29509  27.031   7.375  13.634  0.0568  0.1538  0.1341
24069DOPC   C4A29510  26.987   6.883  13.687  0.1279 -0.0439  0.0681
24069DOPC   C1B29511  26.603   8.622  14.237  0.0483  0.1221 -0.0213
24069DOPC   D2B29512  26.581   8.600  13.782  0.0218  0.0190  0.1454
24069DOPC   C3B29513  26.596   8.270  13.410  0.1055 -0.2452 -0.0060
24069DOPC   C4B29514  26.677   8.130  12.918  0.0722  0.1135 -0.1804
24070DOPC   NC329515  27.343   7.654  15.397 -0.2001 -0.0123 -0.1007
24070DOPC   PO429516  27.529   7.732  15.090  0.1167 -0.1477 -0.2268
24070DOPC   GL129517  27.425   7.702  14.746  0.3629 -0.2692  0.3395
24070DOPC   GL229518  27.151   7.623  14.629 -0.0931  0.0443 -0.1653
24070DOPC   C1A29519  27.584   7.849  14.299 -0.1514 -0.2910 -0.2494
24070DOPC   D2A29520  27.605   8.064  13.871  0.1841  0.1417  0.0937
24070DOPC   C3A29521  27.727   8.493  13.827  0.2390 -0.2062  0.2128
24070DOPC   C4A29522  27.865   8.949  13.656  0.0880 -0.0383  0.0253
24070DOPC   C1B29523  27.289   7.463  14.206 -0.2409  0.1802  0.2363
24070DOPC   D2B29524  27.551   7.576  13.810  0.2452 -0.2093  0.1402
24070DOPC   C3B29525  27.486   7.816  13.451 -0.0413  0.0943  0.1630
24070DOPC   C4B29526  27.519   8.201  13.128  0.0981 -0.2350  0.1321
24071DOPC   NC329527  12.202   7.476  15.765 -0.0303 -0.1550  0.1772
24071DOPC   PO429528  11.955   7.627  15.473 -0.2505  0.2690  0.1170
24071DOPC   GL129529  11.770   7.722  15.087 -0.1501  0.0915 -0.1678
24071DOPC   GL229530  11.428   7.688  15.116 -0.7297 -0.0394  0.1110
24071DOPC   C1A29531  11.761   7.501  14.746 -0.2491  0.5647  0.3269
24071DOPC   D2A29532  11.869   7.245  14.349 -0.2502  0.3913  0.1032
24071DOPC   C3A29533  12.004   7.334  13.948 -0.0234  0.1278 -0.1345
24071DOPC   C4A29534  12.285   7.432  13.555 -0.0885 -0.0622 -0.0593
24071DOPC   C1B29535  11.344   7.802  14.711  0.0271 -0.1241 -0.0950
24071DOPC   D2B29536  11.319   7.994  14.198 -0.1038 -0.0305 -0.1329
24071DOPC   C3B29537  11.674   8.205  14.030  0.2266  0.1412  0.1472
24071DOPC   C4B29538  12.034   8.319  13.735  0.0693  0.0211 -0.0184
24072DOPC   NC329539   4.521   0.624  14.558 -0.2758  0.1021  0.0882
24072DOPC   PO429540   4.471   0.191  14.559  0.2250 -0.1350  0.0298
24072DOPC   GL129541   4.447  -0.034  14.194  0.1013  0.2038  0.0103
24072DOPC   GL229542   4.516  -0.270  14.258  0.2904 -0.2349 -0.1026
24072DOPC   C1A29543   4.231   0.244  13.903  0.0988  0.1467  0.5109
24072DOPC   D2A29544   3.883   0.147  13.557 -0.0120  0.2773 -0.0961
24072DOPC   C3A29545   4.058   0.255  13.127  0.1065  0.0197 -0.1676
24072DOPC   C4A29546   4.201   0.522  12.659 -0.0371 -0.0305  0.0495
24072DOPC   C1B29547   4.629  -0.284  13.831  0.1166 -0.2009 -0.2713
24072DOPC   D2B29548   4.674  -0.338  13.363 -0.1107  0.2819 -0.0291
24072DOPC   C3B29549   4.624  -0.104  13.030 -0.1916  0.1011  0.0650
24072DOPC   C4B29550   4.366   0.064  12.682  0.2946  0.3840 -0.0104
24073DOPC   NC329551  19.504   1.952  15.848 -0.0840  0.0037 -0.1934
24073DOPC   PO429552  19.311   1.911  15.478 -0.0696  0.0734 -0.1649
24073DOPC   GL129553  19.294   1.699  15.111  0.1839  0.3678  0.0814
24073DOPC   GL229554  19.474   1.535  15.018 -0.0140 -0.0910  0.2637
24073DOPC   C1A29555  19.144   1.622  14.699 -0.3439 -0.0167  0.4233
24073DOPC   D2A29556  18.888   1.440  14.325 -0.0436  0.1231  0.0480
24073DOPC   C3A29557  19.169   1.340  13.990 -0.3497 -0.0045 -0.0685
24073DOPC   C4A29558  19.441   1.234  13.593 -0.1094  0.0607 -0.4658
24073DOPC   C1B29559  19.753   1.609  14.653  0.0857 -0.0550 -0.2315
24073DOPC   D2B29560  19.879   1.619  14.219 -0.0027  0.2119  0.1265
24073DOPC   C3B29561  19.857   2.040  14.319  0.0709  0.3327  0.0971
24073DOPC   C4B29562  19.750   2.203  14.740 -0.1612  0.1923 -0.0648
24074DOPC   NC329563   2.367   3.787  14.602  0.0085  0.0323 -0.2199
24074DOPC   PO429564   2.343   4.160  14.435  0.2383 -0.2026 -0.1744
24074DOPC   GL129565   2.420   4.198  14.046 -0.1980  0.0779 -0.0733
24074DOPC   GL229566   2.575   3.948  14.087 -0.0698  0.1649 -0.2072
24074DOPC   C1A29567   2.311   4.386  13.626 -0.1691 -0.3567 -0.1997
24074DOPC   D2A29568   2.311   4.788  13.275 -0.2329  0.0679 -0.0236
24074DOPC   C3A29569   2.320   4.810  12.842  0.6004 -0.0272 -0.2875
24074DOPC   C4A29570   2.213   4.725  12.368 -0.1146 -0.3904  0.1899
24074DOPC   C1B29571   2.647   3.766  13.736  0.2031 -0.0113 -0.0135
24074DOPC   D2B29572   2.637   3.635  13.278  0.1155  0.2036 -0.0096
24074DOPC   C3B29573   2.623   3.388  12.878 -0.0899  0.2904  0.0855
24074DOPC   C4B29574   2.716   3.080  12.518 -0.0216 -0.0164  0.0456
24075DOPC   NC329575  24.541   3.904  10.942  0.3324 -0.0387  0.1896
24075DOPC   PO429576  24.561   3.607  11.159 -0.5126 -0.2667  0.0902
24075DOPC   GL129577  24.440   3.716  11.620  0.1237  0.2493  0.5888
24075DOPC   GL229578  24.425   3.435  11.640 -0.3000 -0.4874  0.0340
24075DOPC   C1A29579  24.192   3.729  12.003  0.0193  0.3206 -0.1362
24075DOPC   D2A29580  24.034   3.665  12.465 -0.0145  0.1538 -0.0981
24075DOPC   C3A29581  23.810   4.122  12.505 -0.0136 -0.0890  0.0374
24075DOPC   C4A29582  23.486   4.499  12.337 -0.2485 -0.2808  0.3723
24075DOPC   C1B29583  24.493   3.336  12.032 -0.0045 -0.1124  0.0114
24075DOPC   D2B29584  24.562   2.918  12.307 -0.0734 -0.0940  0.1944
24075DOPC   C3B29585  24.810   3.205  12.542 -0.1947 -0.2097  0.1182
24075DOPC   C4B29586  25.033   3.531  12.898  0.0979  0.0924  0.2272
24076DOPC   NC329587  10.127   0.647  11.353  0.0441  0.1737 -0.0412
24076DOPC   PO429588  10.134   0.272  11.278 -0.1137 -0.0627 -0.0233
24076DOPC   GL129589  10.053   0.213  11.575  0.0944  0.2560 -0.0413
24076DOPC   GL229590  10.001  -0.106  11.668  0.0577  0.0494  0.1976
24076DOPC   C1A29591  10.129   0.442  11.951  0.1579  0.1427  0.0284
24076DOPC   D2A29592   9.913   0.877  12.148 -0.0379  0.0334  0.3261
24076DOPC   C3A29593   9.715   0.965  12.566 -0.0576 -0.0859  0.1056
24076DOPC   C4A29594   9.447   1.045  12.994  0.0760 -0.1447  0.1151
24076DOPC   C1B29595   9.744   0.068  11.933  0.1828  0.1948 -0.0145
24076DOPC   D2B29596   9.428   0.108  12.355  0.3971 -0.3257  0.0899
24076DOPC   C3B29597   9.581   0.168  12.772  0.0055 -0.2218 -0.0116
24076DOPC   C4B29598   9.614   0.075  13.222  0.0710  0.2564  0.1045
24077DOPC   NC329599  27.747   7.218  10.552  0.1412 -0.0545  0.0956
24077DOPC   PO429600  27.691   7.215  10.933  0.0940  0.1654 -0.0330
24077DOPC   GL129601  27.720   7.314  11.342 -0.0919 -0.2181  0.4302
24077DOPC   GL229602  27.915   7.128  11.388 -0.3564 -0.1199 -0.0606
24077DOPC   C1A29603  27.694   7.460  11.674 -0.0422  0.0531  0.3321
24077DOPC   D2A29604  27.423   7.673  12.049  0.1303  0.0834  0.0246
24077DOPC   C3A29605  27.221   7.545  12.415  0.1270 -0.1822  0.1632
24077DOPC   C4A29606  26.808   7.709  12.711  0.0880  0.1952  0.1014
24077DOPC   C1B29607  28.182   7.006  11.726  0.4408 -0.0521  0.1170
24077DOPC   D2B29608  28.417   7.004  12.234  0.1947  0.2350 -0.0129
24077DOPC   C3B29609  28.864   6.965  12.320 -0.0378  0.2171 -0.1664
24077DOPC   C4B29610  29.126   7.124  12.739  0.0908  0.1452 -0.0107
24078DOPC   NC329611  15.821   4.885  11.100  0.1325  0.0550 -0.0164
24078DOPC   PO429612  15.680   5.183  11.325 -0.3582 -0.1508  0.1090
24078DOPC   GL129613  15.871   5.072  11.778 -0.6494 -0.0237  0.0001
24078DOPC   GL229614  15.658   5.005  11.754  0.0484 -0.1514 -0.0118
24078DOPC   C1A29615  16.027   4.715  12.003  0.3727  0.0615 -0.1645
24078DOPC   D2A29616  15.856   4.271  11.905 -0.0233  0.1178  0.2724
24078DOPC   C3A29617  15.712   4.166  12.305  0.1940  0.2554 -0.0339
24078DOPC   C4A29618  15.529   4.412  12.707  0.0367 -0.1140 -0.1272
24078DOPC   C1B29619  15.229   5.126  11.965 -0.2096  0.1556  0.1117
24078DOPC   D2B29620  15.075   5.410  12.381 -0.1124 -0.2509  0.0955
24078DOPC   C3B29621  15.188   5.403  12.843  0.0842 -0.1253 -0.0649
24078DOPC   C4B29622  15.440   5.259  13.287 -0.0715  0.2145  0.0028
24079DOPC   NC329623   6.786   4.364  11.015  0.0626  0.1285 -0.1078
24079DOPC   PO429624   6.774   3.971  11.043  0.1558  0.2184 -0.2784
24079DOPC   GL129625   7.070   3.744  11.359  0.1258 -0.0578 -0.2841
24079DOPC   GL229626   6.713   3.645  11.340  0.2351 -0.1448 -0.1001
24079DOPC   C1A29627   7.268   3.905  11.795 -0.0856  0.3006 -0.0150
24079DOPC   D2A29628   7.273   3.862  12.355  0.2084 -0.2182  0.1134
24079DOPC   C3A29629   7.328   3.598  12.645 -0.0547  0.1716 -0.5215
24079DOPC   C4A29630   7.453   3.156  12.846 -0.2624  0.1850 -0.0054
24079DOPC   C1B29631   6.417   3.677  11.680  0.3016  0.0202  0.1049
24079DOPC   D2B29632   6.058   3.672  12.119 -0.1132 -0.1072 -0.2163
24079DOPC   C3B29633   6.013   3.483  12.553  0.1007  0.1106 -0.2930
24079DOPC   C4B29634   5.877   3.148  12.804  0.0657 -0.0528  0.1035
24080DOPC   NC329635  18.191   0.448  11.094 -0.0622  0.3703 -0.1203
24080DOPC   PO429636  18.531   0.690  11.103 -0.0502 -0.1738 -0.2425
24080DOPC   GL129637  18.447   0.645  11.465 -0.1772 -0.0537  0.0081
24080DOPC   GL229638  18.479   0.376  11.493  0.0544  0.4044  0.0025
24080DOPC   C1A29639  18.608   0.868  11.785  0.0477  0.0301  0.4540
24080DOPC   D2A29640  18.697   1.247  12.115 -0.2486 -0.3250 -0.0770
24080DOPC   C3A29641  18.614   1.701  12.094  0.1299 -0.0147 -0.0423
24080DOPC   C4A29642  18.683   2.151  12.304  0.0031 -0.1390 -0.1633
24080DOPC   C1B29643  18.281   0.096  11.701  0.0418  0.3952 -0.0723
24080DOPC   D2B29644  18.175  -0.272  11.997  0.0906  0.0704 -0.2258
24080DOPC   C3B29645  17.942  -0.052  12.322 -0.0611  0.1173  0.0257
24080DOPC   C4B29646  17.663  -0.035  12.785 -0.2151  0.2278  0.0029
24081DOPC   NC329647   6.149   6.711  10.462  0.2031  0.2382 -0.0235
24081DOPC   PO429648   5.876   6.705  10.769 -0.0447  0.0431 -0.2976
24081DOPC   GL129649   5.990   6.464  11.103 -0.0345 -0.2519  0.2606
24081DOPC   GL229650   5.694   6.471  11.118 -0.4458 -0.0132  0.0324
24081DOPC   C1A29651   5.962   6.623  11.542 -0.0417  0.0617  0.0874
24081DOPC   D2A29652   5.855   7.060  11.679  0.1381  0.1410 -0.1774
24081DOPC   C3A29653   5.996   7.452  11.626 -0.0167  0.2349 -0.0637
24081DOPC   C4A29654   6.254   7.905  11.508  0.0079  0.0722  0.1020
24081DOPC   C1B29655   5.504   6.766  11.345  0.1895  0.0992  0.3435
24081DOPC   D2B29656   5.256   6.999  11.611  0.0746  0.2422  0.0995
24081DOPC   C3B29657   5.429   7.017  12.040  0.2023 -0.1718 -0.0786
24081DOPC   C4B29658   5.720   6.927  12.343  0.1216  0.3001 -0.2319
24082DOPC   NC329659  30.148   0.843  10.739  0.2399  0.1485  0.0366
24082DOPC   PO429660  30.546   0.859  10.702  0.1556 -0.0147 -0.2511
24082DOPC   GL129661  30.569   0.931  11.106  0.1378  0.0590 -0.1075
24082DOPC   GL229662  30.563   0.678  11.302  0.2659 -0.1806  0.3575
24082DOPC   C1A29663  30.509   1.175  11.443 -0.0879  0.0184 -0.0140
24082DOPC   D2A29664  30.472   1.490  11.858  0.1671 -0.1933 -0.1252
24082DOPC   C3A29665  30.732   1.559  12.190 -0.3236 -0.0684  0.0689
24082DOPC   C4A29666  30.977   1.948  12.370 -0.0528 -0.1468  0.4050
24082DOPC   C1B29667  30.516   0.750  11.755 -0.1385 -0.1957  0.2424
24082DOPC   D2B29668  30.496   0.729  12.242  0.0331  0.0087 -0.1400
24082DOPC   C3B29669  30.111   0.822  12.536  0.0686 -0.0111  0.5230
24082DOPC   C4B29670  30.083   0.954  12.976  0.1373 -0.1808  0.0861
24083DOPC   NC329671   7.647   4.159  10.863 -0.0106 -0.0949 -0.0787
24083DOPC   PO429672   7.248   4.130  10.995  0.0685 -0.3754  0.0701
24083DOPC   GL129673   7.030   4.208  11.365  0.3443  0.0355 -0.0137
24083DOPC   GL229674   7.211   4.338  11.471  0.3277  0.2245 -0.2244
24083DOPC   C1A29675   6.801   4.047  11.688 -0.4483 -0.2512 -0.1348
24083DOPC   D2A29676   6.604   3.796  12.085  0.2597  0.0738 -0.0740
24083DOPC   C3A29677   6.340   3.884  12.499 -0.1599 -0.1088  0.2877
24083DOPC   C4A29678   6.605   3.874  12.946  0.0485 -0.0491 -0.2657
24083DOPC   C1B29679   7.155   4.382  11.889 -0.1903  0.2461  0.2466
24083DOPC   D2B29680   7.002   4.332  12.310 -0.0218 -0.1115  0.1951
24083DOPC   C3B29681   6.802   4.333  12.675  0.1628 -0.2104  0.3842
24083DOPC   C4B29682   6.497   4.391  13.061  0.0794  0.0008  0.1295
24084DOPC   NC329683  29.542   3.299  10.280  0.1070  0.1753 -0.0739
24084DOPC   PO429684  29.314   3.528  10.479 -0.0919  0.0700  0.1846
24084DOPC   GL129685  29.054   3.449  10.786  0.0464 -0.1637  0.0429
24084DOPC   GL229686  29.105   3.175  10.874  0.1600 -0.3465 -0.1584
24084DOPC   C1A29687  28.665   3.433  11.129  0.2638  0.3411  0.2246
24084DOPC   D2A29688  28.211   3.452  11.345  0.1250  0.0019 -0.1958
24084DOPC   C3A29689  28.199   3.297  11.843  0.3506  0.0246 -0.2608
24084DOPC   C4A29690  28.383   3.263  12.309 -0.1523  0.2734  0.0182
24084DOPC   C1B29691  29.323   3.294  11.189  0.1551  0.0220  0.3093
24084DOPC   D2B29692  29.595   3.371  11.582 -0.3199  0.3331  0.0095
24084DOPC   C3B29693  29.826   3.515  11.931  0.2249  0.2791  0.2375
24084DOPC   C4B29694  29.802   3.815  12.284 -0.0859  0.1126 -0.2260
24085DOPC   NC329695  16.195   0.958  10.720  0.1241  0.0335 -0.3318
24085DOPC   PO429696  16.315   0.899  11.139  0.1862  0.0604  0.0685
24085DOPC   GL129697  16.077   1.003  11.500 -0.1004  0.0240 -0.1318
24085DOPC   GL229698  16.334   1.023  11.612  0.0297  0.1250  0.2679
24085DOPC   C1A29699  15.757   0.834  11.731 -0.0849 -0.2293  0.0092
24085DOPC   D2A29700  15.407   0.712  12.059 -0.1307  0.0205 -0.0263
24085DOPC   C3A29701  15.254   0.527  12.439  0.0968 -0.2410 -0.2482
24085DOPC   C4A29702  15.057   0.427  12.895  0.0383 -0.0710 -0.0843
24085DOPC   C1B29703  16.305   0.885  11.998 -0.0101  0.0788 -0.1573
24085DOPC   D2B29704  16.431   0.796  12.441 -0.2468  0.1507 -0.1077
24085DOPC   C3B29705  16.321   0.487  12.804 -0.2572  0.1185  0.0070
24085DOPC   C4B29706  16.314   0.324  13.298 -0.0037 -0.1010  0.0328
24086DOPC   NC329707   8.340   3.588  10.871  0.0185  0.2278 -0.2659
24086DOPC   PO429708   8.328   3.208  11.045 -0.2114 -0.1100  0.1446
24086DOPC   GL129709   8.393   3.216  11.468 -0.3039  0.0383  0.2831
24086DOPC   GL229710   8.130   3.180  11.477  0.1494 -0.5234  0.1620
24086DOPC   C1A29711   8.587   3.435  11.702  0.3649 -0.2289 -0.0279
24086DOPC   D2A29712   8.613   3.575  12.190 -0.0181 -0.0258 -0.0463
24086DOPC   C3A29713   8.866   3.451  12.626  0.0255 -0.3472  0.4183
24086DOPC   C4A29714   8.813   3.149  13.020 -0.3350  0.0912  0.0943
24086DOPC   C1B29715   7.995   2.777  11.607 -0.1289 -0.6030 -0.0965
24086DOPC   D2B29716   7.849   2.518  11.991 -0.3182 -0.1174  0.0721
24086DOPC   C3B29717   7.897   2.377  12.442  0.1738 -0.2935 -0.1378
24086DOPC   C4B29718   7.786   1.911  12.513 -0.1170  0.0829  0.1242
24087DOPC   NC329719   5.663   6.277  10.707  0.2192 -0.0019 -0.1276
24087DOPC   PO429720   5.923   6.052  10.909 -0.0377  0.2041 -0.1927
24087DOPC   GL129721   5.681   5.911  11.167 -0.4212 -0.2327  0.2008
24087DOPC   GL229722   5.713   5.642  11.298  0.0473  0.0770 -0.0010
24087DOPC   C1A29723   5.671   6.232  11.473 -0.0369 -0.2417  0.1054
24087DOPC   D2A29724   5.465   6.539  11.873 -0.1427 -0.1646  0.0568
24087DOPC   C3A29725   5.608   6.366  12.282  0.0508  0.0612 -0.2006
24087DOPC   C4A29726   5.823   6.064  12.599 -0.1106 -0.0902 -0.2985
24087DOPC   C1B29727   5.382   5.609  11.544 -0.0057  0.0001  0.0612
24087DOPC   D2B29728   5.051   5.679  11.860 -0.0682 -0.1258 -0.0195
24087DOPC   C3B29729   4.942   5.676  12.378  0.3174 -0.0109 -0.1340
24087DOPC   C4B29730   4.612   5.441  12.702 -0.0107  0.1069  0.0376
24088DOPC   NC329731  13.841   3.669  11.344  0.1441  0.0109 -0.2761
24088DOPC   PO429732  13.669   3.323  11.310 -0.1485  0.3252  0.3649
24088DOPC   GL129733  13.530   3.487  11.716 -0.0209  0.1363  0.1297
24088DOPC   GL229734  13.258   3.390  11.497 -0.1086  0.2841 -0.0457
24088DOPC   C1A29735  13.467   3.408  12.152 -0.0540  0.2098 -0.0436
24088DOPC   D2A29736  13.291   3.307  12.626 -0.0254 -0.1943 -0.0496
24088DOPC   C3A29737  13.618   3.102  12.994 -0.0674 -0.0727 -0.0142
24088DOPC   C4A29738  13.915   3.016  13.424  0.1572 -0.0031  0.0628
24088DOPC   C1B29739  13.153   3.129  11.839 -0.2084  0.2575  0.2321
24088DOPC   D2B29740  12.933   3.224  12.262  0.2014 -0.2025  0.1185
24088DOPC   C3B29741  12.748   3.295  12.695  0.4697 -0.0806 -0.0480
24088DOPC   C4B29742  12.553   3.366  13.136 -0.0577  0.1172 -0.1514
24089DOPC   NC329743   4.300   6.160  11.083  0.1722 -0.0206  0.1257
24089DOPC   PO429744   4.513   6.318  10.764 -0.0367 -0.4505 -0.3026
24089DOPC   GL129745   4.729   6.434  11.153  0.4407 -0.0266  0.4791
24089DOPC   GL229746   4.676   6.175  11.300 -0.2259 -0.3117  0.0141
24089DOPC   C1A29747   4.509   6.595  11.463 -0.0797 -0.1058 -0.0976
24089DOPC   D2A29748   4.467   6.538  11.917 -0.2572 -0.2454  0.2941
24089DOPC   C3A29749   4.612   6.548  12.409  0.1033  0.2194  0.0675
24089DOPC   C4A29750   4.724   6.622  12.895  0.4973  0.0139  0.1371
24089DOPC   C1B29751   4.649   6.149  11.709 -0.0387  0.0302 -0.2399
24089DOPC   D2B29752   4.754   6.104  12.175 -0.0106  0.0085  0.2575
24089DOPC   C3B29753   4.838   6.131  12.588 -0.5509  0.0058  0.0785
24089DOPC   C4B29754   5.047   5.968  12.983 -0.1325  0.0328  0.0098
24090DOPC   NC329755   2.212   0.715  10.216 -0.4076  0.0584  0.2270
24090DOPC   PO429756   1.982   0.532  10.456  0.1683  0.0872 -0.2835
24090DOPC   GL129757   2.252   0.388  10.835  0.1025 -0.2024 -0.2040
24090DOPC   GL229758   2.292   0.679  10.901  0.1278  0.1552  0.1629
24090DOPC   C1A29759   2.071   0.127  11.165 -0.2255  0.2385  0.1670
24090DOPC   D2A29760   1.779  -0.261  11.262 -0.2356 -0.0408  0.0845
24090DOPC   C3A29761   1.788  -0.585  11.595  0.0071  0.1208 -0.2262
24090DOPC   C4A29762   1.799  -0.921  11.953  0.1006 -0.0115  0.0599
24090DOPC   C1B29763   2.549   0.916  11.118 -0.0119 -0.4919 -0.2087
24090DOPC   D2B29764   2.546   1.320  11.313  0.1047 -0.0785  0.2512
24090DOPC   C3B29765   2.560   1.366  11.770  0.1020  0.1605 -0.2803
24090DOPC   C4B29766   2.542   1.621  12.176  0.0561 -0.0466 -0.1638
24091DOPC   NC329767  14.353   0.103  11.303 -0.1737 -0.0610  0.0675
24091DOPC   PO429768  14.459   0.446  11.088 -0.0573  0.3529  0.1467
24091DOPC   GL129769  14.400   0.668  11.500 -0.1344  0.2112  0.2292
24091DOPC   GL229770  14.584   0.415  11.606 -0.1028 -0.4735  0.1874
24091DOPC   C1A29771  14.083   0.855  11.735  0.2250  0.3538 -0.1434
24091DOPC   D2A29772  14.026   1.116  12.180  0.2771 -0.0249  0.1779
24091DOPC   C3A29773  14.201   1.400  12.525  0.1177  0.2612 -0.1695
24091DOPC   C4A29774  14.293   1.530  12.998 -0.1653  0.0486  0.0353
24091DOPC   C1B29775  14.362   0.443  11.926 -0.1316  0.0811  0.1940
24091DOPC   D2B29776  14.035   0.635  12.197 -0.0129  0.4680  0.1992
24091DOPC   C3B29777  13.924   0.822  12.555 -0.1499  0.1788  0.1611
24091DOPC   C4B29778  13.706   1.046  12.946  0.0082 -0.2311 -0.0102
24092DOPC   NC329779  15.338   0.500  11.584  0.2449  0.3370  0.1795
24092DOPC   PO429780  15.493   0.126  11.524  0.0033 -0.2736  0.0064
24092DOPC   GL129781  15.395   0.110  11.921 -0.0505 -0.0176 -0.3000
24092DOPC   GL229782  15.287  -0.182  11.876  0.4045  0.2970  0.1150
24092DOPC   C1A29783  15.691   0.262  12.173 -0.0454 -0.1111 -0.0516
24092DOPC   D2A29784  15.816   0.342  12.604 -0.2033  0.0516  0.2575
24092DOPC   C3A29785  15.904   0.135  13.004 -0.0319  0.1338  0.4187
24092DOPC   C4A29786  15.721  -0.197  13.326  0.3751 -0.1799  0.0816
24092DOPC   C1B29787  15.373  -0.592  12.006 -0.0610 -0.2756 -0.1248
24092DOPC   D2B29788  15.321  -0.989  12.175 -0.0912 -0.1440  0.1495
24092DOPC   C3B29789  14.873  -1.187  12.213  0.1108 -0.3388 -0.0151
24092DOPC   C4B29790  14.534  -0.778  12.331  0.0090 -0.2184  0.0561
24093DOPC   NC329791   0.286   1.220  10.819  0.2101  0.0513  0.0071
24093DOPC   PO429792  -0.002   1.010  10.675  0.1907  0.0479 -0.0276
24093DOPC   GL129793  -0.066   0.886  11.012 -0.0357 -0.3304 -0.0846
24093DOPC   GL229794  -0.126   1.183  11.084 -0.0378  0.1450 -0.3016
24093DOPC   C1A29795  -0.047   0.679  11.422  0.0484  0.0783 -0.0081
24093DOPC   D2A29796   0.048   0.369  11.851  0.0088  0.0769 -0.1694
24093DOPC   C3A29797   0.304   0.529  12.216  0.0612 -0.1147  0.0555
24093DOPC   C4A29798   0.632   0.541  12.523 -0.3234  0.1469  0.0259
24093DOPC   C1B29799  -0.015   1.218  11.471 -0.0152 -0.1132 -0.1112
24093DOPC   D2B29800   0.076   0.895  11.896 -0.0446  0.1255 -0.1925
24093DOPC   C3B29801   0.289   1.171  12.201 -0.1436 -0.0055  0.4002
24093DOPC   C4B29802   0.584   1.408  12.543  0.0414  0.0808 -0.1263
24094DOPC   NC329803   4.113   2.345  10.223 -0.1150 -0.0973 -0.0052
24094DOPC   PO429804   4.042   2.636  10.505 -0.3985 -0.1387 -0.1242
24094DOPC   GL129805   4.293   2.666  10.856  0.3003 -0.1690 -0.0238
24094DOPC   GL229806   4.256   2.896  10.938  0.0848  0.2979  0.1950
24094DOPC   C1A29807   4.346   2.323  11.126 -0.0738  0.3147 -0.0901
24094DOPC   D2A29808   4.598   2.025  11.408 -0.1657 -0.0668 -0.1543
24094DOPC   C3A29809   4.558   1.994  11.898 -0.1344  0.2403 -0.0534
24094DOPC   C4A29810   4.672   1.832  12.367 -0.0906  0.1969 -0.1154
24094DOPC   C1B29811   4.347   2.768  11.376  0.0481 -0.3681 -0.1992
24094DOPC   D2B29812   4.582   2.449  11.702  0.1260  0.3808  0.2515
24094DOPC   C3B29813   4.572   2.452  12.215 -0.2847  0.2206 -0.1966
24094DOPC   C4B29814   4.600   2.269  12.688  0.1277  0.1392 -0.0356
24095DOPC   NC329815   3.312   1.902  10.473  0.0504  0.2854  0.1662
24095DOPC   PO429816   3.389   1.511  10.372  0.0234  0.1175  0.0511
24095DOPC   GL129817   3.293   1.285  10.705  0.1476  0.1143 -0.0100
24095DOPC   GL229818   3.284   1.587  10.815  0.1553 -0.2722 -0.4210
24095DOPC   C1A29819   3.405   1.134  11.117  0.2092 -0.1091  0.0283
24095DOPC   D2A29820   3.363   1.118  11.610  0.1128 -0.0854 -0.1084
24095DOPC   C3A29821   3.157   1.325  11.961 -0.0594 -0.1511  0.0438
24095DOPC   C4A29822   3.006   1.527  12.299  0.0557 -0.0149  0.0364
24095DOPC   C1B29823   3.416   1.630  11.211  0.1106  0.1673  0.0503
24095DOPC   D2B29824   3.341   1.798  11.671  0.0397  0.0659 -0.4194
24095DOPC   C3B29825   3.278   1.913  12.119  0.0750 -0.0014 -0.0006
24095DOPC   C4B29826   3.159   1.954  12.596  0.1169  0.0270 -0.3159
24096DOPC   NC329827  30.837   2.187  10.329 -0.1030 -0.3009 -0.2471
24096DOPC   PO429828  31.044   2.528  10.336 -0.0838  0.0654  0.2586
24096DOPC   GL129829  31.141   2.464  10.758 -0.0274  0.0729 -0.1171
24096DOPC   GL229830  30.907   2.243  10.787 -0.1355  0.2897 -0.0091
24096DOPC   C1A29831  31.451   2.543  11.061 -0.0636 -0.0900 -0.0200
24096DOPC   D2A29832  31.780   2.486  11.409 -0.1091 -0.1825 -0.3580
24096DOPC   C3A29833  31.485   2.666  11.738 -0.0297  0.1539 -0.3441
24096DOPC   C4A29834  31.128   2.796  12.098  0.0972  0.0663  0.0110
24096DOPC   C1B29835  30.893   2.168  11.261  0.0050 -0.0810  0.0024
24096DOPC   D2B29836  30.866   2.122  11.706  0.0663 -0.4173  0.1678
24096DOPC   C3B29837  30.601   2.159  12.150  0.0869  0.2574  0.1037
24096DOPC   C4B29838  30.354   2.570  12.349  0.3219  0.1814 -0.0956
24097DOPC   NC329839  25.704   0.171  10.556  0.1108  0.1484 -0.0314
24097DOPC   PO429840  25.483   0.052  10.863  0.2053 -0.0067 -0.0363
24097DOPC   GL129841  25.697   0.100  11.207  0.0753 -0.1111  0.1447
24097DOPC   GL229842  25.834   0.323  11.157  0.3700 -0.1925  0.0048
24097DOPC   C1A29843  25.687  -0.077  11.652 -0.1636 -0.0049  0.3301
24097DOPC   D2A29844  25.797   0.086  12.162 -0.0336 -0.0526  0.1739
24097DOPC   C3A29845  25.487   0.313  12.438  0.2429  0.3165  0.1503
24097DOPC   C4A29846  25.215   0.408  12.830 -0.0113  0.1767 -0.0487
24097DOPC   C1B29847  25.959   0.502  11.557 -0.0576 -0.0564  0.0705
24097DOPC   D2B29848  26.131   0.443  12.014  0.0580  0.0487  0.1632
24097DOPC   C3B29849  25.962   0.413  12.443 -0.2036 -0.1853  0.2199
24097DOPC   C4B29850  25.681   0.665  12.795 -0.0754 -0.0849 -0.0673
24098DOPC   NC329851  17.700   5.830  11.666 -0.1642  0.1571 -0.1092
24098DOPC   PO429852  17.931   5.529  11.506  0.2475  0.2925  0.1372
24098DOPC   GL129853  18.300   5.598  11.787  0.2062  0.3661 -0.1869
24098DOPC   GL229854  18.124   5.832  11.841  0.0950  0.1425  0.0938
24098DOPC   C1A29855  18.520   5.816  12.050 -0.1751  0.2034 -0.2738
24098DOPC   D2A29856  18.711   6.050  12.469 -0.0624 -0.2508  0.1334
24098DOPC   C3A29857  18.490   6.355  12.763 -0.2837 -0.0165  0.0651
24098DOPC   C4A29858  18.146   6.688  12.904  0.1684  0.1536  0.1992
24098DOPC   C1B29859  17.937   5.593  12.146  0.2751  0.0249 -0.3321
24098DOPC   D2B29860  17.697   5.640  12.596 -0.1572 -0.1720  0.0186
24098DOPC   C3B29861  17.779   5.727  13.007 -0.4422  0.0342  0.0901
24098DOPC   C4B29862  17.359   5.575  13.243  0.2289  0.1876 -0.0289
24099DOPC   NC329863  13.751   2.186  11.685  0.1748 -0.0826 -0.1383
24099DOPC   PO429864  13.341   2.159  11.657 -0.0770  0.0562  0.0397
24099DOPC   GL129865  13.156   2.197  11.972  0.0753 -0.1864 -0.3606
24099DOPC   GL229866  13.186   1.915  12.055 -0.1164 -0.1597  0.1048
24099DOPC   C1A29867  13.202   2.400  12.329 -0.1768  0.4030  0.0855
24099DOPC   D2A29868  13.281   2.593  12.726 -0.0378  0.0418  0.1524
24099DOPC   C3A29869  13.237   2.266  13.078 -0.0454  0.1363 -0.1288
24099DOPC   C4A29870  13.120   1.966  13.464  0.2665 -0.3729  0.3232
24099DOPC   C1B29871  13.145   1.914  12.534  0.0396  0.2013 -0.0837
24099DOPC   D2B29872  13.196   1.746  13.024 -0.1309  0.5358  0.0123
24099DOPC   C3B29873  13.541   1.802  13.325 -0.0185 -0.0656 -0.1560
24099DOPC   C4B29874  13.876   1.439  13.258  0.4187 -0.2620 -0.0792
24100DOPC   NC329875  18.603   7.515  11.051 -0.0231  0.2260  0.3351
24100DOPC   PO429876  18.924   7.527  11.264  0.0224  0.1551  0.2809
24100DOPC   GL129877  18.888   7.669  11.695 -0.0701 -0.0867 -0.1705
24100DOPC   GL229878  18.918   7.986  11.621  0.3661  0.1519  0.0085
24100DOPC   C1A29879  18.684   7.635  12.052 -0.1343 -0.2153  0.0245
24100DOPC   D2A29880  18.435   7.579  12.504  0.0962  0.2067  0.2362
24100DOPC   C3A29881  17.996   7.481  12.732  0.0113  0.1952 -0.0068
24100DOPC   C4A29882  17.617   7.337  13.018 -0.1431  0.0184 -0.0573
24100DOPC   C1B29883  18.772   8.220  11.915  0.2510 -0.1796  0.0172
24100DOPC   D2B29884  18.467   8.135  12.343 -0.1782  0.1021 -0.1154
24100DOPC   C3B29885  18.147   8.495  12.357  0.1867 -0.3557 -0.2644
24100DOPC   C4B29886  17.754   8.847  12.359 -0.0439  0.2396 -0.0066
24101DOPC   NC329887  11.322   0.673  11.141  0.0388  0.0798  0.3350
24101DOPC   PO429888  11.567   0.397  11.222 -0.1053  0.0166  0.0794
24101DOPC   GL129889  11.666   0.151  11.590 -0.4486 -0.1403  0.1028
24101DOPC   GL229890  11.429   0.094  11.628 -0.3658  0.0887 -0.2560
24101DOPC   C1A29891  11.928   0.243  11.952 -0.2667 -0.1146  0.2241
24101DOPC   D2A29892  11.912   0.152  12.512 -0.1047 -0.2723 -0.2163
24101DOPC   C3A29893  11.946  -0.205  12.760 -0.3338  0.1254  0.0545
24101DOPC   C4A29894  11.951  -0.666  12.937  0.1559 -0.3717 -0.1562
24101DOPC   C1B29895  11.425   0.026  12.038 -0.0730 -0.0355  0.1748
24101DOPC   D2B29896  11.426   0.014  12.546  0.1006  0.1419  0.3068
24101DOPC   C3B29897  11.572   0.013  12.992 -0.0266  0.2489 -0.5165
24101DOPC   C4B29898  11.876   0.219  13.293 -0.1119 -0.2702 -0.4078
24102DOPC   NC329899  12.622   7.849  11.020 -0.3786 -0.1544 -0.0210
24102DOPC   PO429900  12.231   7.737  11.053  0.2283  0.0226  0.1467
24102DOPC   GL129901  12.168   7.659  11.412  0.0476 -0.6401 -0.0545
24102DOPC   GL229902  12.484   7.820  11.460 -0.1121  0.1506  0.0259
24102DOPC   C1A29903  12.015   7.612  11.853  0.2276  0.0036  0.0307
24102DOPC   D2A29904  11.768   7.604  12.269  0.2965  0.0390  0.2755
24102DOPC   C3A29905  11.647   7.139  12.501 -0.1670 -0.0080 -0.1272
24102DOPC   C4A29906  11.580   6.809  12.881  0.0157  0.1735  0.3092
24102DOPC   C1B29907  12.574   7.851  11.899  0.4696  0.1495  0.3720
24102DOPC   D2B29908  12.363   7.941  12.289  0.0856 -0.3344 -0.0059
24102DOPC   C3B29909  12.435   8.011  12.774 -0.1090  0.2016 -0.3780
24102DOPC   C4B29910  12.332   7.802  13.179 -0.1380 -0.1141 -0.2957
24103DOPC   NC329911   0.612   5.092  10.343 -0.0951 -0.0042 -0.3418
24103DOPC   PO429912   0.983   5.012  10.424 -0.2343  0.1273 -0.1156
24103DOPC   GL129913   0.864   5.270  10.682  0.2540 -0.1483 -0.1341
24103DOPC   GL229914   1.111   5.402  10.729  0.1266 -0.1005 -0.2428
24103DOPC   C1A29915   0.746   5.051  11.049  0.1463  0.1869 -0.0446
24103DOPC   D2A29916   0.517   5.080  11.487  0.1920 -0.0588 -0.0549
24103DOPC   C3A29917   0.447   5.056  11.976  0.2120  0.0360 -0.3695
24103DOPC   C4A29918   0.560   5.000  12.434  0.2716 -0.1221 -0.1346
24103DOPC   C1B29919   1.230   5.558  11.114  0.0197 -0.0478  0.1236
24103DOPC   D2B29920   1.289   5.513  11.585 -0.0357 -0.0949  0.0174
24103DOPC   C3B29921   1.377   5.416  12.022 -0.0149  0.1599 -0.1292
24103DOPC   C4B29922   1.608   5.419  12.480 -0.2201 -0.2435 -0.0787
24104DOPC   NC329923   0.783   4.161  10.561 -0.0413  0.2796  0.2044
24104DOPC   PO429924   0.697   4.503  10.443  0.3276 -0.0682 -0.0264
24104DOPC   GL129925   0.689   4.676  10.793  0.4558 -0.0592 -0.0139
24104DOPC   GL229926   0.950   4.728  10.863  0.1300  0.3547  0.2141
24104DOPC   C1A29927   0.403   4.565  11.126 -0.2589  0.0124  0.1527
24104DOPC   D2A29928   0.401   4.579  11.652  0.1081 -0.0657  0.2908
24104DOPC   C3A29929   0.081   4.644  11.955  0.2674 -0.2676 -0.1552
24104DOPC   C4A29930  -0.225   4.868  12.202 -0.3579  0.1273 -0.1388
24104DOPC   C1B29931   0.971   4.606  11.371  0.3688 -0.1123 -0.0097
24104DOPC   D2B29932   0.892   4.704  11.855 -0.2675 -0.0225 -0.0323
24104DOPC   C3B29933   0.562   4.523  12.207 -0.1313 -0.0608  0.0722
24104DOPC   C4B29934   0.242   4.346  12.494 -0.0340 -0.1280 -0.1126
24105DOPC   NC329935  13.173   4.787  11.150 -0.0526  0.1427 -0.0671
24105DOPC   PO429936  13.208   4.429  11.330  0.1489  0.1009  0.0691
24105DOPC   GL129937  13.254   4.622  11.671 -0.1741 -0.0651  0.1884
24105DOPC   GL229938  13.317   4.874  11.597  0.1346  0.0469  0.3168
24105DOPC   C1A29939  13.255   4.636  12.110  0.0322  0.0459 -0.0719
24105DOPC   D2A29940  13.292   4.952  12.524 -0.1311 -0.0218 -0.0672
24105DOPC   C3A29941  13.142   5.035  12.948 -0.2866  0.1933 -0.1851
24105DOPC   C4A29942  13.457   5.170  13.339  0.0796  0.2917  0.0085
24105DOPC   C1B29943  13.405   5.128  12.029  0.3118 -0.1861  0.2285
24105DOPC   D2B29944  13.148   5.419  12.348  0.2921 -0.0682 -0.1966
24105DOPC   C3B29945  12.844   5.708  12.566 -0.0851  0.1908  0.0809
24105DOPC   C4B29946  12.494   5.669  12.936 -0.2592 -0.3563  0.1111
24106DOPC   NC329947  26.506   6.912  11.107 -0.1589  0.2011 -0.1881
24106DOPC   PO429948  26.830   7.083  11.279  0.1169 -0.0041  0.1100
24106DOPC   GL129949  26.603   7.071  11.598  0.3346  0.3215  0.0136
24106DOPC   GL229950  26.601   6.790  11.610  0.1434 -0.0430 -0.1143
24106DOPC   C1A29951  26.588   7.402  11.856  0.1951 -0.1737 -0.0593
24106DOPC   D2A29952  26.852   7.818  12.055  0.5422  0.0947  0.2985
24106DOPC   C3A29953  27.086   8.039  12.413  0.2040 -0.1692  0.1577
24106DOPC   C4A29954  27.160   8.167  12.800  0.1319 -0.4113 -0.0016
24106DOPC   C1B29955  26.637   6.515  11.994  0.2935 -0.1950  0.1055
24106DOPC   D2B29956  26.620   6.567  12.550  0.1329  0.0531 -0.0181
24106DOPC   C3B29957  26.452   6.179  12.766  0.2066 -0.0522  0.1247
24106DOPC   C4B29958  26.398   5.995  13.199  0.2331  0.1573  0.1814
24107DOPC   NC329959  25.805   3.115  10.770  0.0858  0.1673 -0.0112
24107DOPC   PO429960  25.643   3.204  11.130  0.0344 -0.0481  0.0921
24107DOPC   GL129961  25.625   3.214  11.522  0.1735 -0.1410 -0.2858
24107DOPC   GL229962  25.920   3.122  11.630  0.1772 -0.4328 -0.3196
24107DOPC   C1A29963  25.412   3.302  11.917 -0.0480  0.1292  0.0333
24107DOPC   D2A29964  25.039   3.431  12.162  0.0290 -0.1534  0.0622
24107DOPC   C3A29965  25.350   3.287  12.471  0.0397  0.0399  0.0224
24107DOPC   C4A29966  25.527   2.991  12.790 -0.1868 -0.0134  0.0746
24107DOPC   C1B29967  26.060   2.707  11.625 -0.4311  0.2731 -0.3588
24107DOPC   D2B29968  26.152   2.265  11.712 -0.0169  0.0618 -0.0324
24107DOPC   C3B29969  26.042   1.957  12.049 -0.0949 -0.0641 -0.1478
24107DOPC   C4B29970  26.060   1.899  12.503  0.1366 -0.0812 -0.1055
24108DOPC   NC329971  27.032   3.932  10.381 -0.1494  0.1940  0.2903
24108DOPC   PO429972  27.242   4.220  10.562  0.1167  0.3575  0.2354
24108DOPC   GL129973  27.354   4.087  10.974  0.1619 -0.2060  0.0071
24108DOPC   GL229974  27.417   4.358  11.011  0.0261 -0.2802  0.2429
24108DOPC   C1A29975  27.177   3.945  11.357  0.2238  0.4127  0.0073
24108DOPC   D2A29976  27.219   3.821  11.876 -0.0050 -0.1176  0.1184
24108DOPC   C3A29977  27.505   3.911  12.219  0.0483  0.1838 -0.1625
24108DOPC   C4A29978  27.746   4.200  12.553  0.2184  0.1388 -0.1020
24108DOPC   C1B29979  27.612   4.293  11.394  0.1922 -0.2114 -0.1435
24108DOPC   D2B29980  27.686   4.131  11.829 -0.0601 -0.0742 -0.2206
24108DOPC   C3B29981  27.984   4.044  12.162 -0.0043  0.1798 -0.1375
24108DOPC   C4B29982  28.175   3.996  12.566 -0.0808  0.1990  0.0564
24109DOPC   NC329983   9.040   4.711  10.968 -0.1974 -0.2596 -0.3859
24109DOPC   PO429984   9.106   4.382  11.079 -0.0423  0.2212 -0.1309
24109DOPC   GL129985   9.220   4.469  11.454  0.0260 -0.0843  0.0148
24109DOPC   GL229986   8.884   4.581  11.537 -0.2848 -0.1797 -0.0236
24109DOPC   C1A29987   9.473   4.491  11.782 -0.2662  0.0062  0.1719
24109DOPC   D2A29988   9.552   4.424  12.316  0.1002 -0.1810  0.1481
24109DOPC   C3A29989   9.389   4.101  12.676  0.2578 -0.1111 -0.1602
24109DOPC   C4A29990   9.208   3.752  12.947  0.1575 -0.1186  0.0512
24109DOPC   C1B29991   9.017   4.394  11.899 -0.0451  0.2115 -0.0781
24109DOPC   D2B29992   9.051   4.184  12.351  0.1073 -0.1561  0.0280
24109DOPC   C3B29993   8.890   4.109  12.805  0.0096  0.0586 -0.1153
24109DOPC   C4B29994   8.719   3.740  13.092 -0.0167  0.1962  0.0303
24110DOPC   NC329995  18.343   1.314  11.343  0.0961  0.3120  0.0068
24110DOPC   PO429996  18.053   1.536  11.511  0.1369 -0.0620 -0.3183
24110DOPC   GL129997  18.187   1.759  11.844  0.3161 -0.1732 -0.4332
24110DOPC   GL229998  17.920   1.953  11.860 -0.4505  0.0066  0.1380
24110DOPC   C1A29999  18.158   1.483  12.244 -0.3310 -0.0953 -0.0739
24110DOPC   D2A30000  18.175   1.124  12.600 -0.1766  0.0455  0.0564
24110DOPC   C3A30001  18.461   1.126  12.931  0.0805 -0.3508  0.0115
24110DOPC   C4A30002  18.609   1.054  13.419  0.0822 -0.0714 -0.0109
24110DOPC   C1B30003  18.140   2.060  12.228  0.0443 -0.3212  0.2222
24110DOPC   D2B30004  18.334   1.810  12.617  0.0709 -0.0818  0.2402
24110DOPC   C3B30005  18.177   1.541  12.893  0.1704  0.2032  0.0458
24110DOPC   C4B30006  18.037   1.203  13.228 -0.1816 -0.3994  0.0983
24111DOPC   NC330007  21.127   7.383  11.380  0.0128  0.2676 -0.1553
24111DOPC   PO430008  21.436   7.566  11.217  0.1249 -0.1622 -0.0510
24111DOPC   GL130009  21.774   7.540  11.333 -0.2694  0.0444  0.1822
24111DOPC   GL230010  21.973   7.706  11.265 -0.2201  0.0161  0.0595
24111DOPC   C1A30011  21.760   7.632  11.756 -0.1140 -0.3950 -0.0857
24111DOPC   D2A30012  21.759   7.754  12.258 -0.4417 -0.1395 -0.3259
24111DOPC   C3A30013  21.545   7.813  12.664  0.0360  0.2846 -0.1464
24111DOPC   C4A30014  21.203   7.689  13.062  0.0913  0.1272 -0.0683
24111DOPC   C1B30015  22.175   7.883  11.700 -0.1370  0.0030  0.5124
24111DOPC   D2B30016  22.398   7.836  12.176  0.1211 -0.0489 -0.1060
24111DOPC   C3B30017  22.256   8.113  12.577 -0.1750  0.3297 -0.0734
24111DOPC   C4B30018  22.513   8.558  12.591  0.2763  0.0340 -0.1501
24112DOPC   NC330019  30.948   6.304  10.170  0.1730  0.2530  0.2821
24112DOPC   PO430020  30.582   6.161  10.243  0.0602 -0.2132 -0.0774
24112DOPC   GL130021  30.558   5.855  10.576 -0.2546  0.0075  0.0407
24112DOPC   GL230022  30.844   5.772  10.521 -0.1648 -0.0391  0.1525
24112DOPC   C1A30023  30.552   5.848  11.024  0.0259  0.0681 -0.2749
24112DOPC   D2A30024  30.455   5.970  11.535  0.1603  0.2521  0.1375
24112DOPC   C3A30025  30.581   6.143  11.984  0.2867 -0.1266 -0.1125
24112DOPC   C4A30026  30.579   6.108  12.497 -0.0681 -0.1194 -0.0810
24112DOPC   C1B30027  31.020   5.683  10.897 -0.4472 -0.2125  0.2128
24112DOPC   D2B30028  31.033   5.772  11.365  0.0779  0.0044  0.0336
24112DOPC   C3B30029  31.072   5.727  11.842 -0.2405 -0.1557  0.1233
24112DOPC   C4B30030  31.395   5.798  12.201 -0.2602  0.0564  0.4057
24113DOPC   NC330031  14.528   1.477  10.873  0.2641  0.3408 -0.3061
24113DOPC   PO430032  14.164   1.497  11.076  0.0861 -0.0225  0.2529
24113DOPC   GL130033  14.104   1.273  11.445 -0.1275 -0.2853 -0.0133
24113DOPC   GL230034  14.317   1.125  11.489  0.2100 -0.1599 -0.3539
24113DOPC   C1A30035  13.971   1.447  11.822 -0.1218  0.0129  0.1421
24113DOPC   D2A30036  14.009   1.694  12.194 -0.1228 -0.1978  0.1598
24113DOPC   C3A30037  14.491   1.771  12.290  0.1589  0.1404 -0.0758
24113DOPC   C4A30038  14.976   1.822  12.427 -0.2969  0.3259  0.3494
24113DOPC   C1B30039  14.487   1.173  11.960 -0.1435  0.0314  0.3443
24113DOPC   D2B30040  14.673   1.271  12.421 -0.2828 -0.0091  0.1249
24113DOPC   C3B30041  14.797   1.449  12.915  0.2270  0.1149  0.1448
24113DOPC   C4B30042  14.958   1.567  13.314  0.3123  0.1093 -0.2499
24114DOPC   NC330043  15.754   3.558  10.734 -0.1816  0.0390  0.3401
24114DOPC   PO430044  15.586   3.620  11.085  0.0624  0.1681 -0.3323
24114DOPC   GL130045  15.486   3.683  11.470  0.0587 -0.0216 -0.0146
24114DOPC   GL230046  15.209   3.791  11.406  0.3942  0.3793  0.1303
24114DOPC   C1A30047  15.401   3.491  11.871  0.1965 -0.1747 -0.3583
24114DOPC   D2A30048  15.331   3.512  12.343 -0.0812 -0.0374  0.0596
24114DOPC   C3A30049  15.536   3.289  12.695  0.1149 -0.2583 -0.2997
24114DOPC   C4A30050  15.474   2.868  13.022  0.3297 -0.2989  0.2782
24114DOPC   C1B30051  14.926   3.780  11.721 -0.1884  0.0555 -0.4239
24114DOPC   D2B30052  14.834   3.913  12.141  0.1131  0.0066  0.0947
24114DOPC   C3B30053  15.126   3.936  12.523 -0.1528  0.2607 -0.0819
24114DOPC   C4B30054  15.561   3.878  12.687 -0.0748 -0.0945  0.2500
24115DOPC   NC330055   3.884   4.673  11.035  0.0127 -0.1644  0.0619
24115DOPC   PO430056   3.714   4.376  10.807  0.2977  0.0391  0.4616
24115DOPC   GL130057   3.570   4.251  11.173  0.1098 -0.0012  0.3459
24115DOPC   GL230058   3.735   4.107  11.224  0.1754  0.1640 -0.1402
24115DOPC   C1A30059   3.568   4.576  11.473 -0.1500 -0.0058  0.0237
24115DOPC   D2A30060   3.808   4.668  11.912  0.2776  0.1733 -0.0648
24115DOPC   C3A30061   4.031   5.064  11.800 -0.1905  0.0847 -0.1980
24115DOPC   C4A30062   4.265   5.444  11.552 -0.0357 -0.2122  0.0083
24115DOPC   C1B30063   3.780   4.137  11.718  0.0772  0.0434  0.3807
24115DOPC   D2B30064   3.837   4.062  12.183  0.0058 -0.1312  0.0645
24115DOPC   C3B30065   3.775   4.473  12.445 -0.0448 -0.1953  0.1417
24115DOPC   C4B30066   3.588   4.918  12.675 -0.0374 -0.1578  0.0312
24116DOPC   NC330067   4.885   6.672  10.742  0.0888  0.0041 -0.1365
24116DOPC   PO430068   5.094   6.308  10.802  0.0893 -0.0876 -0.1002
24116DOPC   GL130069   5.248   6.146  11.089  0.0621  0.2558  0.1834
24116DOPC   GL230070   5.245   6.421  11.153  0.3164 -0.1049  0.0203
24116DOPC   C1A30071   5.179   6.041  11.520  0.0266 -0.1076  0.0309
24116DOPC   D2A30072   5.263   6.100  12.033 -0.3369  0.1261  0.1041
24116DOPC   C3A30073   5.326   5.926  12.444  0.0131 -0.0952  0.0112
24116DOPC   C4A30074   5.510   5.830  12.896 -0.0256  0.0697  0.2343
24116DOPC   C1B30075   5.041   6.528  11.524 -0.2562  0.0353 -0.0494
24116DOPC   D2B30076   4.984   6.529  11.964  0.0187  0.0215  0.0036
24116DOPC   C3B30077   5.139   6.685  12.373 -0.0218 -0.1372  0.1271
24116DOPC   C4B30078   5.315   6.838  12.745 -0.0716 -0.2229 -0.2002
24117DOPC   NC330079  25.796   7.484  11.099 -0.0603 -0.1948 -0.2395
24117DOPC   PO430080  26.001   7.152  11.144  0.2398  0.1117 -0.2065
24117DOPC   GL130081  26.213   6.962  11.505  0.3424 -0.0555 -0.5024
24117DOPC   GL230082  25.940   6.995  11.620  0.0653  0.1395  0.1405
24117DOPC   C1A30083  26.332   6.951  11.942 -0.0507  0.4104  0.0170
24117DOPC   D2A30084  26.274   6.942  12.517  0.0344  0.3842  0.0111
24117DOPC   C3A30085  26.568   6.996  12.826 -0.1035  0.0806  0.0676
24117DOPC   C4A30086  26.863   7.071  13.239 -0.2603  0.3860  0.1187
24117DOPC   C1B30087  25.817   6.812  11.976 -0.1735 -0.1241 -0.0595
24117DOPC   D2B30088  25.605   6.526  12.370 -0.1231 -0.0532  0.0327
24117DOPC   C3B30089  25.486   6.804  12.729 -0.1200 -0.0269 -0.0134
24117DOPC   C4B30090  25.351   7.076  13.155 -0.0290 -0.0789  0.2679
24118DOPC   NC330091  19.548   6.067  10.754  0.3119  0.2284 -0.4157
24118DOPC   PO430092  19.351   5.860  11.092 -0.0065  0.0272  0.1604
24118DOPC   GL130093  19.381   5.927  11.412  0.0090  0.1602 -0.0183
24118DOPC   GL230094  19.113   5.898  11.545 -0.2808 -0.3132  0.2162
24118DOPC   C1A30095  19.694   5.842  11.705 -0.1933  0.1921  0.3196
24118DOPC   D2A30096  20.040   5.741  12.109 -0.0967 -0.2514  0.2159
24118DOPC   C3A30097  19.968   5.861  12.559 -0.0669  0.0702  0.2076
24118DOPC   C4A30098  20.130   6.064  12.989  0.1456  0.1803  0.1538
24118DOPC   C1B30099  19.076   5.711  11.989  0.2597 -0.2342  0.0834
24118DOPC   D2B30100  18.924   5.551  12.455  0.2716 -0.1522  0.0994
24118DOPC   C3B30101  19.062   5.778  12.848 -0.0053 -0.1493  0.0045
24118DOPC   C4B30102  19.191   5.976  13.279  0.0233  0.1063 -0.0366
24119DOPC   NC330103   9.390   1.154  10.987  0.2224  0.1152  0.3273
24119DOPC   PO430104   9.753   1.227  11.052 -0.0458 -0.1860 -0.1048
24119DOPC   GL130105   9.957   1.329  11.463 -0.1364 -0.0619 -0.1242
24119DOPC   GL230106  10.154   1.075  11.469 -0.3181  0.2082 -0.0266
24119DOPC   C1A30107   9.984   1.372  11.930  0.0393 -0.3413 -0.5032
24119DOPC   D2A30108  10.021   1.305  12.441  0.0057 -0.0965  0.0195
24119DOPC   C3A30109   9.701   1.404  12.739 -0.1777  0.1549 -0.0857
24119DOPC   C4A30110   9.286   1.614  12.889  0.2969  0.2021 -0.1693
24119DOPC   C1B30111  10.294   0.931  11.821  0.2452 -0.1393 -0.1301
24119DOPC   D2B30112  10.427   0.888  12.292  0.0762  0.0486 -0.1339
24119DOPC   C3B30113  10.563   1.174  12.631 -0.1645 -0.0235  0.2866
24119DOPC   C4B30114  10.618   1.520  12.970  0.0909  0.1948 -0.1301
24120DOPC   NC330115  30.108   4.417   9.953 -0.1264 -0.0218  0.0220
24120DOPC   PO430116  30.201   4.124  10.233 -0.0393  0.0898  0.3975
24120DOPC   GL130117  30.017   4.161  10.620  0.2432  0.0013  0.1250
24120DOPC   GL230118  30.261   4.242  10.698  0.0192  0.0660  0.0073
24120DOPC   C1A30119  29.859   4.229  10.977  0.0331 -0.1477 -0.2222
24120DOPC   D2A30120  29.728   4.263  11.476  0.2174  0.1710  0.0824
24120DOPC   C3A30121  29.601   4.220  11.945  0.2025  0.0680  0.2254
24120DOPC   C4A30122  29.367   4.213  12.338 -0.1429 -0.0695  0.2183
24120DOPC   C1B30123  30.295   4.277  11.158 -0.0273  0.3583  0.2027
24120DOPC   D2B30124  30.427   4.338  11.645 -0.0572  0.1489  0.0433
24120DOPC   C3B30125  30.451   4.646  11.947 -0.0835 -0.0354  0.1858
24120DOPC   C4B30126  30.292   4.870  12.293 -0.4175 -0.4042  0.2987
24121DOPC   NC330127  21.516   6.754  11.541 -0.0884  0.0281  0.0621
24121DOPC   PO430128  21.541   7.140  11.508 -0.3737  0.1080 -0.0673
24121DOPC   GL130129  21.268   7.158  11.801 -0.1772 -0.0855 -0.3497
24121DOPC   GL230130  21.546   7.242  11.932 -0.3266 -0.0195 -0.0385
24121DOPC   C1A30131  21.235   6.992  12.203  0.2086 -0.2967  0.2424
24121DOPC   D2A30132  21.159   6.820  12.678 -0.1481 -0.2480  0.3038
24121DOPC   C3A30133  20.971   6.552  13.034 -0.1699  0.1727  0.2998
24121DOPC   C4A30134  20.610   6.210  13.036 -0.3042 -0.1369 -0.1668
24121DOPC   C1B30135  21.658   7.249  12.338 -0.1593 -0.2398  0.0231
24121DOPC   D2B30136  21.764   7.293  12.823  0.0444 -0.0124 -0.1062
24121DOPC   C3B30137  22.038   7.407  13.227 -0.1172 -0.2998 -0.1512
24121DOPC   C4B30138  22.218   7.325  13.691 -0.1321  0.2283  0.1118
24122DOPC   NC330139  15.395   2.736  11.008 -0.0933 -0.0848  0.2670
24122DOPC   PO430140  15.160   2.764  11.334 -0.5894  0.0087  0.1254
24122DOPC   GL130141  15.102   2.914  11.674 -0.2384  0.0771  0.0317
24122DOPC   GL230142  15.067   3.216  11.679  0.1051  0.0513 -0.0558
24122DOPC   C1A30143  14.945   2.652  12.022 -0.0432 -0.0609  0.1515
24122DOPC   D2A30144  14.879   2.676  12.506 -0.1331  0.1950 -0.1070
24122DOPC   C3A30145  14.795   2.406  12.842  0.0820  0.0961 -0.0157
24122DOPC   C4A30146  14.941   1.954  12.961  0.2037 -0.2669 -0.0464
24122DOPC   C1B30147  14.857   3.368  12.117 -0.4511  0.2918  0.1517
24122DOPC   D2B30148  14.739   3.612  12.556 -0.2369 -0.0280 -0.0977
24122DOPC   C3B30149  14.697   3.845  12.990  0.0446 -0.1214 -0.3324
24122DOPC   C4B30150  14.620   3.749  13.471  0.2541 -0.0512  0.0170
24123DOPC   NC330151   9.897   2.356  11.277 -0.0127 -0.2944 -0.0321
24123DOPC   PO430152  10.130   2.744  11.250 -0.2341  0.2604 -0.0515
24123DOPC   GL130153  10.223   2.950  11.660 -0.0271  0.0762 -0.3168
24123DOPC   GL230154  10.339   2.714  11.755 -0.2187  0.2999 -0.1235
24123DOPC   C1A30155   9.960   3.230  11.950 -0.2156 -0.1535  0.0463
24123DOPC   D2A30156   9.785   3.442  12.380 -0.0499 -0.2224 -0.1778
24123DOPC   C3A30157  10.001   3.508  12.854  0.1189  0.1167  0.1506
24123DOPC   C4A30158   9.676   3.435  13.183 -0.1470  0.1052  0.0275
24123DOPC   C1B30159  10.380   2.963  12.157 -0.0655  0.5081 -0.0694
24123DOPC   D2B30160  10.218   3.177  12.591 -0.0820 -0.1236  0.2220
24123DOPC   C3B30161   9.769   3.071  12.748 -0.0670  0.1147 -0.1202
24123DOPC   C4B30162   9.356   3.328  12.774  0.1421 -0.0581  0.1542
24124DOPC   NC330163  14.884   0.460  11.301 -0.0092 -0.2975  0.2107
24124DOPC   PO430164  14.846   0.793  11.515  0.1555  0.0566 -0.0150
24124DOPC   GL130165  14.984   0.751  11.933  0.0483 -0.1754  0.0491
24124DOPC   GL230166  14.667   0.806  11.869 -0.3816  0.0127  0.2121
24124DOPC   C1A30167  14.974   0.900  12.332  0.0278  0.0284  0.0759
24124DOPC   D2A30168  14.895   0.921  12.797 -0.1549 -0.1822 -0.0734
24124DOPC   C3A30169  14.771   0.707  13.230  0.0923 -0.0167  0.0557
24124DOPC   C4A30170  14.674   0.483  13.610 -0.0427  0.1700 -0.2473
24124DOPC   C1B30171  14.481   0.747  12.293 -0.0024  0.0771  0.0772
24124DOPC   D2B30172  14.408   0.887  12.790 -0.1178 -0.0449  0.0581
24124DOPC   C3B30173  14.539   1.123  13.170  0.0717  0.2228  0.0881
24124DOPC   C4B30174  14.681   1.093  13.671  0.1343 -0.0454  0.0245
24125DOPC   NC330175  15.582   7.736  11.103 -0.1122  0.1551 -0.3981
24125DOPC   PO430176  15.953   7.767  11.283 -0.0027 -0.0707 -0.1685
24125DOPC   GL130177  16.084   7.956  11.644 -0.1515  0.2051 -0.0598
24125DOPC   GL230178  15.828   7.826  11.732 -0.0622 -0.2803 -0.0652
24125DOPC   C1A30179  16.081   8.336  11.826  0.1027  0.0837  0.0575
24125DOPC   D2A30180  15.890   8.676  12.227 -0.0774 -0.4158  0.2149
24125DOPC   C3A30181  15.967   8.665  12.660 -0.1242 -0.0201 -0.4046
24125DOPC   C4A30182  15.893   8.461  13.118  0.2366 -0.1171 -0.2383
24125DOPC   C1B30183  15.698   7.651  12.148  0.3696 -0.1031 -0.0664
24125DOPC   D2B30184  15.496   7.777  12.574 -0.2918  0.2956  0.0376
24125DOPC   C3B30185  15.760   7.457  12.854 -0.0977 -0.0499 -0.2159
24125DOPC   C4B30186  16.157   7.370  13.050  0.3147 -0.0862  0.1113
24126DOPC   NC330187  28.309   5.468  10.307  0.0570 -0.3354  0.1404
24126DOPC   PO430188  28.402   5.106  10.445  0.0639  0.0431 -0.0633
24126DOPC   GL130189  28.353   5.083  10.841  0.1345  0.2206 -0.1320
24126DOPC   GL230190  28.493   5.353  10.858 -0.0457 -0.0466 -0.2201
24126DOPC   C1A30191  28.541   5.076  11.266 -0.0359 -0.0829 -0.0863
24126DOPC   D2A30192  28.279   5.219  11.686  0.0713 -0.1148 -0.1295
24126DOPC   C3A30193  28.422   5.069  12.101 -0.0879  0.2667  0.0283
24126DOPC   C4A30194  28.741   4.908  12.508  0.0877 -0.1514  0.0339
24126DOPC   C1B30195  28.404   5.607  11.308  0.0203  0.1440 -0.2600
24126DOPC   D2B30196  27.987   5.589  11.651  0.0298  0.1408  0.0579
24126DOPC   C3B30197  27.572   5.642  11.884  0.0017  0.2592  0.2222
24126DOPC   C4B30198  27.278   5.745  12.224 -0.2891 -0.1237 -0.1751
24127DOPC   NC330199  17.623   1.240  11.556 -0.2323 -0.2293 -0.2478
24127DOPC   PO430200  17.333   1.232  11.258 -0.0604 -0.2165 -0.1552
24127DOPC   GL130201  17.141   1.161  11.662  0.1163  0.2094  0.1063
24127DOPC   GL230202  17.172   1.472  11.652 -0.1692 -0.0693  0.1368
24127DOPC   C1A30203  17.316   0.986  12.042 -0.2074  0.0446  0.1996
24127DOPC   D2A30204  17.422   0.638  12.368 -0.1431  0.2369  0.2050
24127DOPC   C3A30205  17.768   0.410  12.589  0.0701 -0.1512 -0.1979
24127DOPC   C4A30206  18.116   0.185  12.850  0.2608 -0.1899  0.1980
24127DOPC   C1B30207  16.867   1.723  11.797 -0.0578  0.2900 -0.1126
24127DOPC   D2B30208  16.470   1.925  12.063  0.1944 -0.1680 -0.1206
24127DOPC   C3B30209  16.380   1.741  12.488 -0.2019  0.4327  0.1437
24127DOPC   C4B30210  16.305   1.593  12.952 -0.1830  0.2246 -0.1475
24128DOPC   NC330211  30.205   5.092  10.503 -0.1135 -0.0167  0.0219
24128DOPC   PO430212  30.570   4.937  10.473 -0.0820 -0.0109 -0.3148
24128DOPC   GL130213  30.835   5.170  10.694  0.0092 -0.0457  0.0832
24128DOPC   GL230214  30.622   5.380  10.895 -0.2818 -0.2188  0.1955
24128DOPC   C1A30215  30.812   4.991  11.090 -0.3152 -0.0213 -0.0950
24128DOPC   D2A30216  30.906   4.717  11.442  0.1339  0.0796  0.0700
24128DOPC   C3A30217  30.942   4.531  11.954  0.0599 -0.2848 -0.0745
24128DOPC   C4A30218  31.247   4.351  12.314  0.3667 -0.2376 -0.2777
24128DOPC   C1B30219  30.689   5.436  11.294 -0.0187 -0.3742 -0.0428
24128DOPC   D2B30220  30.608   5.475  11.761  0.0241 -0.0065 -0.0778
24128DOPC   C3B30221  30.578   5.685  12.211  0.2110 -0.0720  0.0124
24128DOPC   C4B30222  30.252   5.702  12.545 -0.1673  0.1609 -0.0278
24129DOPC   NC330223  20.086   7.505  11.263  0.0920  0.2112  0.0210
24129DOPC   PO430224  20.431   7.665  11.382  0.1823 -0.2729  0.0283
24129DOPC   GL130225  20.371   7.711  11.843 -0.0381  0.1741  0.0629
24129DOPC   GL230226  20.557   7.900  11.830 -0.4152 -0.1459 -0.2124
24129DOPC   C1A30227  20.222   7.718  12.300  0.0576  0.2111  0.0076
24129DOPC   D2A30228  19.866   7.518  12.518  0.0796 -0.3734  0.2450
24129DOPC   C3A30229  19.885   7.540  12.941 -0.1618  0.0166 -0.2652
24129DOPC   C4A30230  19.854   7.583  13.478 -0.0675 -0.3673  0.0075
24129DOPC   C1B30231  20.612   8.000  12.238 -0.2839 -0.0292  0.0737
24129DOPC   D2B30232  20.429   7.897  12.738  0.1708 -0.0233 -0.1109
24129DOPC   C3B30233  20.678   8.135  13.044 -0.1272  0.2115  0.1138
24129DOPC   C4B30234  21.035   8.504  13.237 -0.0950  0.0700  0.2980
24130DOPC   NC330235  13.652   0.441  10.829 -0.0565  0.1187  0.0188
24130DOPC   PO430236  13.958   0.438  10.988  0.1063  0.4316 -0.1392
24130DOPC   GL130237  13.936   0.526  11.379 -0.0646  0.0036 -0.0249
24130DOPC   GL230238  13.923   0.218  11.469 -0.1904 -0.0724  0.2908
24130DOPC   C1A30239  13.697   0.560  11.801 -0.0155 -0.1750 -0.1228
24130DOPC   D2A30240  13.535   0.432  12.211  0.1131  0.1543 -0.1738
24130DOPC   C3A30241  13.714   0.376  12.561  0.1717 -0.1413  0.3689
24130DOPC   C4A30242  13.886   0.566  13.009  0.1949 -0.0709  0.1156
24130DOPC   C1B30243  14.113  -0.108  11.691  0.2665 -0.1549 -0.1491
24130DOPC   D2B30244  14.095  -0.447  12.141 -0.0130 -0.3114  0.3659
24130DOPC   C3B30245  14.124  -0.572  12.548 -0.1008  0.3941  0.1039
24130DOPC   C4B30246  13.766  -0.536  12.894 -0.3536  0.0671 -0.0836
24131DOPC   NC330247  20.556   4.229  11.340  0.0148  0.0910  0.1861
24131DOPC   PO430248  20.482   4.584  11.425 -0.2944 -0.1730  0.1537
24131DOPC   GL130249  20.570   4.542  11.879  0.0486  0.0071  0.0004
24131DOPC   GL230250  20.376   4.278  11.777 -0.4083  0.3110 -0.0116
24131DOPC   C1A30251  20.478   4.682  12.308 -0.2360  0.1497 -0.3171
24131DOPC   D2A30252  20.325   4.895  12.718 -0.0674  0.0998  0.0418
24131DOPC   C3A30253  20.400   4.645  13.083 -0.1151  0.0427 -0.0603
24131DOPC   C4A30254  20.198   4.435  13.512 -0.1706 -0.1646 -0.1408
24131DOPC   C1B30255  20.450   3.861  11.983 -0.2765 -0.0360 -0.1425
24131DOPC   D2B30256  20.410   3.358  12.089 -0.0064 -0.0929 -0.2158
24131DOPC   C3B30257  20.391   3.355  12.559  0.1742  0.0682  0.0579
24131DOPC   C4B30258  20.390   3.435  13.030 -0.0464 -0.0220  0.0184
24132DOPC   NC330259   4.268   4.883  10.218 -0.0616  0.3197  0.0042
24132DOPC   PO430260   4.151   4.813  10.624  0.0695  0.0974  0.1116
24132DOPC   GL130261   4.188   4.980  10.928  0.1046 -0.1480 -0.0260
24132DOPC   GL230262   4.006   5.131  11.011  0.0800 -0.1299  0.0147
24132DOPC   C1A30263   4.238   4.866  11.332  0.0166 -0.0891 -0.1365
24132DOPC   D2A30264   4.094   4.503  11.568 -0.1243 -0.2639  0.2019
24132DOPC   C3A30265   4.183   4.351  11.927  0.1676 -0.0171 -0.0270
24132DOPC   C4A30266   4.266   4.345  12.392 -0.2209  0.2265 -0.0594
24132DOPC   C1B30267   3.767   5.189  11.395  0.1604 -0.0983  0.0740
24132DOPC   D2B30268   3.458   5.057  11.811  0.0725  0.0329  0.0642
24132DOPC   C3B30269   3.697   5.180  12.227  0.0204 -0.0421  0.1157
24132DOPC   C4B30270   3.851   5.445  12.668 -0.1424 -0.1941  0.0363
24133DOPC   NC330271  10.366   1.812  10.790  0.0714  0.3175  0.3249
24133DOPC   PO430272  10.034   2.009  10.857 -0.1975  0.1847  0.1331
24133DOPC   GL130273   9.687   1.946  11.235 -0.1895 -0.0629 -0.2435
24133DOPC   GL230274   9.794   1.699  11.248 -0.2729  0.0317  0.0471
24133DOPC   C1A30275   9.511   2.093  11.634  0.1466 -0.0165  0.1018
24133DOPC   D2A30276   9.176   2.239  11.976 -0.0150 -0.2543  0.0758
24133DOPC   C3A30277   9.295   2.686  12.119 -0.1168 -0.0699  0.1242
24133DOPC   C4A30278   9.651   2.924  12.316  0.0881  0.2264  0.1512
24133DOPC   C1B30279   9.950   1.808  11.645 -0.0969  0.3992  0.1760
24133DOPC   D2B30280  10.300   1.787  11.994  0.0110  0.1443 -0.0538
24133DOPC   C3B30281  10.533   1.342  12.108 -0.1786  0.0807  0.0199
24133DOPC   C4B30282  10.858   1.111  11.879 -0.0522  0.0752  0.1600
24134DOPC   NC330283  15.846   1.131  11.002  0.1475  0.1483  0.1130
24134DOPC   PO430284  15.827   1.478  11.141  0.1443 -0.0323 -0.4809
24134DOPC   GL130285  15.833   1.327  11.513 -0.3804  0.1757 -0.1049
24134DOPC   GL230286  15.566   1.145  11.521 -0.1178 -0.3270  0.2354
24134DOPC   C1A30287  15.958   1.283  11.912  0.1813 -0.0722 -0.0194
24134DOPC   D2A30288  16.067   1.240  12.408 -0.3609 -0.0885  0.0566
24134DOPC   C3A30289  16.268   1.133  12.812  0.0708 -0.3161  0.0196
24134DOPC   C4A30290  16.290   0.816  13.164  0.0918 -0.0194 -0.1941
24134DOPC   C1B30291  15.489   1.195  11.984  0.0287 -0.1691  0.1377
24134DOPC   D2B30292  15.182   1.344  12.422 -0.1508  0.0439 -0.0305
24134DOPC   C3B30293  15.274   1.452  12.840  0.1679  0.1862 -0.3534
24134DOPC   C4B30294  15.422   1.684  13.247 -0.0459 -0.0128 -0.3576
24135DOPC   NC330295   6.858   2.845  10.967  0.0237 -0.2319  0.0425
24135DOPC   PO430296   7.207   2.751  10.784 -0.2772  0.3753 -0.2456
24135DOPC   GL130297   7.511   2.846  11.093  0.2745 -0.2899 -0.2525
24135DOPC   GL230298   7.396   3.107  11.025  0.0242  0.2407 -0.1610
24135DOPC   C1A30299   7.448   2.814  11.447  0.1296 -0.1711  0.3440
24135DOPC   D2A30300   7.407   2.692  11.912 -0.1857 -0.0326 -0.0758
24135DOPC   C3A30301   7.465   2.657  12.358  0.0975  0.2224  0.0242
24135DOPC   C4A30302   7.674   2.702  12.809 -0.0779 -0.1658  0.3488
24135DOPC   C1B30303   7.076   3.263  11.321  0.4217 -0.3811 -0.3601
24135DOPC   D2B30304   6.917   3.540  11.765  0.0462 -0.2085 -0.0210
24135DOPC   C3B30305   6.947   3.435  12.175  0.0063 -0.0548 -0.3449
24135DOPC   C4B30306   6.802   3.719  12.553 -0.1590 -0.2926 -0.0211
24136DOPC   NC330307   3.574   5.677  10.525 -0.1563  0.2716 -0.1561
24136DOPC   PO430308   3.173   5.638  10.455  0.2480  0.3195  0.1660
24136DOPC   GL130309   3.151   5.633  10.812  0.1336  0.0409 -0.6448
24136DOPC   GL230310   3.089   5.931  10.904 -0.2863  0.0586  0.1779
24136DOPC   C1A30311   3.050   5.636  11.241  0.0038  0.3231  0.0519
24136DOPC   D2A30312   3.017   5.495  11.720 -0.0032 -0.1173  0.1184
24136DOPC   C3A30313   3.236   5.720  12.045 -0.2955 -0.1095 -0.0840
24136DOPC   C4A30314   3.638   5.759  12.353 -0.1839 -0.4556 -0.0453
24136DOPC   C1B30315   2.756   6.040  11.059  0.1789 -0.0572  0.0201
24136DOPC   D2B30316   2.282   6.043  11.182 -0.1744 -0.2198 -0.0587
24136DOPC   C3B30317   2.029   6.330  11.384  0.0455  0.0907 -0.1171
24136DOPC   C4B30318   1.802   6.788  11.453  0.2023 -0.0264 -0.1375
24137DOPC   NC330319  28.235   6.784  11.089 -0.5132  0.3783 -0.0633
24137DOPC   PO430320  28.587   6.674  10.893  0.0508  0.2593 -0.0962
24137DOPC   GL130321  28.881   6.778  11.133 -0.0602 -0.1666 -0.1463
24137DOPC   GL230322  28.800   6.539  11.288 -0.0564  0.3021 -0.1189
24137DOPC   C1A30323  29.055   7.053  11.406 -0.3783  0.1347 -0.0270
24137DOPC   D2A30324  29.191   7.535  11.630  0.0398 -0.3624 -0.0597
24137DOPC   C3A30325  28.905   7.895  11.825  0.0311 -0.0429  0.1191
24137DOPC   C4A30326  28.604   8.118  12.116  0.2189 -0.0191 -0.1191
24137DOPC   C1B30327  28.994   6.576  11.667 -0.0350  0.2628  0.0085
24137DOPC   D2B30328  28.996   6.456  12.161  0.0203 -0.2667 -0.1946
24137DOPC   C3B30329  29.240   6.643  12.477 -0.3224 -0.0496  0.0601
24137DOPC   C4B30330  29.583   6.890  12.610  0.3634  0.3183  0.2352
24138DOPC   NC330331   2.163   5.488  10.256 -0.0851  0.0815  0.3183
24138DOPC   PO430332   1.836   5.483  10.488 -0.2529  0.0527 -0.1104
24138DOPC   GL130333   1.900   5.658  10.907  0.3008  0.2205 -0.1256
24138DOPC   GL230334   2.216   5.622  10.859  0.4096  0.1051  0.0419
24138DOPC   C1A30335   1.720   5.434  11.220 -0.0538  0.1602  0.0384
24138DOPC   D2A30336   1.752   5.320  11.651 -0.0472 -0.1983 -0.0982
24138DOPC   C3A30337   1.874   5.223  12.109 -0.1855 -0.1709 -0.0304
24138DOPC   C4A30338   2.034   5.176  12.550  0.1430  0.0338  0.2727
24138DOPC   C1B30339   2.379   5.507  11.277 -0.0695 -0.1177 -0.0566
24138DOPC   D2B30340   2.295   5.253  11.735 -0.0968 -0.1501  0.2110
24138DOPC   C3B30341   2.438   5.187  12.135  0.0027 -0.1059 -0.0687
24138DOPC   C4B30342   2.642   5.108  12.580  0.0583 -0.0717 -0.0436
24139DOPC   NC330343   4.341   3.334  10.772  0.0123  0.1170  0.0704
24139DOPC   PO430344   4.590   3.061  10.683 -0.0950 -0.2369  0.2847
24139DOPC   GL130345   4.792   2.876  10.932  0.0385 -0.2481  0.1682
24139DOPC   GL230346   4.779   2.624  10.879 -0.0208  0.2063 -0.1530
24139DOPC   C1A30347   4.763   3.012  11.326 -0.1533 -0.1502  0.1677
24139DOPC   D2A30348   4.613   2.987  11.772  0.0988  0.3973  0.1171
24139DOPC   C3A30349   4.307   2.970  12.118  0.0138 -0.1739 -0.0204
24139DOPC   C4A30350   4.005   3.059  12.479  0.1820 -0.0355  0.1310
24139DOPC   C1B30351   4.902   2.361  11.199  0.3707  0.0548  0.4944
24139DOPC   D2B30352   4.989   2.206  11.660  0.2391 -0.1863 -0.1202
24139DOPC   C3B30353   5.010   2.212  12.134  0.2391 -0.2461 -0.1300
24139DOPC   C4B30354   5.095   2.175  12.570 -0.0611  0.1046 -0.0269
24140DOPC   NC330355   2.582   2.320  10.264 -0.1236 -0.1196  0.1441
24140DOPC   PO430356   2.489   1.991  10.101  0.0142 -0.4676  0.0555
24140DOPC   GL130357   2.368   1.864  10.453  0.3873  0.1544 -0.1664
24140DOPC   GL230358   2.249   2.153  10.497  0.1567  0.1249  0.0155
24140DOPC   C1A30359   2.027   1.668  10.580 -0.0360  0.0539  0.4035
24140DOPC   D2A30360   1.675   1.400  10.809  0.0823 -0.0155 -0.5414
24140DOPC   C3A30361   1.236   1.389  11.023 -0.1111 -0.1764 -0.0214
24140DOPC   C4A30362   0.957   1.450  11.384  0.0754 -0.0119  0.0602
24140DOPC   C1B30363   2.405   2.073  10.940 -0.0737 -0.2661 -0.1494
24140DOPC   D2B30364   2.342   2.240  11.441 -0.2001  0.1216 -0.0129
24140DOPC   C3B30365   2.141   2.145  11.843 -0.0284  0.1115 -0.4337
24140DOPC   C4B30366   2.065   2.017  12.389 -0.2349 -0.0369 -0.1698
24141DOPC   NC330367  19.617   3.963  11.243  0.1008  0.0220  0.2235
24141DOPC   PO430368  19.720   3.633  11.465  0.2111 -0.0054  0.2519
24141DOPC   GL130369  19.834   3.578  11.891  0.0245 -0.1130 -0.1510
24141DOPC   GL230370  19.577   3.665  11.947  0.1290 -0.1957 -0.1411
24141DOPC   C1A30371  20.001   3.531  12.299 -0.1160 -0.0580  0.0383
24141DOPC   D2A30372  19.863   3.618  12.744 -0.0178 -0.1855  0.1511
24141DOPC   C3A30373  19.956   3.690  13.239 -0.0715 -0.0623  0.1800
24141DOPC   C4A30374  20.054   3.959  13.682  0.5939  0.2503 -0.0457
24141DOPC   C1B30375  19.482   3.646  12.371 -0.1874 -0.2179  0.0381
24141DOPC   D2B30376  19.181   3.989  12.702  0.2433 -0.1121 -0.0599
24141DOPC   C3B30377  19.368   3.783  13.125  0.1360 -0.3074  0.0410
24141DOPC   C4B30378  19.525   3.695  13.567  0.2510  0.0078  0.2542
24142DOPC   NC330379  17.557   5.264  11.265  0.1081 -0.0550  0.1889
24142DOPC   PO430380  17.333   5.032  11.515 -0.0604  0.0886 -0.0078
24142DOPC   GL130381  17.222   5.101  11.809 -0.2473 -0.1006  0.0856
24142DOPC   GL230382  17.055   5.267  11.939 -0.1522  0.1393 -0.1897
24142DOPC   C1A30383  17.400   5.177  12.222  0.0412  0.1167  0.0141
24142DOPC   D2A30384  17.542   5.090  12.692 -0.0601 -0.0028 -0.0740
24142DOPC   C3A30385  17.849   5.181  13.042  0.0533 -0.1402 -0.2316
24142DOPC   C4A30386  17.927   5.009  13.503 -0.2745 -0.2803  0.0026
24142DOPC   C1B30387  16.964   5.109  12.403  0.1240  0.2651 -0.0366
24142DOPC   D2B30388  16.757   5.027  12.796  0.0935 -0.1797  0.0810
24142DOPC   C3B30389  17.061   4.942  13.162  0.1475  0.0321 -0.1084
24142DOPC   C4B30390  17.523   4.823  13.108  0.1815  0.1950  0.1864
24143DOPC   NC330391   3.529   3.315  10.337 -0.1673 -0.0346 -0.0499
24143DOPC   PO430392   3.371   3.658  10.395 -0.0903  0.0711 -0.2410
24143DOPC   GL130393   3.332   3.739  10.831 -0.2206 -0.2558  0.0535
24143DOPC   GL230394   3.561   3.811  10.940 -0.2449 -0.6587 -0.0445
24143DOPC   C1A30395   3.385   3.381  11.097 -0.1039 -0.0888  0.0387
24143DOPC   D2A30396   3.359   2.906  11.235  0.1104  0.0655 -0.0749
24143DOPC   C3A30397   3.611   2.832  11.620  0.1774 -0.0711  0.0770
24143DOPC   C4A30398   3.791   2.760  12.089 -0.0841  0.2817 -0.1388
24143DOPC   C1B30399   3.426   3.853  11.443 -0.0406  0.0887 -0.0809
24143DOPC   D2B30400   3.289   3.867  11.895 -0.0980  0.0205 -0.0657
24143DOPC   C3B30401   3.420   4.288  12.029  0.3252 -0.1041 -0.1231
24143DOPC   C4B30402   3.368   4.734  12.208  0.0785 -0.2378 -0.0359
24144DOPC   NC330403  14.239   5.427  11.174 -0.0007  0.1717 -0.0627
24144DOPC   PO430404  14.255   5.049  11.297  0.0183  0.0899  0.0039
24144DOPC   GL130405  14.279   5.223  11.675  0.2870  0.1737  0.1973
24144DOPC   GL230406  14.029   5.265  11.633  0.1094  0.0126  0.3923
24144DOPC   C1A30407  14.422   4.914  11.998 -0.0613  0.0669 -0.0213
24144DOPC   D2A30408  14.416   4.800  12.529  0.1053  0.0218 -0.2264
24144DOPC   C3A30409  14.191   4.843  12.922  0.0278 -0.1100  0.3196
24144DOPC   C4A30410  14.009   5.130  13.194  0.2211  0.0257 -0.0055
24144DOPC   C1B30411  13.868   5.373  11.974 -0.0576 -0.0976  0.0177
24144DOPC   D2B30412  13.616   5.350  12.352 -0.0445  0.0109 -0.2039
24144DOPC   C3B30413  13.413   5.482  12.803  0.2121 -0.0841 -0.1696
24144DOPC   C4B30414  12.968   5.555  12.993 -0.1492 -0.3479  0.0347
24145DOPC   NC330415  26.374   5.959  10.629  0.1740  0.1546 -0.1200
24145DOPC   PO430416  26.278   6.122  11.013  0.0219  0.3966 -0.0647
24145DOPC   GL130417  26.330   6.192  11.429  0.1489  0.1376  0.0737
24145DOPC   GL230418  26.281   6.534  11.347  0.0026 -0.1503  0.4812
24145DOPC   C1A30419  26.299   6.025  11.818  0.0054 -0.0153 -0.0424
24145DOPC   D2A30420  26.520   6.070  12.305  0.0725  0.2759  0.0274
24145DOPC   C3A30421  26.409   5.651  12.578 -0.1006 -0.0353  0.0071
24145DOPC   C4A30422  26.180   5.364  12.884 -0.0948  0.0057  0.3820
24145DOPC   C1B30423  26.185   6.511  11.754  0.2297 -0.2312  0.2417
24145DOPC   D2B30424  26.194   6.499  12.253  0.4407  0.1648  0.1111
24145DOPC   C3B30425  25.979   6.460  12.704 -0.1319  0.2417  0.3948
24145DOPC   C4B30426  25.783   6.281  13.106 -0.0774  0.1794 -0.2044
24146DOPC   NC330427  26.729   2.914  10.718  0.3607 -0.0524  0.0537
24146DOPC   PO430428  26.998   3.236  10.784  0.1886  0.0670  0.0433
24146DOPC   GL130429  27.278   3.033  11.124 -0.1474 -0.1690 -0.3305
24146DOPC   GL230430  27.311   3.333  11.133  0.1093 -0.0424  0.3308
24146DOPC   C1A30431  27.154   2.892  11.481 -0.2506 -0.0838  0.0571
24146DOPC   D2A30432  27.144   2.714  11.917  0.0048  0.0516  0.0519
24146DOPC   C3A30433  27.031   2.709  12.328 -0.1736 -0.1404 -0.0490
24146DOPC   C4A30434  26.892   2.806  12.781  0.1976  0.0376 -0.0915
24146DOPC   C1B30435  27.232   3.352  11.518  0.1178 -0.0872  0.0667
24146DOPC   D2B30436  26.934   3.207  11.832 -0.0452 -0.1591 -0.2768
24146DOPC   C3B30437  26.683   2.881  12.073  0.0839  0.2966 -0.0144
24146DOPC   C4B30438  26.230   2.740  12.078 -0.0058  0.0751 -0.0483
24147DOPC   NC330439   5.235   4.068  11.231  0.3198 -0.1772 -0.1994
24147DOPC   PO430440   5.464   4.238  10.990 -0.1196 -0.1620  0.0640
24147DOPC   GL130441   5.829   4.188  11.109  0.0870  0.0335  0.0304
24147DOPC   GL230442   5.799   3.887  11.107  0.0753 -0.1744  0.0319
24147DOPC   C1A30443   5.894   4.372  11.530  0.0696  0.0273  0.1656
24147DOPC   D2A30444   5.932   4.418  12.075 -0.1440 -0.0493  0.0617
24147DOPC   C3A30445   5.705   4.449  12.466  0.0831 -0.0080  0.2741
24147DOPC   C4A30446   5.490   4.428  12.912 -0.2480 -0.1413  0.1197
24147DOPC   C1B30447   5.536   3.769  11.440  0.1228  0.4878  0.1558
24147DOPC   D2B30448   5.151   3.760  11.710 -0.3690 -0.1098  0.0567
24147DOPC   C3B30449   5.112   3.727  12.134  0.0158  0.0885 -0.6515
24147DOPC   C4B30450   4.962   3.763  12.584 -0.3539  0.0126 -0.1761
24148DOPC   NC330451   5.711   3.862  10.675  0.0668  0.1607  0.1255
24148DOPC   PO430452   5.824   3.530  10.820 -0.0317  0.2712  0.3018
24148DOPC   GL130453   5.772   3.425  11.148  0.0884  0.0592 -0.0792
24148DOPC   GL230454   5.528   3.246  11.079  0.1494 -0.0742  0.0202
24148DOPC   C1A30455   5.919   3.308  11.573 -0.4964  0.1375  0.1352
24148DOPC   D2A30456   6.019   3.199  12.094 -0.0898 -0.1032 -0.1270
24148DOPC   C3A30457   6.205   2.970  12.415 -0.1151  0.0007 -0.1516
24148DOPC   C4A30458   6.535   2.858  12.745  0.0968 -0.0204 -0.2149
24148DOPC   C1B30459   5.417   3.285  11.526 -0.3073  0.1590  0.1076
24148DOPC   D2B30460   5.257   3.207  12.031  0.1600 -0.0462  0.0955
24148DOPC   C3B30461   5.088   3.269  12.438  0.1195  0.2375  0.1708
24148DOPC   C4B30462   4.901   3.308  12.884 -0.1073 -0.1888 -0.1793
24149DOPC   NC330463  17.786   6.405  11.154  0.0941 -0.1429  0.1859
24149DOPC   PO430464  17.896   6.032  11.220 -0.2147  0.3799 -0.3194
24149DOPC   GL130465  18.013   6.227  11.601 -0.1825 -0.0704 -0.1437
24149DOPC   GL230466  18.020   6.482  11.538  0.0572  0.2543  0.5398
24149DOPC   C1A30467  17.805   6.212  12.000 -0.2408 -0.2427  0.0335
24149DOPC   D2A30468  17.718   6.176  12.486 -0.1131 -0.3005  0.0508
24149DOPC   C3A30469  18.064   6.079  12.782  0.1009 -0.3561 -0.0993
24149DOPC   C4A30470  18.084   6.029  13.257  0.1283  0.0008 -0.0320
24149DOPC   C1B30471  17.967   6.725  11.893 -0.1123  0.0776 -0.0018
24149DOPC   D2B30472  18.056   7.135  12.221  0.1621 -0.0003 -0.0812
24149DOPC   C3B30473  18.498   7.212  12.124  0.0734  0.1333 -0.2063
24149DOPC   C4B30474  18.843   6.924  12.345 -0.2690  0.1000 -0.0380
24150DOPC   NC330475  11.699   7.663  11.303  0.0318  0.2372 -0.0934
24150DOPC   PO430476  11.820   7.367  11.153  0.2402 -0.2000 -0.1893
24150DOPC   GL130477  11.746   7.283  11.593 -0.2070  0.2786  0.2788
24150DOPC   GL230478  12.097   7.229  11.534 -0.0469 -0.2116 -0.0756
24150DOPC   C1A30479  11.497   7.296  11.903  0.0998  0.0310  0.5385
24150DOPC   D2A30480  11.164   7.438  12.306  0.2065 -0.1341 -0.1365
24150DOPC   C3A30481  10.736   7.289  12.451 -0.3033 -0.0135 -0.1761
24150DOPC   C4A30482  10.394   7.016  12.646 -0.1892  0.3458 -0.1337
24150DOPC   C1B30483  12.180   6.965  11.871  0.0090  0.1901  0.2078
24150DOPC   D2B30484  12.056   7.194  12.255  0.0685  0.0898  0.3085
24150DOPC   C3B30485  12.383   7.458  12.554 -0.0055 -0.1198 -0.0575
24150DOPC   C4B30486  12.587   7.410  13.025 -0.0960 -0.0618  0.0249
24151DOPC   NC330487   2.648   3.064  10.063  0.2783  0.1564 -0.3312
24151DOPC   PO430488   2.840   2.703  10.136  0.3132  0.1068 -0.1378
24151DOPC   GL130489   2.759   2.632  10.559  0.2071  0.0964  0.4264
24151DOPC   GL230490   3.072   2.673  10.618 -0.0771 -0.1344  0.1204
24151DOPC   C1A30491   2.374   2.537  10.755 -0.4250  0.1957  0.0304
24151DOPC   D2A30492   2.013   2.432  11.051  0.0159  0.0849  0.0046
24151DOPC   C3A30493   1.877   2.119  11.331  0.4172  0.1482 -0.0109
24151DOPC   C4A30494   1.711   1.935  11.766  0.0112  0.2520 -0.3492
24151DOPC   C1B30495   3.279   2.489  10.936  0.0033  0.3520 -0.1690
24151DOPC   D2B30496   3.795   2.545  11.046 -0.1446 -0.0026 -0.2771
24151DOPC   C3B30497   3.960   2.448  11.452 -0.0283  0.2019  0.1763
24151DOPC   C4B30498   4.181   2.305  11.911  0.0753  0.0472 -0.2389
24152DOPC   NC330499  20.263   1.078  11.192 -0.1658  0.0053  0.0894
24152DOPC   PO430500  20.185   0.689  11.334 -0.0983  0.0774 -0.1232
24152DOPC   GL130501  20.269   0.552  11.770 -0.0291  0.2966 -0.0145
24152DOPC   GL230502  20.103   0.825  11.894  0.3208  0.0485 -0.2982
24152DOPC   C1A30503  20.072   0.261  12.074  0.6432 -0.1030 -0.4352
24152DOPC   D2A30504  19.874   0.191  12.487  0.1154 -0.1506 -0.0155
24152DOPC   C3A30505  19.729   0.603  12.748 -0.1080 -0.0488 -0.1517
24152DOPC   C4A30506  19.390   0.817  13.019  0.0850 -0.0573 -0.2525
24152DOPC   C1B30507  20.044   0.766  12.369 -0.0850 -0.0021  0.2128
24152DOPC   D2B30508  20.176   0.875  12.807  0.2700 -0.0946  0.1665
24152DOPC   C3B30509  20.000   0.765  13.209  0.2372 -0.1355 -0.2010
24152DOPC   C4B30510  19.710   0.751  13.559 -0.1722 -0.0881  0.2175
24153DOPC   NC330511  12.214   7.045  11.116  0.1402 -0.1452 -0.4536
24153DOPC   PO430512  12.490   6.796  11.047 -0.0903  0.1719 -0.0460
24153DOPC   GL130513  12.583   6.730  11.519  0.1113 -0.2536  0.2687
24153DOPC   GL230514  12.474   6.985  11.471 -0.1085 -0.0458  0.0583
24153DOPC   C1A30515  12.409   6.510  11.793 -0.1284  0.1798 -0.0616
24153DOPC   D2A30516  12.712   6.443  12.201 -0.0693 -0.2868 -0.2995
24153DOPC   C3A30517  12.917   6.217  12.534 -0.1272  0.1259  0.0266
24153DOPC   C4A30518  12.896   6.069  12.974 -0.1437  0.0754  0.0461
24153DOPC   C1B30519  12.526   7.362  11.751  0.0393 -0.0199 -0.0390
24153DOPC   D2B30520  12.730   7.395  12.205  0.0627  0.1465 -0.1105
24153DOPC   C3B30521  12.889   7.304  12.572  0.0062  0.0430 -0.0308
24153DOPC   C4B30522  12.899   7.023  12.996  0.0476  0.2496 -0.0178
24154DOPC   NC330523  31.028   4.458   9.907  0.0300 -0.0243  0.0283
24154DOPC   PO430524  31.073   4.659  10.241  0.1551  0.0249  0.1500
24154DOPC   GL130525  30.958   4.641  10.634  0.0715  0.0084  0.1483
24154DOPC   GL230526  31.174   4.791  10.664 -0.0095  0.1015  0.1252
24154DOPC   C1A30527  30.921   4.459  11.026  0.2247 -0.2347  0.0335
24154DOPC   D2A30528  30.886   4.159  11.415  0.0295  0.2405 -0.4574
24154DOPC   C3A30529  31.139   4.086  11.789  0.0784  0.1456 -0.1168
24154DOPC   C4A30530  31.150   3.819  12.164 -0.0978 -0.0383  0.0013
24154DOPC   C1B30531  31.372   4.869  11.031  0.1585 -0.2343  0.1076
24154DOPC   D2B30532  31.476   4.937  11.521  0.0900  0.0280 -0.1758
24154DOPC   C3B30533  31.362   5.217  11.911  0.1141 -0.6058 -0.2638
24154DOPC   C4B30534  31.555   5.309  12.344 -0.0425  0.1856  0.0151
24155DOPC   NC330535  11.314   4.933  11.181  0.0628  0.2207  0.1040
24155DOPC   PO430536  11.737   4.882  11.289 -0.0400 -0.0039  0.1734
24155DOPC   GL130537  11.594   4.844  11.754 -0.0945  0.0835  0.2373
24155DOPC   GL230538  11.842   4.687  11.694 -0.1170  0.0619  0.0741
24155DOPC   C1A30539  11.568   4.964  12.173  0.0231 -0.0768  0.0281
24155DOPC   D2A30540  11.344   5.047  12.588  0.1568 -0.1798 -0.0824
24155DOPC   C3A30541  11.113   4.789  12.927 -0.0501 -0.0210 -0.2576
24155DOPC   C4A30542  10.740   4.625  13.201 -0.1434 -0.2485 -0.1351
24155DOPC   C1B30543  11.763   4.287  11.851  0.0398  0.1628  0.3354
24155DOPC   D2B30544  11.782   4.072  12.272 -0.2176 -0.1421  0.2071
24155DOPC   C3B30545  11.626   4.160  12.753  0.1862  0.1793 -0.0138
24155DOPC   C4B30546  11.425   4.440  13.102 -0.0263 -0.1899 -0.1758
24156DOPC   NC330547   2.680   6.947  10.769  0.1650  0.1585 -0.0949
24156DOPC   PO430548   2.767   6.549  10.648 -0.0962  0.0865  0.0314
24156DOPC   GL130549   3.146   6.428  10.791  0.0840  0.2263 -0.3235
24156DOPC   GL230550   3.209   6.701  10.878  0.0544  0.5384  0.2595
24156DOPC   C1A30551   3.041   6.396  11.250  0.2070 -0.2286  0.1848
24156DOPC   D2A30552   3.040   6.569  11.674 -0.1505 -0.0856 -0.2242
24156DOPC   C3A30553   3.105   6.404  12.075  0.0396 -0.0902  0.3002
24156DOPC   C4A30554   3.322   6.122  12.457 -0.0895 -0.0883  0.0270
24156DOPC   C1B30555   2.955   6.858  11.232  0.3983  0.0681  0.1293
24156DOPC   D2B30556   2.737   7.028  11.675  0.0248  0.1382  0.1809
24156DOPC   C3B30557   2.750   6.788  12.076 -0.3675  0.2183  0.0994
24156DOPC   C4B30558   2.786   6.527  12.510 -0.3628 -0.1572  0.4360
24157DOPC   NC330559  18.776   2.327  11.419 -0.1405 -0.1150 -0.0238
24157DOPC   PO430560  18.416   2.403  11.285  0.3265 -0.1465  0.0498
24157DOPC   GL130561  18.320   2.653  11.753 -0.0768 -0.1193 -0.1898
24157DOPC   GL230562  18.570   2.797  11.653  0.0565  0.0833 -0.2075
24157DOPC   C1A30563  18.365   2.546  12.173  0.1309  0.2050  0.2880
24157DOPC   D2A30564  18.363   2.276  12.645 -0.1519  0.0729  0.0578
24157DOPC   C3A30565  18.035   2.085  12.902  0.1982 -0.0243  0.0381
24157DOPC   C4A30566  17.628   1.865  13.156  0.0242 -0.0596  0.1095
24157DOPC   C1B30567  18.833   2.557  11.870  0.0575  0.1745 -0.1736
24157DOPC   D2B30568  18.937   2.062  11.933  0.2961  0.0593  0.0309
24157DOPC   C3B30569  19.039   1.817  12.339 -0.0979 -0.0350  0.0061
24157DOPC   C4B30570  19.178   1.660  12.761  0.4305  0.0482 -0.0246
24158DOPC   NC330571  23.396   3.577  11.484  0.0904  0.1865 -0.1690
24158DOPC   PO430572  23.733   3.431  11.320 -0.2497 -0.1295  0.2069
24158DOPC   GL130573  23.871   3.022  11.445  0.2721 -0.1266 -0.1429
24158DOPC   GL230574  24.140   3.141  11.568 -0.0727 -0.2338 -0.0001
24158DOPC   C1A30575  23.783   2.883  11.820  0.1829  0.1936 -0.0173
24158DOPC   D2A30576  23.676   2.926  12.256 -0.1419 -0.2199 -0.3014
24158DOPC   C3A30577  23.572   2.858  12.733 -0.1773 -0.3548 -0.2943
24158DOPC   C4A30578  23.484   2.990  13.179 -0.0648  0.1791  0.1512
24158DOPC   C1B30579  24.304   2.892  11.843  0.4051  0.0214 -0.1585
24158DOPC   D2B30580  24.164   2.467  12.021  0.0200 -0.1128  0.4639
24158DOPC   C3B30581  24.050   2.651  12.433 -0.0990 -0.1471 -0.0515
24158DOPC   C4B30582  24.079   2.786  12.938 -0.2542 -0.1274 -0.1163
24159DOPC   NC330583   8.267   4.576  10.796 -0.0460  0.2321  0.2961
24159DOPC   PO430584   8.161   4.364  11.062  0.0354 -0.1122 -0.0856
24159DOPC   GL130585   8.020   4.426  11.446 -0.1253 -0.4412 -0.2353
24159DOPC   GL230586   7.961   4.179  11.393 -0.0839  0.3652  0.1259
24159DOPC   C1A30587   7.972   4.727  11.805  0.1659 -0.0968 -0.0730
24159DOPC   D2A30588   7.899   4.956  12.249 -0.1694 -0.0483 -0.0823
24159DOPC   C3A30589   7.782   4.761  12.685 -0.3499  0.0780 -0.2102
24159DOPC   C4A30590   7.567   4.458  13.044 -0.1811  0.1847 -0.1459
24159DOPC   C1B30591   7.855   3.828  11.631  0.1296  0.2236 -0.0495
24159DOPC   D2B30592   8.048   3.427  11.814  0.0660  0.0794 -0.1257
24159DOPC   C3B30593   8.176   3.783  12.108 -0.0597 -0.3033 -0.0171
24159DOPC   C4B30594   8.485   4.185  12.196  0.1117 -0.1827 -0.1514
24160DOPC   NC330595  25.696   6.810  11.260 -0.0679 -0.0197 -0.1120
24160DOPC   PO430596  25.446   7.118  11.297  0.1664  0.1515 -0.1374
24160DOPC   GL130597  25.423   7.318  11.667 -0.1481  0.3103  0.3274
24160DOPC   GL230598  25.655   7.364  11.597 -0.1647 -0.0823  0.3061
24160DOPC   C1A30599  25.377   7.553  12.021  0.0975  0.0625  0.1677
24160DOPC   D2A30600  25.177   7.762  12.433 -0.0158  0.1049  0.0943
24160DOPC   C3A30601  25.170   7.688  12.910 -0.0851  0.1011  0.0985
24160DOPC   C4A30602  24.864   7.406  13.183  0.2189  0.0378 -0.3138
24160DOPC   C1B30603  25.821   7.386  12.019 -0.0086 -0.0077  0.0536
24160DOPC   D2B30604  25.770   7.089  12.385 -0.0209  0.0490 -0.2012
24160DOPC   C3B30605  25.919   7.035  12.856  0.2681 -0.0393  0.0940
24160DOPC   C4B30606  25.772   6.826  13.291  0.0452 -0.2276  0.0121
24161DOPC   NC330607  28.963   0.147  11.268 -0.0449 -0.0127  0.1041
24161DOPC   PO430608  29.118   0.388  10.985  0.0335  0.2625  0.0314
24161DOPC   GL130609  29.658   0.449  11.190 -0.2229  0.2126 -0.2796
24161DOPC   GL230610  29.373   0.429  11.352  0.0245 -0.2018 -0.1563
24161DOPC   C1A30611  29.870   0.477  11.581  0.0646 -0.1270 -0.2283
24161DOPC   D2A30612  30.037   0.878  11.814  0.2731 -0.0608  0.2447
24161DOPC   C3A30613  30.174   1.151  12.071 -0.2187 -0.4207 -0.0989
24161DOPC   C4A30614  30.428   1.273  12.480 -0.1507  0.1151 -0.1325
24161DOPC   C1B30615  29.357   0.218  11.672  0.3640 -0.4195  0.0034
24161DOPC   D2B30616  29.302   0.006  12.153 -0.0433 -0.1104  0.2868
24161DOPC   C3B30617  28.947   0.005  12.456 -0.1141 -0.1352 -0.3121
24161DOPC   C4B30618  28.927   0.168  12.888  0.0370 -0.0335  0.0301
24162DOPC   NC330619  10.014   7.665  11.182 -0.1718  0.0666  0.0044
24162DOPC   PO430620  10.344   7.530  11.352 -0.3915  0.1041 -0.1349
24162DOPC   GL130621  10.409   7.646  11.670  0.3005 -0.0053 -0.3709
24162DOPC   GL230622  10.750   7.641  11.633  0.2472 -0.0047  0.1418
24162DOPC   C1A30623  10.202   7.811  12.052  0.1503  0.4045 -0.3122
24162DOPC   D2A30624   9.940   8.021  12.393  0.2033  0.2871  0.0822
24162DOPC   C3A30625  10.023   8.397  12.635 -0.2373 -0.0325 -0.1071
24162DOPC   C4A30626  10.195   8.803  12.910 -0.2289  0.2487 -0.3366
24162DOPC   C1B30627  10.979   7.953  11.841 -0.0303  0.0265 -0.1210
24162DOPC   D2B30628  11.103   8.274  12.204 -0.1563  0.1649 -0.1371
24162DOPC   C3B30629  11.227   8.264  12.722  0.0322 -0.1565 -0.0187
24162DOPC   C4B30630  11.153   8.580  13.111  0.3263 -0.0859  0.0394
24163DOPC   NC330631   7.139   3.587  10.922  0.3348 -0.1182  0.3305
24163DOPC   PO430632   7.538   3.699  10.945  0.1429 -0.0366  0.2603
24163DOPC   GL130633   7.526   3.716  11.370  0.1930  0.1428  0.2117
24163DOPC   GL230634   7.530   4.041  11.331  0.0138  0.0563  0.1212
24163DOPC   C1A30635   7.500   3.325  11.696 -0.3392 -0.1044  0.3018
24163DOPC   D2A30636   7.783   3.042  11.986  0.0056  0.0173  0.1673
24163DOPC   C3A30637   7.868   2.957  12.427 -0.2597  0.2445  0.0220
24163DOPC   C4A30638   8.130   2.740  12.797 -0.5495  0.0093 -0.5427
24163DOPC   C1B30639   7.623   4.281  11.708  0.0965  0.1275 -0.0813
24163DOPC   D2B30640   7.582   4.577  12.115 -0.1895  0.1931  0.0570
24163DOPC   C3B30641   7.395   4.418  12.498 -0.1983 -0.1652 -0.1215
24163DOPC   C4B30642   7.188   4.098  12.817  0.2186  0.0245  0.0948
24164DOPC   NC330643   8.592   4.580  11.214  0.0951 -0.1367 -0.0714
24164DOPC   PO430644   8.478   4.962  11.119  0.1365 -0.1983  0.1795
24164DOPC   GL130645   8.276   5.096  11.482  0.1290  0.0742  0.1820
24164DOPC   GL230646   8.425   4.922  11.624  0.1547  0.2906  0.4151
24164DOPC   C1A30647   8.478   5.394  11.695  0.4472  0.1319  0.2847
24164DOPC   D2A30648   8.507   5.790  11.969 -0.1700 -0.0787  0.1706
24164DOPC   C3A30649   8.653   5.674  12.397 -0.4029 -0.1157  0.0430
24164DOPC   C4A30650   8.529   5.426  12.830 -0.2510  0.1110  0.0076
24164DOPC   C1B30651   8.394   5.022  12.018  0.1700  0.1247  0.0338
24164DOPC   D2B30652   8.420   5.084  12.510  0.0146  0.2719 -0.2836
24164DOPC   C3B30653   8.260   4.884  12.864 -0.2350  0.1574  0.2196
24164DOPC   C4B30654   8.108   4.504  13.089 -0.1086  0.1149 -0.1557
24165DOPC   NC330655   6.032   1.507   9.815  0.1733  0.2161 -0.1747
24165DOPC   PO430656   5.939   1.705  10.157  0.3006 -0.1703  0.2261
24165DOPC   GL130657   5.799   1.577  10.529  0.3066  0.1509  0.1918
24165DOPC   GL230658   5.579   1.677  10.653  0.0456 -0.1964 -0.0633
24165DOPC   C1A30659   6.011   1.403  10.907 -0.0860 -0.4522  0.0897
24165DOPC   D2A30660   6.280   1.062  11.182 -0.2996  0.4146  0.1106
24165DOPC   C3A30661   6.590   1.047  11.531  0.0205 -0.0422  0.3183
24165DOPC   C4A30662   7.043   1.099  11.764 -0.1572  0.0762 -0.1241
24165DOPC   C1B30663   5.652   1.806  11.058  0.0627  0.2092  0.0827
24165DOPC   D2B30664   5.776   2.048  11.467 -0.1750 -0.2525 -0.0818
24165DOPC   C3B30665   5.879   2.428  11.725 -0.0760 -0.0091 -0.2157
24165DOPC   C4B30666   6.030   2.580  12.141  0.1131 -0.0625 -0.1753
24166DOPC   NC330667   7.359   0.654  10.851  0.2515  0.1450 -0.1217
24166DOPC   PO430668   7.539   0.357  10.879  0.0074  0.1516  0.3879
24166DOPC   GL130669   7.653   0.364  11.331  0.2110 -0.0823  0.3057
24166DOPC   GL230670   7.398   0.626  11.361 -0.0018 -0.0559  0.2293
24166DOPC   C1A30671   7.807   0.291  11.725 -0.0455  0.3018 -0.0679
24166DOPC   D2A30672   7.733   0.627  12.122  0.0658 -0.1280  0.2233
24166DOPC   C3A30673   8.073   0.625  12.469  0.0798  0.0603  0.1796
24166DOPC   C4A30674   8.494   0.519  12.725 -0.2752 -0.0091  0.2598
24166DOPC   C1B30675   7.440   0.818  11.760  0.0414 -0.0672 -0.0956
24166DOPC   D2B30676   7.324   1.042  12.198  0.0876 -0.2163 -0.1596
24166DOPC   C3B30677   7.202   1.489  12.002  0.0387  0.0856 -0.4221
24166DOPC   C4B30678   7.131   1.974  11.854 -0.1315  0.2164 -0.0005
24167DOPC   NC330679   5.683   7.385  10.561 -0.1545 -0.3860  0.1492
24167DOPC   PO430680   5.434   7.669  10.659  0.0064  0.1044 -0.2273
24167DOPC   GL130681   5.440   7.699  11.089  0.4392 -0.3648  0.5308
24167DOPC   GL230682   5.666   7.903  11.085  0.0005  0.3243  0.2959
24167DOPC   C1A30683   5.508   7.452  11.487  0.3565 -0.1998 -0.0321
24167DOPC   D2A30684   5.589   7.490  11.964  0.0633 -0.2739 -0.3036
24167DOPC   C3A30685   5.948   7.307  12.161  0.2561 -0.4460  0.0771
24167DOPC   C4A30686   6.182   7.032  12.480  0.2046 -0.0769 -0.0730
24167DOPC   C1B30687   5.767   7.864  11.453  0.0008  0.1267  0.1695
24167DOPC   D2B30688   5.909   7.941  11.936  0.0792 -0.0074 -0.2155
24167DOPC   C3B30689   5.710   7.857  12.289 -0.0858 -0.0039  0.0733
24167DOPC   C4B30690   5.758   8.192  12.642  0.0923  0.2503  0.1363
24168DOPC   NC330691  15.871   2.013  11.385 -0.0614  0.1439 -0.0685
24168DOPC   PO430692  15.785   2.316  11.141  0.2172  0.0127  0.1263
24168DOPC   GL130693  15.655   2.612  11.431  0.0403  0.1109  0.1542
24168DOPC   GL230694  15.668   2.414  11.621  0.2913  0.1194 -0.0942
24168DOPC   C1A30695  15.960   2.747  11.705  0.0332 -0.1824  0.1374
24168DOPC   D2A30696  16.344   2.847  12.027 -0.2005  0.1593 -0.0768
24168DOPC   C3A30697  16.197   3.072  12.357 -0.0970  0.0866 -0.1906
24168DOPC   C4A30698  15.922   2.955  12.757  0.3096  0.0987 -0.3270
24168DOPC   C1B30699  15.457   2.760  11.915 -0.2775  0.1436  0.1108
24168DOPC   D2B30700  15.218   3.063  12.114  0.0737 -0.1596 -0.0792
24168DOPC   C3B30701  15.041   3.132  12.551 -0.0577  0.1126  0.1476
24168DOPC   C4B30702  15.001   2.911  12.957 -0.0295  0.3039  0.0146
24169DOPC   NC330703  18.439   3.724  11.240 -0.1148 -0.0764 -0.2270
24169DOPC   PO430704  18.164   3.639  11.500  0.0705  0.2830 -0.2115
24169DOPC   GL130705  18.306   3.821  11.832 -0.0888 -0.0570 -0.1556
24169DOPC   GL230706  17.995   3.784  11.863  0.2900  0.0636  0.3628
24169DOPC   C1A30707  18.457   3.900  12.217 -0.1693 -0.1309 -0.2393
24169DOPC   D2A30708  18.619   4.066  12.688 -0.3448 -0.3029 -0.0819
24169DOPC   C3A30709  18.828   4.209  13.026 -0.2290  0.3184 -0.0960
24169DOPC   C4A30710  18.878   4.728  13.274  0.0269  0.0093 -0.1673
24169DOPC   C1B30711  17.878   3.827  12.339 -0.0384 -0.0802  0.1496
24169DOPC   D2B30712  18.130   3.855  12.749 -0.1098  0.0350 -0.0395
24169DOPC   C3B30713  18.292   3.457  13.045 -0.0196 -0.0184 -0.0147
24169DOPC   C4B30714  18.174   3.010  13.082  0.1983 -0.0087 -0.2630
24170DOPC   NC330715  27.951   2.409  10.585 -0.2036 -0.2471 -0.1419
24170DOPC   PO430716  28.062   2.635  10.904 -0.2613  0.0635  0.0471
24170DOPC   GL130717  28.308   2.581  11.219  0.1514  0.0756 -0.1320
24170DOPC   GL230718  28.134   2.371  11.324 -0.0941  0.1078 -0.1647
24170DOPC   C1A30719  28.493   2.894  11.430 -0.1606 -0.1368 -0.1688
24170DOPC   D2A30720  28.628   3.331  11.630 -0.1023 -0.1449 -0.0920
24170DOPC   C3A30721  29.046   3.414  11.556 -0.0023  0.2011 -0.0819
24170DOPC   C4A30722  29.081   3.734  11.179  0.1427 -0.0152  0.1957
24170DOPC   C1B30723  28.038   2.505  11.719 -0.0603 -0.1000  0.0221
24170DOPC   D2B30724  28.149   2.884  12.073 -0.0792 -0.0680 -0.2319
24170DOPC   C3B30725  27.890   3.120  12.308  0.0826 -0.0144  0.4208
24170DOPC   C4B30726  27.593   3.425  12.592  0.0904  0.1427 -0.1884
24171DOPC   NC330727  20.700   2.173  11.068 -0.2486 -0.0856 -0.2837
24171DOPC   PO430728  20.989   2.506  11.110 -0.1918 -0.0290 -0.2011
24171DOPC   GL130729  21.021   2.556  11.476 -0.0977 -0.0201 -0.1661
24171DOPC   GL230730  20.806   2.326  11.610  0.1681  0.0990  0.0484
24171DOPC   C1A30731  21.320   2.553  11.835  0.0123  0.0462  0.0379
24171DOPC   D2A30732  21.373   2.688  12.351 -0.1209  0.0370  0.4137
24171DOPC   C3A30733  21.391   2.377  12.712  0.3904  0.2285 -0.1159
24171DOPC   C4A30734  21.305   2.440  13.236 -0.0091  0.2954  0.2164
24171DOPC   C1B30735  20.899   1.908  11.649  0.0302  0.0140 -0.2082
24171DOPC   D2B30736  20.814   1.469  11.874 -0.2258 -0.6273 -0.2103
24171DOPC   C3B30737  21.084   1.346  12.291 -0.0979  0.0051 -0.2820
24171DOPC   C4B30738  21.464   1.363  12.676 -0.1112 -0.4185  0.1374
24172DOPC   NC330739  19.366   7.063  11.029 -0.3147  0.2001  0.0568
24172DOPC   PO430740  19.292   6.699  11.218  0.1938 -0.3711  0.5967
24172DOPC   GL130741  19.051   6.856  11.510 -0.2819 -0.5544 -0.0751
24172DOPC   GL230742  19.193   7.100  11.606  0.2588  0.0586  0.1953
24172DOPC   C1A30743  19.072   6.641  11.895  0.0085 -0.0169 -0.0925
24172DOPC   D2A30744  19.135   6.303  12.265 -0.0306 -0.1881  0.0777
24172DOPC   C3A30745  19.101   6.305  12.703  0.0006  0.2871  0.0264
24172DOPC   C4A30746  18.937   6.390  13.118 -0.0281 -0.2328 -0.0500
24172DOPC   C1B30747  19.009   7.194  11.925  0.1646  0.1075  0.2235
24172DOPC   D2B30748  19.124   7.469  12.359  0.1953 -0.0371  0.1354
24172DOPC   C3B30749  18.811   7.272  12.701 -0.0582 -0.1945 -0.1827
24172DOPC   C4B30750  18.307   7.109  12.687  0.1268 -0.2971 -0.1759
24173DOPC   NC330751   9.594   0.783  10.697  0.2023  0.3247 -0.2406
24173DOPC   PO430752   9.390   0.592  11.002 -0.1547 -0.1948  0.1851
24173DOPC   GL130753   9.652   0.478  11.284 -0.1709  0.1257  0.1168
24173DOPC   GL230754   9.691   0.708  11.296  0.1943 -0.1013  0.0401
24173DOPC   C1A30755   9.666   0.481  11.655  0.3282  0.1992 -0.1822
24173DOPC   D2A30756   9.649   0.495  12.144  0.0236  0.1472  0.2290
24173DOPC   C3A30757   9.378   0.616  12.522 -0.0089 -0.1941 -0.0926
24173DOPC   C4A30758   9.175   0.646  12.938 -0.3569  0.0649 -0.1100
24173DOPC   C1B30759   9.708   0.990  11.637  0.2859 -0.0724  0.3276
24173DOPC   D2B30760   9.521   1.378  11.872 -0.0526 -0.2064 -0.0329
24173DOPC   C3B30761   9.585   1.686  12.118  0.0320  0.1052  0.1659
24173DOPC   C4B30762   9.617   1.902  12.621  0.0703  0.0890 -0.1382
24174DOPC   NC330763  26.279   3.638  11.251 -0.0211  0.1347  0.1388
24174DOPC   PO430764  25.960   3.545  11.402  0.0896  0.2862 -0.1488
24174DOPC   GL130765  25.760   3.599  11.805 -0.1615  0.0588 -0.2835
24174DOPC   GL230766  25.754   3.905  11.793  0.0491  0.1087 -0.0046
24174DOPC   C1A30767  25.681   3.529  12.262  0.3228  0.0896  0.1451
24174DOPC   D2A30768  25.663   3.537  12.792 -0.2391  0.2899 -0.3253
24174DOPC   C3A30769  25.899   3.807  13.103  0.1896 -0.3394 -0.2627
24174DOPC   C4A30770  25.979   4.071  13.505  0.0483 -0.3534 -0.0313
24174DOPC   C1B30771  25.835   4.013  12.209 -0.2188 -0.1479  0.1286
24174DOPC   D2B30772  26.110   3.966  12.650 -0.0381  0.3151 -0.1296
24174DOPC   C3B30773  26.156   3.509  12.768 -0.0671  0.0488  0.2091
24174DOPC   C4B30774  25.969   3.091  12.585 -0.1247  0.0005 -0.1304
24175W        W30775   4.012   6.912   8.957 -0.0520  0.2860  0.0660
24176W        W30776  12.060   0.561   1.904  0.0637 -0.1104  0.1288
24177W        W30777  13.388   7.668   0.010  0.2700 -0.0315  0.1762
24178W        W30778  27.061   2.229  23.318 -0.2295  0.0289 -0.1436
24179W        W30779  29.291   5.229  16.654 -0.0552 -0.1043  0.2299
24180W        W30780  24.681   3.593   4.567  0.0518  0.1924  0.3830
24181W        W30781   8.130   1.004   7.193  0.0931 -0.2900  0.0646
24182W        W30782  22.040   2.873  22.341  0.0988  0.1941 -0.1227
24183W        W30783   7.468   5.027  18.800  0.1773  0.2513 -0.1390
24184W        W30784  11.774   5.764  20.532  0.3755 -0.1188 -0.0311
24185W        W30785  20.878   0.681  20.404 -0.0131  0.0096 -0.2211
24186W        W30786  24.599   4.232  22.381  0.1435 -0.0419 -0.1691
24187W        W30787  30.869   3.595  17.506 -0.0648 -0.1593  0.2978
24188W        W30788  22.551   4.111   9.916 -0.3440 -0.0990  0.2046
24189W        W30789  29.631   1.861  21.699  0.2952 -0.0889 -0.2165
24190W        W30790  27.537   4.605   1.825 -0.1928  0.2061  0.1523
24191W        W30791  29.244   3.365  15.078 -0.1371  0.0797  0.1683
24192W        W30792   8.698   5.534   8.959  0.3206  0.2090 -0.2208
24193W        W30793  21.678   7.055   5.751  0.2767  0.3109  0.3147
24194W        W30794   0.632   1.471   7.469 -0.0168  0.1968  0.0011
24195W        W30795  12.398   7.732  24.407 -0.0689 -0.0877 -0.0466
24196W        W30796  14.127   1.179  18.589 -0.0364  0.1191 -0.1540
24197W        W30797  24.350   4.455   6.717 -0.2169  0.1409 -0.2455
24198W        W30798  16.757   3.648   2.240 -0.0042  0.0962 -0.2498
24199W        W30799  12.918   7.396  22.330  0.1934  0.1040 -0.1680
24200W        W30800   9.473   4.148   4.404 -0.2139  0.1399  0.1633
24201W        W30801  31.116   2.359  22.060 -0.0654  0.1050  0.0232
24202W        W30802   0.155   0.892  22.964 -0.2147 -0.1629  0.1657
24203W        W30803  29.477   1.203   7.781  0.0765  0.0005  0.0507
24204W        W30804  29.266   5.876  17.257  0.1889  0.1034 -0.0394
24205W        W30805  12.909   7.083  25.529 -0.3557  0.3369  0.2587
24206W        W30806   1.304   2.358  18.492  0.1262  0.0105  0.1838
24207W        W30807  20.136   5.831  22.821  0.3289 -0.2713  0.1058
24208W        W30808  22.330   2.979   1.866  0.0902 -0.2868  0.3200
24209W        W30809  22.334   2.961  25.622  0.2240 -0.1480 -0.0429
24210W        W30810   0.427   0.797  23.417 -0.0794 -0.1301 -0.0480
24211W        W30811   2.587   6.435   8.595 -0.1896  0.0145  0.0092
24212W        W30812   2.107   6.741   3.845 -0.2505 -0.1248 -0.0670
24213W        W30813   2.217   7.026  23.503  0.0840 -0.0596 -0.1131
24214W        W30814  23.489   1.113   4.689 -0.0387 -0.2498  0.1034
24215W        W30815   0.660   6.223   6.152  0.1126  0.1045 -0.2794
24216W        W30816  20.529   5.885  22.496 -0.1003  0.0860 -0.0976
24217W        W30817  14.384   3.594  19.213 -0.0265 -0.0490 -0.3484
24218W        W30818   1.181   3.596   0.951 -0.0624 -0.1741  0.1165
24219W        W30819  22.141   5.736  20.374  0.1506  0.2121  0.0163
24220W        W30820  20.054   3.888   7.402  0.2408 -0.1813 -0.0765
24221W        W30821  15.357   0.350  23.988  0.1013  0.2075 -0.0756
24222W        W30822   7.840   4.466   6.857 -0.0627 -0.0952  0.0564
24223W        W30823  18.938   6.085  21.846  0.1596 -0.1837 -0.2677
24224W        W30824   6.406   4.425  20.426  0.0449  0.0678  0.3494
24225W        W30825  23.090   1.604  21.410 -0.2288  0.1970 -0.1830
24226W        W30826  20.842   5.777  25.289  0.1488  0.2243 -0.0086
24227W        W30827  18.703   4.927  16.328  0.0437 -0.0173 -0.1053
24228W        W30828   2.237   3.325  16.047  0.1343  0.1295  0.0190
24229W        W30829  20.541   7.009  25.153 -0.1400 -0.1908 -0.1925
24230W        W30830  23.074   3.720   6.005 -0.0980  0.0414  0.1911
24231W        W30831  16.956   3.128   9.535 -0.2710 -0.2831 -0.0086
24232W        W30832  27.443   2.077   2.908 -0.1980 -0.0740 -0.0038
24233W        W30833  20.111   7.488   9.116  0.2700 -0.2172  0.0852
24234W        W30834  13.204   5.754   9.309  0.0952 -0.0529  0.1930
24235W        W30835   6.655   3.325   1.175  0.1402  0.2296  0.1662
24236W        W30836  13.821   3.309   8.596  0.0538  0.0459  0.1059
24237W        W30837  12.425   0.710  18.134 -0.1960 -0.1532 -0.2213
24238W        W30838  18.703   4.272  21.944 -0.0803  0.1116 -0.1009
24239W        W30839   1.687   6.182   4.415 -0.0769  0.2999  0.0951
24240W        W30840  26.155   0.785   6.601  0.1451 -0.0445  0.1972
24241W        W30841  10.528   3.686   0.596  0.0352 -0.1564  0.1840
24242W        W30842  13.339   5.826   3.706 -0.3426 -0.0199 -0.2845
24243W        W30843   5.260   2.669   5.246 -0.0669 -0.0614 -0.1352
24244W        W30844  13.312   1.169   5.451  0.3197 -0.0055  0.1998
24245W        W30845  29.091   4.969  18.457 -0.2353 -0.3283  0.0847
24246W        W30846  24.811   1.403  23.690  0.1582  0.1354  0.1627
24247W        W30847  17.035   5.692  17.559  0.3179 -0.2475 -0.1310
24248W        W30848  25.710   6.359  24.337  0.0023  0.0091 -0.0248
24249W        W30849   7.699   6.548  21.695 -0.0159 -0.1068  0.0554
24250W        W30850  21.531   7.164   2.045  0.4502 -0.1181  0.0517
24251W        W30851   4.104   4.939   9.041 -0.4277  0.0195  0.0355
24252W        W30852  11.816   2.988   4.552  0.0679  0.0616 -0.0156
24253W        W30853  20.390   3.621   9.280 -0.2978 -0.1093 -0.3820
24254W        W30854  15.934   7.325  21.348  0.1032  0.2093  0.1404
24255W        W30855  20.269   3.286   6.460  0.1214  0.0486  0.1356
24256W        W30856  20.372   5.701  18.900 -0.4033 -0.2688  0.0800
24257W        W30857   7.905   0.735  10.911  0.2509 -0.1885 -0.1419
24258W        W30858  20.302   7.136   8.206  0.2486 -0.0065  0.2562
24259W        W30859  26.723   1.261   6.045 -0.0853 -0.2776 -0.2420
24260W        W30860   1.975   4.654  16.890 -0.1079  0.0106  0.1267
24261W        W30861  12.623   5.119  21.902  0.1959 -0.1844  0.1411
24262W        W30862  11.797   4.767   8.718  0.4850 -0.1435  0.1937
24263W        W30863  31.116   0.802  19.979 -0.0036  0.2210 -0.2290
24264W        W30864  30.108   4.748  20.899 -0.0375  0.0113 -0.0673
24265W        W30865  21.540   6.765  20.359 -0.1019  0.1081  0.1681
24266W        W30866  14.638   1.638   8.871  0.1952 -0.1202  0.0265
24267W        W30867  14.980   0.701   4.354 -0.0641 -0.0986  0.2987
24268W        W30868  20.315   2.198   1.708 -0.0465  0.3611 -0.0331
24269W        W30869   7.497   4.689   0.153  0.0411 -0.0515  0.1033
24270W        W30870  18.017   2.586   5.761 -0.1890 -0.2030  0.4088
24271W        W30871   3.116   5.291  15.915 -0.1855  0.2509  0.0265
24272W        W30872   5.375   7.711   5.634  0.0408  0.2779  0.0459
24273W        W30873  22.081   2.323  18.205  0.0657 -0.0426  0.0270
24274W        W30874  20.685   2.611  19.208  0.3616  0.3347 -0.0597
24275W        W30875  21.228   0.844  15.838  0.0119  0.1396  0.0752
24276W        W30876   6.175   1.346   8.936  0.1254  0.1140  0.2386
24277W        W30877  27.842   2.155   9.463  0.1185 -0.0450 -0.0955
24278W        W30878  31.432   7.093  17.433 -0.0994 -0.0826 -0.0791
24279W        W30879  28.589   3.266   5.139  0.0560 -0.0432  0.2874
24280W        W30880  19.816   4.585   1.647 -0.4484 -0.4140 -0.0927
24281W        W30881   1.754   2.366  21.373  0.1156  0.0196  0.0916
24282W        W30882  28.831   6.670   9.814  0.1646  0.0653  0.0819
24283W        W30883  24.896   6.184  16.760  0.1659  0.1079 -0.1032
24284W        W30884  29.228   6.772  23.900 -0.3210 -0.0879 -0.1182
24285W        W30885  11.200   3.794  23.046  0.0265  0.0831  0.2816
24286W        W30886   2.405   0.875  22.537 -0.0437  0.1978 -0.2966
24287W        W30887  22.414   3.740   8.402 -0.0408 -0.0001  0.4479
24288W        W30888  19.374   1.600   1.751 -0.3137  0.1687  0.0441
24289W        W30889  20.705   6.210  23.462 -0.1384  0.1447 -0.1607
24290W        W30890   5.620   2.699   5.588 -0.1066  0.1176 -0.2161
24291W        W30891   4.187   3.719  22.795 -0.0555 -0.2483 -0.0434
24292W        W30892   6.632   5.392   5.739  0.2179  0.4188 -0.1258
24293W        W30893  28.510   7.081  15.712 -0.3110 -0.2624  0.1951
24294W        W30894   9.093   4.858   3.492  0.1628 -0.2721  0.4400
24295W        W30895  24.717   2.245  19.514 -0.0427  0.0082  0.2286
24296W        W30896  22.443   5.352   9.159  0.0312 -0.1989  0.0381
24297W        W30897   8.858   7.149   6.141 -0.2284 -0.1271 -0.1750
24298W        W30898   1.170   0.299  21.927 -0.3092 -0.2878 -0.0006
24299W        W30899  28.691   5.143   7.546  0.0248  0.1749  0.1873
24300W        W30900   3.350   1.218  25.275 -0.1060  0.1109 -0.1433
24301W        W30901  10.822   3.803  24.943  0.1757 -0.1011  0.0939
24302W        W30902  23.611   5.795  18.349 -0.3929 -0.0276 -0.0420
24303W        W30903  24.796   1.019  21.920 -0.0743 -0.3399 -0.2401
24304W        W30904  16.109   4.186  24.099 -0.2244 -0.0321 -0.0826
24305W        W30905  22.246   0.580   0.917  0.1296 -0.1759  0.0329
24306W        W30906  20.561   3.613  21.735  0.0931  0.0618  0.2310
24307W        W30907  15.719   6.937   8.725  0.0417  0.1081  0.0224
24308W        W30908  13.960   6.986   4.437  0.1792 -0.0175  0.3094
24309W        W30909  24.366   5.665   0.290 -0.0289  0.2016  0.1278
24310W        W30910  14.080   0.696   5.908 -0.0318  0.1188  0.2274
24311W        W30911  13.243   4.501   9.710 -0.0425  0.0587 -0.0234
24312W        W30912   4.693   5.621   3.464 -0.0563 -0.1525 -0.2412
24313W        W30913   1.813   3.687  21.333  0.2580  0.0122  0.2192
24314W        W30914   7.561   5.580  15.893 -0.2551  0.1684 -0.1558
24315W        W30915  16.985   4.722   0.095  0.0244  0.0356 -0.0232
24316W        W30916  27.807   5.376   4.727  0.1635  0.5951 -0.1833
24317W        W30917   0.479   2.273  15.874  0.0203  0.1642 -0.2757
24318W        W30918   9.818   7.413   2.566  0.2375  0.0018 -0.0944
24319W        W30919  12.467   3.337  25.056 -0.1764  0.0523 -0.0732
24320W        W30920  13.731   1.193   3.250  0.0480 -0.0119 -0.1667
24321W        W30921  16.610   4.951  23.735 -0.4268  0.1797  0.0383
24322W        W30922   3.397   1.698   4.714  0.0332 -0.4517  0.2493
24323W        W30923  21.437   1.025   9.057 -0.2671 -0.2946 -0.1975
24324W        W30924  27.404   1.910  25.168  0.1132  0.1474 -0.0962
24325W        W30925  23.105   5.755  19.287  0.1461 -0.1454 -0.3089
24326W        W30926  17.085   3.164   8.972  0.0765  0.1572  0.5413
24327W        W30927  20.770   7.271   7.820  0.1569 -0.3400  0.1007
24328W        W30928  24.025   7.635  15.171  0.3490 -0.0661 -0.1700
24329W        W30929  16.837   5.330   5.921  0.1604 -0.0127 -0.1970
24330W        W30930  26.573   5.942   1.673  0.0040  0.4142 -0.3254
24331W        W30931  11.720   3.307   7.757 -0.2991 -0.1225 -0.0303
24332W        W30932  26.279   2.970  16.966 -0.1387  0.0738 -0.2359
24333W        W30933   7.943   7.224  25.746 -0.2213  0.1295  0.1738
24334W        W30934   7.869   0.878   2.115  0.0043  0.0651 -0.2656
24335W        W30935  15.086   0.859  17.636 -0.0703  0.0879 -0.0892
24336W        W30936   2.793   4.917   7.499  0.0429 -0.0756 -0.1657
24337W        W30937   8.551   7.547   5.642  0.1274  0.1046  0.0805
24338W        W30938   8.294   0.627  23.546 -0.0819 -0.3974 -0.0639
24339W        W30939  20.963   7.660   8.772 -0.2879 -0.0910 -0.0490
24340W        W30940  11.947   4.690   3.023 -0.0063 -0.0794  0.1807
24341W        W30941  15.922   6.120  10.574  0.0767  0.2766 -0.1624
24342W        W30942   6.633   2.788  20.648  0.1904  0.0323 -0.3649
24343W        W30943  24.203   4.871   1.557  0.4215  0.2245 -0.1340
24344W        W30944   1.528   5.466   0.541 -0.2577 -0.1669 -0.0684
24345W        W30945  29.634   7.457  22.349  0.0110 -0.0482  0.3700
24346W        W30946  21.206   1.750  17.032  0.1766 -0.0715  0.3143
24347W        W30947  27.349   1.959   2.427 -0.1695 -0.0816  0.1432
24348W        W30948  23.398   4.686  23.471  0.2120 -0.1083  0.0322
24349W        W30949  19.275   0.883   8.378 -0.1988 -0.3353 -0.1483
24350W        W30950   4.042   1.330   2.784 -0.2967  0.1850  0.2932
24351W        W30951  21.593   4.989   2.437  0.4136 -0.3024 -0.2303
24352W        W30952  28.666   0.512   9.392 -0.1507 -0.0367  0.0087
24353W        W30953  24.691   0.210   9.178  0.1085 -0.0619  0.2266
24354W        W30954   1.853   3.027   8.726  0.0727 -0.1769 -0.0154
24355W        W30955   6.350   1.747  21.499  0.2327 -0.3023  0.0323
24356W        W30956  24.087   6.154   2.094  0.0548 -0.2216 -0.1855
24357W        W30957  15.620   5.078  19.801  0.0641 -0.3980  0.2857
24358W        W30958  13.804   2.583   6.568  0.1027  0.0093 -0.2226
24359W        W30959  24.234   5.324  22.460 -0.1236 -0.0512 -0.1655
24360W        W30960   4.118   5.158   4.586  0.0904  0.0434  0.0573
24361W        W30961  10.800   7.442   8.461 -0.5062  0.0372  0.3486
24362W        W30962   1.198   5.905   0.631  0.0458 -0.1427  0.0197
24363W        W30963  30.968   3.839   6.295  0.0219  0.1797 -0.0062
24364W        W30964  21.763   0.271   2.995 -0.1103  0.1360  0.3199
24365W        W30965  21.680   6.358   4.510 -0.5121 -0.1726 -0.0607
24366W        W30966  11.008   6.938  11.000 -0.1355  0.0794 -0.0099
24367W        W30967  23.547   4.009   4.522 -0.1119 -0.0768 -0.2358
24368W        W30968   4.927   5.176  17.144  0.0523  0.2094 -0.1696
24369W        W30969  19.509   7.117   2.102  0.1169 -0.1102 -0.1753
24370W        W30970  23.041   6.587   4.369  0.0780  0.2307 -0.0138
24371W        W30971  11.184   3.146  19.671  0.1749  0.0785 -0.2373
24372W        W30972  16.048   7.521   6.524 -0.4114 -0.3209 -0.0177
24373W        W30973  10.766   0.465  25.496  0.0833  0.0633  0.0138
24374W        W30974  19.616   5.091   7.898 -0.2175 -0.0165 -0.3083
24375W        W30975  13.281   5.884   7.324  0.3359 -0.0343 -0.0831
24376W        W30976   2.854   1.555   8.848 -0.1283  0.0165 -0.3025
24377W        W30977   0.594   4.917  24.824  0.0235 -0.1590 -0.0918
24378W        W30978  16.271   2.075   6.198  0.0651  0.0547 -0.0654
24379W        W30979  16.373   1.282   3.196  0.0406 -0.0302  0.5059
24380W        W30980  26.090   4.893   4.254  0.1989  0.1785  0.0319
24381W        W30981   9.546   2.266  10.985  0.0781  0.1765  0.0042
24382W        W30982  14.068   4.170  17.893  0.0922  0.0872  0.2897
24383W        W30983   7.298   3.469   2.902 -0.1513  0.1266 -0.1649
24384W        W30984  23.724   0.688  19.109  0.1560 -0.0368 -0.1011
24385W        W30985  27.433   6.618   3.046 -0.0824  0.0686  0.0103
24386W        W30986  18.382   3.183   3.238 -0.2634 -0.0670  0.0386
24387W        W30987   9.554   6.618   1.715 -0.2153 -0.1234  0.1310
24388W        W30988  17.999   2.806  22.011 -0.1240 -0.2096  0.2352
24389W        W30989  24.179   4.993  14.862  0.2914  0.1229 -0.0205
24390W        W30990  28.556   4.860   8.457 -0.1556  0.1387 -0.0829
24391W        W30991  11.298   4.061  10.034  0.1624 -0.1547  0.0245
24392W        W30992   8.760   2.663   2.205 -0.2203 -0.2943  0.1417
24393W        W30993  16.003   6.819   4.499 -0.0501 -0.0212  0.0698
24394W        W30994   9.436   1.835  23.181  0.4927 -0.0385 -0.0988
24395W        W30995  17.717   0.961  24.806  0.0752 -0.2711  0.2027
24396W        W30996   7.004   7.437  16.953  0.1132  0.2093 -0.1345
24397W        W30997  14.747   7.065  16.216  0.4402  0.0465 -0.2330
24398W        W30998  26.340   3.166   3.842 -0.0460  0.2310 -0.2172
24399W        W30999  22.755   2.006   3.295 -0.2018  0.1923 -0.1345
24400W        W31000  22.127   1.416  14.596 -0.2228 -0.1989  0.0409
24401W        W31001  26.647   1.446  25.423 -0.1147 -0.0338  0.1903
24402W        W31002   4.053   5.127  21.051  0.2057 -0.0202 -0.0363
24403W        W31003  23.258   1.863  25.479  0.0397 -0.1153  0.0335
24404W        W31004   4.306   7.217  23.626  0.1093  0.1593  0.0096
24405W        W31005  13.868   0.622  23.693  0.2648  0.2225  0.4912
24406W        W31006  14.565   2.717  24.365 -0.1993 -0.2485  0.0456
24407W        W31007  17.314   0.062  25.100  0.0138 -0.3358  0.1678
24408W        W31008  21.587   0.510  15.694 -0.2347  0.2589 -0.0938
24409W        W31009   8.278   6.023   4.952 -0.0103 -0.0966  0.3303
24410W        W31010  14.125   3.073   0.693 -0.1654  0.0707  0.0241
24411W        W31011   2.657   4.150   9.035 -0.0886  0.1194 -0.1453
24412W        W31012  11.779   3.236   1.009  0.0565  0.1584 -0.4054
24413W        W31013  15.306   5.082  21.052 -0.0923  0.0431  0.1234
24414W        W31014  12.565   3.071  25.764 -0.3870 -0.2537  0.0269
24415W        W31015  16.915   2.621   7.180 -0.1770 -0.1867 -0.1987
24416W        W31016  21.957   5.403   7.622 -0.0154  0.0868 -0.1276
24417W        W31017   1.697   0.427   2.947 -0.1181 -0.1268  0.1238
24418W        W31018  13.017   6.200  10.286 -0.0166  0.0006 -0.0612
24419W        W31019   9.195   6.953   8.597  0.2310  0.0046 -0.0571
24420W        W31020  27.156   4.748  16.712 -0.0458  0.1783 -0.1821
24421W        W31021   7.586   7.387  24.759  0.2446  0.2314  0.1446
24422W        W31022  16.322   5.050   1.497 -0.2039  0.1567  0.1925
24423W        W31023   4.357   4.368  17.202  0.0491  0.2299 -0.1841
24424W        W31024  30.888   3.926  23.163 -0.0747  0.4238  0.1874
24425W        W31025  30.525   6.725   6.051 -0.1488 -0.0008  0.0731
24426W        W31026   7.570   5.811   2.082 -0.3305  0.0997 -0.0252
24427W        W31027   6.345   4.096  23.547  0.1066 -0.2237 -0.0633
24428W        W31028  11.311   4.689   8.557  0.0803  0.0672 -0.3511
24429W        W31029  22.389   4.470  16.635 -0.2282  0.1738  0.0421
24430W        W31030  10.781   1.171   9.436 -0.1722  0.0403  0.2375
24431W        W31031  25.424   1.115   6.408  0.0760 -0.1198  0.2072
24432W        W31032   0.982   3.883  22.986 -0.1284 -0.0224 -0.1672
24433W        W31033  26.957   0.428  20.740  0.0083  0.0433  0.2266
24434W        W31034  30.745   0.877  17.785  0.2008  0.2281 -0.0014
24435W        W31035  13.160   2.022  21.476  0.2536 -0.0633  0.1548
24436W        W31036  20.698   1.933  16.492 -0.0038 -0.1449  0.1218
24437W        W31037   9.200   6.812  10.555 -0.1605 -0.0631 -0.0688
24438W        W31038  18.032   0.292  23.628  0.1363 -0.0027  0.1635
24439W        W31039  23.423   2.615  19.549 -0.3578 -0.1822  0.2433
24440W        W31040  29.814   4.897  16.622 -0.3774 -0.1305  0.0500
24441W        W31041   1.197   2.844  25.859 -0.0472 -0.0205 -0.3145
24442W        W31042  17.597   6.646  19.446  0.0210  0.0475  0.1581
24443W        W31043  11.263   0.120   7.616 -0.0463 -0.1210 -0.4223
24444W        W31044  16.924   0.281   6.467 -0.1409 -0.0979  0.0314
24445W        W31045   5.457   0.281   2.711  0.0054  0.0125  0.1885
24446W        W31046  28.352   6.319   6.579  0.0408 -0.0967  0.2353
24447W        W31047  29.361   3.391  18.719 -0.0685 -0.0066  0.2343
24448W        W31048  20.124   3.782   6.336 -0.1901  0.0901  0.1342
24449W        W31049   5.741   3.174   7.295  0.0686 -0.2356  0.0880
24450W        W31050   8.504   4.401  18.990  0.0550 -0.2910  0.0573
24451W        W31051  18.358   7.439  25.728 -0.1494  0.1082 -0.0200
24452W        W31052   4.362   0.691  18.133  0.2465  0.0298 -0.1858
24453W        W31053   6.763   3.633  20.168 -0.1626  0.4166 -0.0772
24454W        W31054  21.189   1.430   0.039 -0.0102 -0.1480 -0.1703
24455W        W31055  30.867   0.467  10.402 -0.0960  0.0396  0.5221
24456W        W31056  16.373   5.755   6.033  0.1800  0.0171 -0.4454
24457W        W31057   4.003   5.002   2.135 -0.0399  0.0989  0.0293
24458W        W31058  29.024   2.990   2.814  0.2202  0.0392  0.1796
24459W        W31059   6.094   7.509  20.892 -0.2249 -0.1083  0.0137
24460W        W31060  30.507   5.298  18.331 -0.1552  0.0751  0.0421
24461W        W31061   6.780   6.246  11.359 -0.2287  0.5752  0.1254
24462W        W31062  23.032   2.139  24.248  0.0054  0.0908  0.0138
24463W        W31063  17.096   7.476   5.600 -0.1101 -0.0518  0.0225
24464W        W31064  19.539   3.358   0.024 -0.0191 -0.0061  0.1290
24465W        W31065   1.422   2.330   5.549  0.0864 -0.0623 -0.1016
24466W        W31066  26.923   2.881   6.273  0.0022  0.1435  0.0495
24467W        W31067   2.152   0.395  22.469  0.0970 -0.1835  0.0091
24468W        W31068  21.002   2.526  20.984 -0.0765  0.2178  0.1487
24469W        W31069  21.179   1.248   2.020  0.0906  0.3523  0.1744
24470W        W31070  24.428   0.282   1.133 -0.1886  0.2430 -0.2650
24471W        W31071  19.464   0.806   4.200 -0.4587 -0.0760  0.1491
24472W        W31072  30.795   7.735   5.792  0.1796 -0.1215  0.1005
24473W        W31073  17.996   1.924   3.875 -0.2209 -0.2256  0.3076
24474W        W31074  11.956   6.994  25.267 -0.1032  0.0178  0.0364
24475W        W31075  17.790   5.010  16.580  0.1445  0.1425  0.0475
24476W        W31076  22.800   0.091  25.328 -0.0192  0.2473 -0.2157
24477W        W31077  16.202   7.213  23.618  0.2220  0.0533 -0.1851
24478W        W31078  23.284   6.462   5.692 -0.3293 -0.2421  0.1120
24479W        W31079   9.351   3.136  16.806  0.3281  0.0945 -0.0338
24480W        W31080  25.891   1.101  21.025  0.1719 -0.1833 -0.0334
24481W        W31081   2.506   7.724  22.661 -0.0713  0.3811  0.1952
24482W        W31082  17.366   6.251   1.406 -0.0034 -0.2001 -0.0226
24483W        W31083   0.555   2.434   7.323 -0.1484 -0.1847 -0.0795
24484W        W31084   7.558   6.310   3.311  0.2505  0.0680 -0.1154
24485W        W31085  14.605   2.619   2.829  0.0304 -0.2793 -0.0330
24486W        W31086   1.210   4.884   9.449 -0.1110 -0.1489 -0.2052
24487W        W31087   2.701   6.884   7.121 -0.0382 -0.2973  0.0934
24488W        W31088  29.313   7.466  15.523  0.1043 -0.0896  0.0682
24489W        W31089   2.625   6.163  21.263  0.0821 -0.2951 -0.0899
24490W        W31090  21.445   4.126  19.388  0.2123 -0.1851 -0.0386
24491W        W31091  22.527   0.913   2.651  0.1503  0.3175  0.0378
24492W        W31092   1.649   5.666  17.854 -0.0313 -0.1695  0.0244
24493W        W31093  27.007   4.297   2.400  0.0410 -0.1352  0.0389
24494W        W31094  20.817   1.454   5.954  0.2256  0.1077  0.4272
24495W        W31095   7.530   6.659  10.866 -0.1254 -0.0354 -0.0249
24496W        W31096   3.983   4.603   8.349 -0.0719 -0.0411 -0.1960
24497W        W31097   7.885   6.904  19.764 -0.2507  0.1367 -0.1484
24498W        W31098  20.432   3.071  22.201 -0.0508  0.0257  0.0048
24499W        W31099   8.697   5.177  21.428  0.0892 -0.0120 -0.0912
24500W        W31100   5.547   3.674  23.440 -0.4447 -0.1969  0.1352
24501W        W31101  23.152   4.579   1.052  0.0707  0.0824  0.1039
24502W        W31102  13.807   0.722  19.588  0.0776 -0.3056 -0.2655
24503W        W31103  21.505   5.905  19.592 -0.0445 -0.0390  0.1893
24504W        W31104  25.905   3.019  17.429 -0.0151 -0.1569  0.2231
24505W        W31105  29.040   6.025  16.840 -0.2310  0.3661 -0.1416
24506W        W31106  18.328   5.049  16.018  0.1544  0.1046 -0.0958
24507W        W31107  30.495   4.360  22.483  0.1164 -0.1608 -0.1006
24508W        W31108   1.932   3.679   8.673  0.1921 -0.5067 -0.1611
24509W        W31109  21.525   3.435  11.349  0.1985 -0.0976 -0.0097
24510W        W31110   2.086   6.114   3.826  0.4216 -0.0836  0.3485
24511W        W31111  17.377   0.080  18.922 -0.1019  0.0158  0.0316
24512W        W31112  19.806   3.447  24.948 -0.0308 -0.0520 -0.1258
24513W        W31113   7.241   7.309  21.501 -0.1973  0.1882  0.0297
24514W        W31114  25.689   2.071  24.979 -0.1020  0.0207 -0.1627
24515W        W31115  28.550   0.235  19.098 -0.0413 -0.2082  0.0939
24516W        W31116  27.773   6.744  24.129 -0.1003  0.0305 -0.0138
24517W        W31117  25.004   1.748   2.010 -0.2784  0.2524  0.1112
24518W        W31118  10.385   6.510  24.267  0.1429 -0.0837  0.1509
24519W        W31119  10.506   7.712   5.764 -0.1679  0.2965 -0.0281
24520W        W31120  14.238   3.633   0.867  0.0282 -0.1003  0.4578
24521W        W31121  10.796   3.149  24.951  0.1930  0.0964 -0.0460
24522W        W31122   6.846   4.231   7.763  0.0280  0.0025 -0.0194
24523W        W31123  27.485   1.531   2.073 -0.2717 -0.1521 -0.0887
24524W        W31124  12.779   5.227  18.356  0.2692 -0.2772 -0.0677
24525W        W31125  11.588   1.319   4.897 -0.1241  0.1698 -0.1703
24526W        W31126  20.979   3.526  18.637 -0.1967 -0.0567 -0.1979
24527W        W31127   3.983   1.442   9.753  0.0907 -0.2526  0.0252
24528W        W31128  12.379   1.239   0.920 -0.0695  0.0089  0.0452
24529W        W31129   9.395   2.359  22.420  0.1145 -0.0199 -0.0577
24530W        W31130   9.590   4.147  23.777  0.3579  0.3968  0.0021
24531W        W31131   6.998   3.103   9.181  0.1933  0.0944 -0.0228
24532W        W31132   6.102   1.720  23.652 -0.1573  0.1637 -0.0756
24533W        W31133  22.464   4.733  17.805  0.1234  0.1105 -0.1557
24534W        W31134   5.242   1.355  15.039 -0.0232  0.0035  0.3279
24535W        W31135   3.460   4.298  15.723  0.2853 -0.2128  0.2954
24536W        W31136  17.169   6.852   0.085 -0.0841  0.0917  0.1150
24537W        W31137  28.390   2.491  25.642 -0.0402 -0.0173  0.0595
24538W        W31138  27.129   3.275   8.788 -0.2011  0.1751 -0.1551
24539W        W31139  20.732   1.143   5.154  0.0087 -0.1805 -0.1778
24540W        W31140  25.718   2.844  16.495 -0.2518  0.0255 -0.2526
24541W        W31141  12.727   5.769  18.932 -0.1670 -0.1667 -0.1909
24542W        W31142   1.238   3.289  24.291 -0.0463 -0.0493  0.0266
24543W        W31143  13.774   4.021  23.685  0.0915 -0.2533 -0.1091
24544W        W31144   0.053   3.487  21.964 -0.0465  0.1147 -0.1503
24545W        W31145  23.101   6.800  23.118 -0.0334 -0.4746  0.1291
24546W        W31146  17.866   5.644  18.046  0.1008  0.0036  0.2134
24547W        W31147   1.587   6.091   3.684 -0.0405 -0.1164 -0.1742
24548W        W31148  23.219   1.238   2.168  0.0129 -0.0852  0.1627
24549W        W31149   0.194   4.856   2.010  0.0816  0.2038  0.0440
24550W        W31150   3.233   3.376  15.251 -0.0618 -0.1607 -0.3242
24551W        W31151  13.586   7.642  23.542  0.0453 -0.1694 -0.1806
24552W        W31152  11.825   3.888  19.361 -0.0198 -0.3001  0.3150
24553W        W31153  28.200   7.116  21.315 -0.0202 -0.0352 -0.0624
24554W        W31154  18.557   1.136  16.444  0.4056  0.1156 -0.1812
24555W        W31155  11.704   2.351   1.266  0.0931  0.0720  0.1415
24556W        W31156   8.779   1.208  21.676 -0.1618 -0.0534 -0.1401
24557W        W31157  21.123   7.512   0.487  0.2249  0.0049  0.3162
24558W        W31158  29.280   5.256  23.380  0.3512 -0.1865 -0.0581
24559W        W31159  13.214   6.900   8.701 -0.0466  0.1156  0.0143
24560W        W31160   6.231   6.915  18.167 -0.2509  0.0384 -0.0790
24561W        W31161   8.276   1.393  22.429  0.2266  0.0524 -0.0072
24562W        W31162  22.695   1.465   7.074  0.0728  0.2869 -0.1178
24563W        W31163   0.733   6.697  16.825  0.0435 -0.0294 -0.0475
24564W        W31164  13.625   2.145  19.209  0.2693 -0.1023  0.0409
24565W        W31165  29.275   7.848   3.810  0.0713 -0.1455  0.1802
24566W        W31166  14.830   5.611  25.008  0.2976  0.1987  0.0445
24567W        W31167  26.036   5.842   4.708  0.1168 -0.1018  0.1475
24568W        W31168   3.858   1.176  19.021  0.0459 -0.1093  0.2884
24569W        W31169  24.836   2.318  21.174 -0.1536 -0.0072  0.0417
24570W        W31170  11.043   1.830   8.145  0.1060 -0.3788 -0.2665
24571W        W31171  29.407   4.239  23.884 -0.2319 -0.0227 -0.0791
24572W        W31172   5.642   4.428  10.106  0.1192 -0.2234 -0.1639
24573W        W31173   7.122   6.528  18.059 -0.2370 -0.2326 -0.1502
24574W        W31174   3.290   0.901   6.294 -0.3587  0.2753  0.0342
24575W        W31175   1.306   2.547   9.181 -0.0670  0.3024  0.0256
24576W        W31176  21.128   6.039  20.566  0.1321  0.0392 -0.2681
24577W        W31177   3.646   1.200   6.550  0.1575  0.1535 -0.0550
24578W        W31178  23.336   5.058   9.865 -0.0157  0.0920  0.1931
24579W        W31179   7.882   1.724  21.067  0.0972  0.0214  0.0353
24580W        W31180   3.115   5.583  16.859 -0.0773 -0.0292  0.1259
24581W        W31181  28.342   5.847   6.743  0.2481 -0.2389 -0.0433
24582W        W31182  14.346   3.695   5.635  0.2528 -0.1235 -0.2191
24583W        W31183  18.046   2.349   2.885  0.0939  0.2977  0.2414
24584W        W31184   0.011   4.084  18.126  0.2048 -0.0045  0.0665
24585W        W31185   4.344   0.317   0.610  0.4582 -0.1315 -0.2275
24586W        W31186  25.900   3.914   5.758 -0.1299 -0.1456 -0.0112
24587W        W31187   4.086   7.327  18.995  0.0515 -0.0672 -0.0209
24588W        W31188  15.571   2.904  17.028 -0.0228  0.2282  0.3266
24589W        W31189  18.468   4.371  22.636 -0.1579  0.2453 -0.1022
24590W        W31190  15.767   6.863  21.401 -0.1731 -0.2098 -0.0959
24591W        W31191   8.807   7.725  18.349  0.3616 -0.3368 -0.2029
24592W        W31192  19.032   4.808   5.324  0.1033 -0.0110  0.1762
24593W        W31193  17.392   3.063   5.512 -0.0068  0.1578 -0.1051
24594W        W31194  20.258   2.384  19.037 -0.0463  0.0465 -0.2952
24595W        W31195  21.844   6.763  25.634  0.0715  0.2522 -0.3781
24596W        W31196  25.957   1.966  18.477 -0.1595  0.2769  0.2907
24597W        W31197  18.202   0.270  10.210  0.0929 -0.0098 -0.0698
24598W        W31198  21.597   1.187   5.280  0.0367  0.1105  0.2412
24599W        W31199   5.946   6.568  23.667 -0.0308  0.1926 -0.0975
24600W        W31200  23.884   0.299   7.492  0.1522 -0.0184  0.1105
24601W        W31201  16.829   7.380  18.133  0.1830  0.1569 -0.1749
24602W        W31202   5.986   3.739   0.899  0.3036  0.5542 -0.2142
24603W        W31203   7.204   1.484   9.868  0.1052 -0.1371 -0.0878
24604W        W31204  15.089   0.292   9.209 -0.0222 -0.0990  0.0223
24605W        W31205  25.103   6.138  10.256 -0.1394 -0.4440 -0.1484
24606W        W31206  18.433   2.560  23.909  0.0203  0.2043  0.1608
24607W        W31207  21.890   6.155  10.002 -0.2172 -0.0075  0.1047
24608W        W31208  19.554   5.177  24.295 -0.0931  0.0599 -0.1793
24609W        W31209  11.916   1.047   3.053 -0.1546 -0.2712 -0.0503
24610W        W31210  17.045   6.953  20.763 -0.1126 -0.1830 -0.2233
24611W        W31211  15.329   4.919  25.279 -0.0309 -0.2283 -0.0561
24612W        W31212  25.449   6.060  10.679  0.0154 -0.0173 -0.1630
24613W        W31213   5.044   4.059   7.689  0.0334 -0.0296 -0.2419
24614W        W31214  10.373   5.911   5.894 -0.1404 -0.0960  0.1289
24615W        W31215  29.801   4.282   3.122  0.0547  0.3834 -0.1939
24616W        W31216  20.050   7.660   9.849 -0.1368 -0.3222 -0.2247
24617W        W31217   3.366   3.863   1.989 -0.0655 -0.1222  0.2118
24618W        W31218  27.300   0.173  24.063  0.0497 -0.0632 -0.0734
24619W        W31219  12.724   4.056   3.304  0.2172  0.0955 -0.1922
24620W        W31220  14.864   2.955   8.919  0.1049 -0.3120 -0.4559
24621W        W31221  14.835   7.368  11.072  0.0386 -0.1598  0.2451
24622W        W31222  28.021   6.466  16.413  0.0784 -0.0490 -0.0609
24623W        W31223  11.322   2.487  17.253  0.0316 -0.0888 -0.0796
24624W        W31224   6.773   4.467   4.489 -0.0124  0.0367  0.0007
24625W        W31225  24.961   3.183   5.451  0.2180  0.1439  0.1502
24626W        W31226  20.538   7.116   9.122 -0.0322 -0.2135 -0.1676
24627W        W31227  11.076   2.027   1.210  0.2164  0.0243 -0.0763
24628W        W31228   2.465   7.422  22.290  0.1789 -0.2507 -0.1549
24629W        W31229  22.749   0.074  17.114 -0.1429  0.2273 -0.0552
24630W        W31230  31.197   2.447   6.628  0.0329  0.0752 -0.1250
24631W        W31231  12.554   0.698  25.690  0.1450  0.0747  0.0735
24632W        W31232  10.364   2.364  17.348 -0.1455  0.1037  0.0298
24633W        W31233   3.591   5.283   8.748 -0.1137  0.0122 -0.1537
24634W        W31234  25.484   2.673  21.624  0.1449 -0.0120 -0.0278
24635W        W31235  19.527   0.114  19.693 -0.1341  0.0214 -0.1360
24636W        W31236   9.173   6.122  16.189  0.2042 -0.1645  0.1170
24637W        W31237   4.302   7.728  22.361 -0.0769  0.3457 -0.1157
24638W        W31238  16.862   7.276  18.649  0.4335  0.2118  0.1845
24639W        W31239  17.478   6.494  16.106 -0.1784  0.1511 -0.1770
24640W        W31240  21.934   4.897  16.527  0.0019 -0.2063  0.0626
24641W        W31241  30.215   3.460  16.808 -0.0400  0.1560  0.2576
24642W        W31242  16.783   6.070   3.648 -0.2768  0.0854 -0.2883
24643W        W31243  28.068   2.911  20.456 -0.2191  0.0470 -0.3428
24644W        W31244  12.176   3.290   2.979  0.1896  0.3149 -0.3508
24645W        W31245  26.278   2.053  21.972  0.2603  0.3293 -0.4874
24646W        W31246   8.739   4.933   2.474  0.0986 -0.1909  0.0765
24647W        W31247   4.781   7.523  20.965 -0.0578  0.3535  0.2382
24648W        W31248   0.411   0.722  22.535 -0.0783 -0.1960  0.1615
24649W        W31249   8.683   5.597  21.664  0.2196 -0.1121  0.1803
24650W        W31250  20.040   7.511   5.899 -0.0336 -0.0202  0.1118
24651W        W31251   5.358   5.609  18.580  0.2099  0.0651  0.2191
24652W        W31252  20.294   7.610  19.895  0.1778 -0.1253 -0.1605
24653W        W31253  16.819   4.356   2.664 -0.2035  0.0613  0.1238
24654W        W31254  27.128   4.763   5.080  0.0402 -0.1318  0.2287
24655W        W31255  27.916   3.504  16.683  0.0568  0.0038  0.0081
24656W        W31256  25.519   0.136   5.259  0.2679  0.0506 -0.1979
24657W        W31257  10.637   7.381  24.090  0.1246 -0.3187  0.2854
24658W        W31258   3.976   4.945  25.344  0.1057 -0.3080 -0.1810
24659W        W31259  20.068   3.235  25.823  0.0043  0.3346 -0.3652
24660W        W31260  25.641   6.028  22.597 -0.0486 -0.2980  0.0279
24661W        W31261  26.895   5.417   6.726 -0.1819  0.0384 -0.1212
24662W        W31262  11.371   5.059  22.193 -0.1037 -0.1067 -0.1165
24663W        W31263  10.858   5.893  11.431  0.1073  0.1862  0.3629
24664W        W31264  28.391   7.742  17.002  0.1580 -0.1885 -0.0083
24665W        W31265  24.332   3.262   4.705  0.0633  0.1469 -0.0717
24666W        W31266  12.244   1.359  19.894  0.1001  0.1566  0.0356
24667W        W31267  22.724   0.960   6.013  0.0651  0.1760  0.3067
24668W        W31268  25.693   5.187   1.734 -0.0723 -0.0011 -0.0651
24669W        W31269   3.963   1.155   3.578  0.1745 -0.0118  0.1127
24670W        W31270  30.707   1.840   1.052 -0.0136  0.1345  0.0560
24671W        W31271  27.456   3.331  20.534 -0.0982 -0.0736  0.0357
24672W        W31272  23.137   4.892  19.044  0.1963  0.0051  0.0099
24673W        W31273   5.940   4.031   4.751 -0.1934 -0.0777 -0.0510
24674W        W31274  30.040   6.892  21.738 -0.0894 -0.2159 -0.1703
24675W        W31275  27.328   0.730  23.895 -0.0561  0.0481  0.2832
24676W        W31276  17.306   1.345   3.236 -0.0508  0.0748 -0.5000
24677W        W31277  15.058   7.435   3.823  0.3582 -0.0395 -0.1056
24678W        W31278  21.883   6.216   6.663  0.0442 -0.1065  0.0308
24679W        W31279   2.500   6.116  10.326 -0.0233 -0.1686 -0.0848
24680W        W31280  10.494   6.997  23.580 -0.1029 -0.0362 -0.2307
24681W        W31281  12.155   5.775  23.955 -0.2405  0.5504 -0.1097
24682W        W31282  10.384   0.628  17.553  0.0348  0.0765 -0.1399
24683W        W31283  22.557   2.959  15.360  0.1956 -0.2877 -0.0807
24684W        W31284  19.177   6.330   1.640 -0.2034 -0.0239  0.0106
24685W        W31285  11.737   2.862   1.850 -0.0384  0.0075 -0.1805
24686W        W31286   1.740   0.313   6.746 -0.0745 -0.4087  0.2773
24687W        W31287  28.889   7.818   0.814 -0.0187 -0.2632 -0.2068
24688W        W31288   5.208   3.659   3.209  0.0009 -0.2984 -0.2172
24689W        W31289  16.718   7.190   3.640 -0.0856 -0.1218  0.2197
24690W        W31290  24.777   1.482   0.907  0.0873 -0.1753 -0.1954
24691W        W31291  17.388   6.730   0.531  0.0705 -0.0629  0.1797
24692W        W31292  14.777   4.686   5.518 -0.1569 -0.2242  0.1927
24693W        W31293  21.703   4.343  24.431 -0.0864 -0.0319  0.0350
24694W        W31294   3.877   6.370   0.145  0.2022  0.0884 -0.0551
24695W        W31295  21.414   4.746   3.144 -0.0802 -0.0129 -0.1926
24696W        W31296  12.025   0.249   6.477  0.0666  0.0371  0.0528
24697W        W31297  24.118   7.839   2.964  0.0455  0.2749 -0.1170
24698W        W31298  24.913   5.910  18.328  0.0128  0.0304 -0.2722
24699W        W31299  28.039   5.472  20.760 -0.1776  0.1419  0.1361
24700W        W31300  25.676   1.783  25.373 -0.1730  0.2213  0.2862
24701W        W31301  18.037   5.803   9.294  0.0270  0.0010  0.1207
24702W        W31302  25.339   7.367  21.351 -0.1209 -0.0632 -0.0066
24703W        W31303   3.046   2.363  15.590  0.0135 -0.2635 -0.1089
24704W        W31304  23.047   5.575   5.995 -0.0140 -0.0842  0.0520
24705W        W31305  14.714   2.403  17.362  0.1375  0.0025 -0.2690
24706W        W31306  14.243   1.248   3.627  0.2001 -0.1298  0.0341
24707W        W31307  30.875   2.429  15.471 -0.1732 -0.1218 -0.4472
24708W        W31308   6.168   2.062  21.169  0.2983 -0.3716  0.1321
24709W        W31309  30.876   5.044   5.495 -0.2230 -0.1534 -0.3929
24710W        W31310  29.146   6.225  15.848 -0.2366 -0.1025 -0.0473
24711W        W31311  16.521   1.632  23.746  0.1903 -0.2414 -0.0008
24712W        W31312  24.468   4.393  20.256 -0.0401 -0.1343 -0.0227
24713W        W31313   2.650   3.060  15.090 -0.1007  0.1895 -0.4068
24714W        W31314   2.886   6.845   0.762  0.3616 -0.0355  0.0575
24715W        W31315  12.117   0.421   5.033  0.0723 -0.3481  0.0940
24716W        W31316  16.242   7.443   9.189 -0.0014 -0.1027 -0.0809
24717W        W31317  28.077   4.064   9.452 -0.0476  0.3500  0.0727
24718W        W31318  27.028   0.802   4.010 -0.2961 -0.2101  0.1901
24719W        W31319  14.739   0.612  14.997  0.0497 -0.1357 -0.0131
24720W        W31320  26.263   5.084   8.405 -0.1924  0.0093 -0.2244
24721W        W31321   9.908   5.199   1.424  0.2141  0.0773 -0.1120
24722W        W31322  30.016   7.569  10.094  0.0411 -0.1751  0.1433
24723W        W31323   1.765   4.526  18.969  0.0796  0.2092 -0.1181
24724W        W31324   4.247   7.786   8.537  0.0007 -0.0064 -0.2596
24725W        W31325  25.332   2.052   6.500 -0.1307 -0.1524 -0.0407
24726W        W31326  24.597   2.513  10.558  0.2026  0.2597  0.2433
24727W        W31327  16.344   4.789   6.636 -0.3639 -0.1864 -0.0802
24728W        W31328  26.371   6.840  17.470 -0.3533  0.0489  0.2904
24729W        W31329   9.881   1.077   3.775 -0.0625 -0.0160  0.0027
24730W        W31330  12.911   0.102  25.976  0.1255 -0.4404 -0.1493
24731W        W31331   2.636   6.754  25.112 -0.1097  0.1462 -0.1897
24732W        W31332  17.643   2.246  17.275  0.4022 -0.0136 -0.0921
24733W        W31333  13.883   6.952   3.668  0.2242  0.0737  0.0674
24734W        W31334   3.148   6.572   1.797  0.3056 -0.1972  0.0800
24735W        W31335  21.671   1.142   8.594 -0.1354 -0.0952 -0.2047
24736W        W31336  11.040   0.673   5.620  0.1504 -0.1960  0.2594
24737W        W31337   5.367   3.052  10.162  0.0479  0.2295  0.1703
24738W        W31338   2.348   0.526  24.484 -0.0657 -0.2586  0.0174
24739W        W31339   4.094   4.347  23.072  0.3451 -0.3045  0.0156
24740W        W31340   1.381   7.321  25.184 -0.0578  0.0343 -0.0079
24741W        W31341   3.323   1.952   0.817 -0.0481 -0.0104  0.3528
24742W        W31342  23.610   4.236  10.955 -0.1042  0.4977 -0.2013
24743W        W31343   3.281   4.321  15.001  0.2667  0.2448 -0.0137
24744W        W31344   9.278   5.825  21.604 -0.1271  0.0599 -0.0963
24745W        W31345   6.557   4.443  17.315  0.0840  0.0669  0.1741
24746W        W31346  22.609   2.781   2.185 -0.0577 -0.0242 -0.1579
24747W        W31347  16.691   0.542  23.106 -0.1724  0.0184 -0.3179
24748W        W31348  10.286   0.817   2.761  0.2364 -0.0400 -0.1301
24749W        W31349  23.087   5.666   7.989  0.0473 -0.1466 -0.1325
24750W        W31350  26.212   7.338  17.374 -0.2630 -0.0589  0.1295
24751W        W31351  17.149   0.864  17.060  0.6773  0.0373  0.1574
24752W        W31352   0.153   1.941  17.227  0.3644  0.0622 -0.0929
24753W        W31353  17.162   7.294  17.649 -0.2521 -0.1783  0.1099
24754W        W31354   8.460   7.100   5.243  0.1159 -0.2615  0.1781
24755W        W31355  12.013   2.547   4.820 -0.2407 -0.1538 -0.0865
24756W        W31356  21.865   2.831  16.161 -0.0280  0.1883 -0.3630
24757W        W31357  28.764   0.982   6.035  0.4050 -0.1693  0.1512
24758W        W31358   6.709   0.258   6.743  0.2831 -0.0057  0.1511
24759W        W31359  24.152   7.141  15.207  0.0562  0.0836 -0.2815
24760W        W31360  11.541   6.068  24.316  0.0352 -0.0943 -0.0078
24761W        W31361   9.600   2.541  10.537  0.1202  0.0183 -0.2041
24762W        W31362  29.071   6.401   0.081  0.3307 -0.0708 -0.1269
24763W        W31363   6.790   0.539  15.491 -0.3432 -0.1412 -0.1088
24764W        W31364   8.635   6.943  17.675 -0.0749 -0.0964  0.3783
24765W        W31365  12.898   0.643  20.640  0.3389 -0.2360  0.0690
24766W        W31366   8.329   5.240  10.211  0.0870  0.2053  0.0342
24767W        W31367  22.446   5.209  16.938  0.0947  0.1737 -0.4258
24768W        W31368   0.937   4.571  18.013 -0.0171 -0.1495  0.3028
24769W        W31369  18.192   5.391   9.012 -0.3132  0.1457  0.2015
24770W        W31370  20.480   0.371  22.281 -0.3039 -0.0773 -0.2171
24771W        W31371  20.481   4.651  25.141 -0.1028  0.1325 -0.3875
24772W        W31372  11.646   2.662  18.711 -0.1889  0.0656  0.1228
24773W        W31373   9.817   4.210  20.295  0.2565  0.0101 -0.2595
24774W        W31374   8.499   6.002  20.284  0.0796 -0.1979  0.4368
24775W        W31375   0.953   7.329  21.586  0.0760  0.1604  0.1710
24776W        W31376  10.396   5.991  20.338  0.0481 -0.0011  0.0594
24777W        W31377  12.142   2.144  23.774  0.1117 -0.1366  0.2847
24778W        W31378   7.668   5.424   7.808 -0.1307  0.1530 -0.0013
24779W        W31379   1.310   0.324  19.833  0.0182  0.2264  0.0434
24780W        W31380  22.837   5.535  24.180  0.1515  0.0056 -0.0480
24781W        W31381   6.419   7.676   5.471 -0.0563 -0.2301  0.0742
24782W        W31382   0.184   0.151   0.139 -0.1406 -0.0721 -0.1794
24783W        W31383  25.988   2.493  21.640 -0.1857 -0.2227 -0.1297
24784W        W31384  23.112   6.438  17.706 -0.0572 -0.1155 -0.0411
24785W        W31385  10.844   3.941   5.981 -0.1790  0.0679 -0.0502
24786W        W31386  31.209   3.836   5.280  0.0428 -0.3080  0.0645
24787W        W31387  16.238   4.064  19.399 -0.0367 -0.0791  0.1535
24788W        W31388   6.507   0.878   2.139  0.0749 -0.2953 -0.0325
24789W        W31389  20.959   1.131   9.296  0.0349 -0.1143 -0.1344
24790W        W31390  15.159   5.800   0.386 -0.2484  0.1697 -0.2946
24791W        W31391  20.352   3.468   7.275 -0.1938 -0.1367 -0.1727
24792W        W31392  15.595   7.565  16.198 -0.4746  0.0771 -0.0272
24793W        W31393   1.649   1.884   9.774 -0.0178 -0.0429 -0.0527
24794W        W31394  10.901   0.671   0.255  0.0124 -0.0934 -0.0751
24795W        W31395  21.631   7.555  16.743 -0.0833  0.0599 -0.1543
24796W        W31396   6.332   5.921   3.150  0.1437 -0.0030 -0.1199
24797W        W31397   7.601   3.918  20.858 -0.0795 -0.1450  0.2646
24798W        W31398  16.061   1.622   3.592 -0.1822 -0.1820  0.1952
24799W        W31399  20.988   2.781   2.078 -0.4905  0.1431 -0.5149
24800W        W31400   1.517   5.736  22.647 -0.0809  0.1421 -0.3258
24801W        W31401   3.992   2.361   2.044 -0.0322 -0.0011 -0.2193
24802W        W31402  12.037   6.730  23.011  0.1351  0.4279 -0.0136
24803W        W31403  31.182   0.570   9.243  0.1400 -0.2412 -0.0364
24804W        W31404   6.734   3.299  25.738  0.0419  0.1593 -0.0308
24805W        W31405  12.960   2.237  15.995 -0.2005  0.1543 -0.1682
24806W        W31406   8.214   2.754  10.772  0.2353  0.2254  0.0992
24807W        W31407  17.690   1.040   5.170  0.0982  0.4015 -0.0262
24808W        W31408  28.018   3.638  19.776 -0.0880  0.1760  0.0182
24809W        W31409   3.864   0.670   4.263 -0.2770 -0.1330 -0.0896
24810W        W31410  13.305   4.749   5.937 -0.3366 -0.0802  0.2644
24811W        W31411  17.603   6.638  22.883 -0.1107 -0.1531  0.0788
24812W        W31412  14.620   3.183   0.736 -0.0001 -0.0315 -0.1661
24813W        W31413  26.431   4.417   6.354  0.2096 -0.2497  0.1646
24814W        W31414  26.422   4.544  24.309  0.1601  0.3096 -0.1799
24815W        W31415  26.074   0.579   1.603 -0.0247  0.1281 -0.2269
24816W        W31416   6.794   1.006   6.240 -0.0991 -0.0280 -0.1385
24817W        W31417   3.223   3.751  23.357  0.2028  0.0846  0.2501
24818W        W31418   7.411   4.733  23.993 -0.0538 -0.1866 -0.2973
24819W        W31419   1.854   4.791  23.891 -0.1564 -0.0107  0.1045
24820W        W31420  17.967   5.547   3.752  0.0503  0.1593  0.3257
24821W        W31421  26.268   5.539  15.199 -0.1921 -0.1792  0.0828
24822W        W31422  21.442   3.625  25.402  0.1481 -0.0643 -0.0784
24823W        W31423  27.572   3.612  16.285 -0.0332 -0.1416 -0.0409
24824W        W31424  24.931   1.475   3.994 -0.1511 -0.0590 -0.0030
24825W        W31425  25.785   4.953  21.867 -0.0766 -0.1669 -0.1204
24826W        W31426   8.243   7.684  14.834  0.0850  0.3790  0.0466
24827W        W31427  21.957   5.620  19.526 -0.2703  0.0502  0.1533
24828W        W31428  20.262   4.876  10.542 -0.1870 -0.3450 -0.0516
24829W        W31429  14.666   4.588  18.452  0.0644  0.2132 -0.1210
24830W        W31430   6.476   5.812  25.651 -0.1185  0.0366  0.1509
24831W        W31431  13.629   3.022  25.202  0.1958  0.0185 -0.0821
24832W        W31432   5.953   7.279   5.902  0.0815  0.3023 -0.0671
24833W        W31433  18.621   0.665  10.489 -0.1093 -0.2671  0.0832
24834W        W31434  22.868   6.933   8.100 -0.0174 -0.1386  0.1679
24835W        W31435  17.454   0.607   0.955 -0.1079  0.0268 -0.2028
24836W        W31436  23.289   2.543  16.355 -0.2716 -0.1759 -0.0555
24837W        W31437  27.696   2.918  25.671  0.1252  0.1144 -0.4059
24838W        W31438   3.286   1.564  22.489  0.2894  0.0053  0.0667
24839W        W31439  17.373   5.303  15.906 -0.0016 -0.1112 -0.1123
24840W        W31440  10.790   0.848  23.248 -0.0281  0.3603 -0.1601
24841W        W31441   7.563   5.607   2.618  0.0373 -0.2635 -0.0841
24842W        W31442  13.284   0.763  22.743  0.2061  0.0983 -0.0564
24843W        W31443   1.330   0.414   1.984  0.2328  0.0944  0.2628
24844W        W31444   1.865   5.419  22.451  0.0649  0.1684 -0.1505
24845W        W31445  26.082   7.163  19.792  0.0126  0.1166  0.2470
24846W        W31446  15.759   3.740  17.545  0.2360 -0.2563  0.1275
24847W        W31447  25.097   2.265  21.651 -0.1144 -0.2082  0.1179
24848W        W31448  19.632   5.166  22.474 -0.0843  0.0214 -0.1075
24849W        W31449  24.355   2.720  10.081  0.0124 -0.0650  0.1029
24850W        W31450  28.837   6.834  16.785  0.1236  0.0475 -0.3852
24851W        W31451   6.582   4.841  21.090  0.1348 -0.1495 -0.2777
24852W        W31452  22.147   0.110  24.585 -0.2041 -0.4991 -0.2948
24853W        W31453  20.148   1.876   5.271 -0.2495 -0.2043 -0.3046
24854W        W31454  12.897   3.837   7.002  0.4437 -0.1770 -0.0103
24855W        W31455  26.075   2.442  18.534 -0.0565 -0.0557 -0.1635
24856W        W31456  12.824   0.203  21.347  0.3262  0.0557 -0.0319
24857W        W31457   2.880   7.606   4.341  0.0184  0.0598 -0.1029
24858W        W31458   0.031   5.979   1.236  0.0689 -0.0838  0.2837
24859W        W31459   1.009   2.193   5.979  0.3932 -0.2516  0.0988
24860W        W31460  29.357   1.412   1.152  0.2848  0.0495 -0.2196
24861W        W31461  13.950   7.785  19.235 -0.1100 -0.1291 -0.1161
24862W        W31462   3.456   6.740  15.619  0.2001 -0.1346 -0.0553
24863W        W31463   9.833   6.868   7.892 -0.1749 -0.1977  0.1998
24864W        W31464  17.150   6.616   3.614  0.1068 -0.2697 -0.0337
24865W        W31465  10.704   5.816  23.651 -0.1467 -0.1126 -0.1680
24866W        W31466  21.545   3.039  25.471 -0.1991 -0.1533  0.0937
24867W        W31467  12.369   4.295   9.078  0.0933 -0.2883  0.0720
24868W        W31468   6.941   2.792  16.519  0.0554 -0.2196  0.1555
24869W        W31469   7.057   1.645   2.961  0.2531 -0.0106  0.0419
24870W        W31470  12.744   5.707   0.049 -0.2702 -0.0851 -0.4588
24871W        W31471  25.822   1.902   4.350 -0.0153  0.0995  0.0082
24872W        W31472   4.076   6.088   4.073 -0.1803 -0.2548 -0.0344
24873W        W31473  24.259   4.317  10.685 -0.1797 -0.0193  0.2126
24874W        W31474  17.883   6.274   9.009  0.0200 -0.0396  0.2417
24875W        W31475  28.063   2.163   4.804 -0.2252  0.1563  0.1710
24876W        W31476   6.333   1.588   1.408 -0.0998 -0.0410  0.1669
24877W        W31477  20.585   1.877   1.152  0.1729  0.1765 -0.0391
24878W        W31478  17.465   6.951  11.025 -0.1527  0.1686 -0.1901
24879W        W31479  12.585   6.086   5.231 -0.1481 -0.2348 -0.3288
24880W        W31480  11.135   6.419  19.201  0.0383 -0.0482  0.2476
24881W        W31481  23.362   4.194  18.620  0.2427  0.1539  0.0928
24882W        W31482   3.087   7.004  19.887 -0.0906  0.2111  0.1355
24883W        W31483  10.780   5.870  24.702 -0.2835 -0.2393 -0.2104
24884W        W31484  14.423   4.880   3.001  0.0615 -0.0616 -0.0728
24885W        W31485  10.240   6.692   8.302 -0.3021 -0.0912 -0.2004
24886W        W31486  18.006   1.011   0.493  0.0130 -0.0085  0.1575
24887W        W31487  19.357   7.386  21.410  0.0694 -0.0926  0.1357
24888W        W31488  13.729   4.302  19.606 -0.1227  0.4200  0.0655
24889W        W31489   5.663   4.402   2.097  0.1055 -0.0691 -0.2318
24890W        W31490   8.232   1.212  21.312  0.1836  0.0972 -0.1815
24891W        W31491   6.018   0.189  25.113  0.0589  0.1132  0.4275
24892W        W31492   8.450   1.806  22.132 -0.0657 -0.0457 -0.3331
24893W        W31493  19.970   0.127   8.997 -0.0379 -0.0003  0.0359
24894W        W31494  10.175   4.599  20.239  0.1314  0.2476  0.5082
24895W        W31495   9.614   5.096  17.836  0.1163  0.2112 -0.2432
24896W        W31496   7.888   2.622   2.898 -0.0619  0.2077 -0.0766
24897W        W31497  22.482   7.763  17.631 -0.0889 -0.0911  0.1306
24898W        W31498   4.856   7.024  23.334 -0.3274  0.1920  0.3309
24899W        W31499  15.782   6.749  16.393  0.0815  0.2138  0.2160
24900W        W31500  30.116   2.131  17.329  0.1249 -0.0057 -0.3015
24901W        W31501  21.194   4.100   1.733  0.0103 -0.0696 -0.1301
24902W        W31502   1.932   7.551  18.727 -0.1291 -0.1637 -0.0687
24903W        W31503  25.031   2.361  10.707 -0.1323  0.0924  0.1018
24904W        W31504   0.967   5.799  18.267 -0.0085 -0.0077  0.4377
24905W        W31505  19.465   1.283  19.173 -0.2381  0.2020 -0.0942
24906W        W31506  20.911   3.333   6.683  0.0486 -0.0173 -0.0298
24907W        W31507  15.368   5.543   7.986  0.0009  0.1829 -0.1595
24908W        W31508   4.337   6.003  10.070 -0.1124 -0.2087  0.0317
24909W        W31509   0.328   6.366   2.584  0.2165  0.0226 -0.1396
24910W        W31510  14.680   5.813  23.559  0.1072 -0.2684  0.0309
24911W        W31511  29.375   1.215  11.109 -0.1828  0.2050  0.5032
24912W        W31512  20.543   0.898   0.619 -0.3274  0.3289 -0.0661
24913W        W31513  28.642   5.023   3.315  0.0764  0.0948  0.1588
24914W        W31514   8.612   3.164  14.815 -0.1077 -0.0496 -0.1083
24915W        W31515  11.882   2.054   2.838 -0.3612 -0.1646  0.1877
24916W        W31516  16.144   7.069  25.171  0.2700 -0.0960  0.1092
24917W        W31517   5.228   1.190   9.027 -0.0836 -0.0143  0.0824
24918W        W31518  17.111   7.048  23.199 -0.1005  0.0816  0.3511
24919W        W31519  17.127   4.421  10.728  0.1764  0.2292 -0.5191
24920W        W31520  23.821   5.359  20.090 -0.2269  0.3300  0.0487
24921W        W31521  27.418   2.611  23.287  0.1070  0.0930 -0.0543
24922W        W31522  30.677   4.929  18.684 -0.2388  0.0035 -0.1072
24923W        W31523  27.441   4.094   5.013  0.0494  0.0856  0.0473
24924W        W31524  21.068   5.020   0.876 -0.0498 -0.1241 -0.0362
24925W        W31525   5.579   4.166  25.288 -0.2000  0.0771 -0.0654
24926W        W31526  22.465   6.895   7.195 -0.0788 -0.0495  0.2078
24927W        W31527  28.719   1.482  18.949  0.2015 -0.0374 -0.1926
24928W        W31528   8.039   0.310  22.794 -0.0968 -0.1739  0.1578
24929W        W31529  17.082   2.068  19.478  0.1630 -0.4079  0.0691
24930W        W31530  27.365   2.100   3.647 -0.1173 -0.0868  0.2036
24931W        W31531  15.882   6.459   1.466  0.0051 -0.1871  0.3893
24932W        W31532  18.339   5.471  18.013  0.4088  0.0462 -0.3019
24933W        W31533  27.950   7.061  25.060  0.0385  0.0977 -0.0034
24934W        W31534   5.499   4.699  23.053  0.2474 -0.2786 -0.0078
24935W        W31535  16.317   2.583   3.115 -0.2302 -0.0116  0.0864
24936W        W31536   2.406   6.899  24.552 -0.0658 -0.0527 -0.1292
24937W        W31537  20.829   6.670   4.081  0.2404  0.1333 -0.1161
24938W        W31538  25.273   6.365   9.764 -0.1706  0.1963 -0.0306
24939W        W31539  13.706   0.178  17.162 -0.0979 -0.1101  0.1676
24940W        W31540  17.420   5.422  21.288  0.1129 -0.0912  0.0225
24941W        W31541  13.692   4.232  21.384 -0.1021 -0.1130  0.0755
24942W        W31542  22.862   2.351  22.310 -0.0968 -0.0150 -0.0661
24943W        W31543  25.432   4.504  18.451  0.0218 -0.0742  0.3950
24944W        W31544  17.252   4.062   8.132 -0.2533 -0.2519  0.3655
24945W        W31545  21.886   5.471   1.202 -0.0293  0.1317  0.2259
24946W        W31546   7.996   4.508   2.406 -0.1199 -0.0433 -0.1234
24947W        W31547  27.537   4.473   3.683  0.3263 -0.3861 -0.0761
24948W        W31548   6.399   6.989   3.364  0.2332  0.0234  0.0247
24949W        W31549   1.310   4.874   7.218 -0.0150 -0.0287 -0.2634
24950W        W31550   2.915   4.227  23.670 -0.2274 -0.0891  0.1408
24951W        W31551  15.534   6.757  23.494  0.2409  0.2071 -0.0493
24952W        W31552  21.202   3.350   0.256 -0.0074 -0.0965 -0.1399
24953W        W31553  14.536   2.489  21.888  0.2533 -0.2011  0.0367
24954W        W31554  23.404   6.435   2.602  0.1828  0.1213  0.0149
24955W        W31555   5.661   0.312   7.154  0.2770  0.1528 -0.1512
24956W        W31556  15.023   2.631  10.540 -0.1295 -0.1374  0.0132
24957W        W31557   1.275   3.444   6.788 -0.2164 -0.0079 -0.0375
24958W        W31558  23.469   2.191   0.296  0.1291 -0.0024  0.0135
24959W        W31559   7.036   3.492  19.341  0.1414 -0.1668 -0.2348
24960W        W31560  10.229   2.757   0.211  0.2178  0.0750  0.2614
24961W        W31561   8.358   1.444  25.495  0.2491 -0.0234 -0.1897
24962W        W31562  10.469   0.822   9.251 -0.0518 -0.3408  0.1912
24963W        W31563  14.397   0.573  21.248 -0.2799  0.0151 -0.0764
24964W        W31564  18.839   1.280  24.323  0.1330  0.0328  0.4691
24965W        W31565  26.962   0.569   7.980  0.1210  0.3113  0.0173
24966W        W31566   2.737   3.378  19.108  0.0791  0.1261 -0.2095
24967W        W31567   5.868   7.129  25.188 -0.4730 -0.0945 -0.1242
24968W        W31568  24.880   1.858  16.883 -0.0829  0.3313  0.2850
24969W        W31569   3.229   5.028   9.026 -0.0201  0.2207 -0.1798
24970W        W31570   1.849   4.214   7.756 -0.0172 -0.2194  0.2710
24971W        W31571  13.191   4.083  22.411  0.4044 -0.1110  0.0562
24972W        W31572  23.405   7.326   3.174 -0.1872  0.1422  0.2083
24973W        W31573  19.726   0.819   0.573  0.0080 -0.0020 -0.0020
24974W        W31574  10.584   4.226  23.321  0.1307 -0.1371  0.1416
24975W        W31575  22.954   2.972   6.511 -0.0673 -0.1717  0.3621
24976W        W31576  28.014   6.281  18.350 -0.1435  0.0062 -0.0909
24977W        W31577  12.700   6.509  20.647 -0.2823 -0.2042  0.1137
24978W        W31578  19.256   1.295  23.535 -0.2691 -0.2268  0.1294
24979W        W31579   5.713   4.978   8.803 -0.2047  0.0032  0.1749
24980W        W31580   5.878   2.279  24.046 -0.1162 -0.3533  0.1043
24981W        W31581  21.591   1.597  19.099  0.4172  0.1097  0.1160
24982W        W31582  29.325   5.319   6.609  0.0807 -0.0488  0.0775
24983W        W31583  12.049   7.390  25.570  0.2451 -0.0658 -0.0120
24984W        W31584  20.972   4.795  10.090  0.0013  0.1195  0.1137
24985W        W31585  16.330   7.012  25.625  0.3622 -0.1102  0.0081
24986W        W31586  17.622   0.696  16.404 -0.1083  0.0118 -0.1826
24987W        W31587  10.849   2.038   5.619 -0.0651  0.0293  0.0543
24988W        W31588  30.741   6.195  18.681  0.1386  0.0612  0.0324
24989W        W31589   4.671   0.618   7.861  0.2129 -0.2938 -0.0226
24990W        W31590   3.119   5.193  23.551 -0.1049  0.0163 -0.1150
24991W        W31591  30.794   4.656  20.895  0.1028  0.1352 -0.0588
24992W        W31592   1.390   2.117   1.773 -0.0722  0.1807 -0.1979
24993W        W31593   5.545   7.170  19.016 -0.0862 -0.1397 -0.2878
24994W        W31594  15.538   1.336  20.860 -0.1236 -0.0929 -0.1505
24995W        W31595   3.210   2.365  25.372  0.1796  0.0567  0.1442
24996W        W31596  12.010   0.983  23.267  0.5419 -0.1952 -0.0554
24997W        W31597  11.144   6.013  18.485  0.2124  0.1366 -0.0683
24998W        W31598  17.953   1.739  22.855 -0.0701 -0.1036  0.0427
24999W        W31599  28.504   4.345  25.601 -0.1394  0.2360 -0.1987
25000W        W31600  11.804   6.957   9.360  0.1579 -0.2785  0.2709
25001W        W31601  17.194   6.463  23.136 -0.2105  0.4024  0.2011
25002W        W31602   5.158   4.591  24.913 -0.0163 -0.0020  0.0740
25003W        W31603  20.216   6.073  19.574 -0.4497 -0.0456  0.0271
25004W        W31604  21.545   6.274   7.714 -0.0082  0.2984 -0.0067
25005W        W31605  26.472   4.063  23.596 -0.2048  0.0757 -0.3050
25006W        W31606   4.882   6.784   9.076  0.0677 -0.0860 -0.3391
25007W        W31607  27.702   0.332  16.118  0.0557  0.2981  0.1297
25008W        W31608  20.667   2.036  25.940 -0.0871 -0.2060  0.1812
25009W        W31609  18.517   6.439   8.271 -0.2423 -0.2003 -0.3126
25010W        W31610  18.994   5.460  24.452 -0.2283 -0.0263 -0.1219
25011W        W31611   1.308   2.052  23.568  0.1930 -0.2904 -0.0845
25012W        W31612  18.561   5.920   5.508  0.4642  0.0359 -0.2480
25013W        W31613   8.535   4.945  24.551 -0.0403 -0.0187 -0.1310
25014W        W31614   5.560   4.171  23.058  0.0216  0.1725 -0.0819
25015W        W31615   0.454   4.503  17.057  0.2164 -0.2409 -0.2643
25016W        W31616   2.862   1.138  23.851 -0.0509 -0.2220 -0.2922
25017W        W31617   3.322   6.926   2.078 -0.0355 -0.0901 -0.1394
25018W        W31618  16.319   0.618   5.998 -0.0866  0.0374  0.0015
25019W        W31619  21.723   4.309  21.057 -0.3330 -0.3371  0.0271
25020W        W31620  12.592   1.108  18.439  0.0828 -0.2571 -0.0280
25021W        W31621  18.298   1.005   4.153 -0.4644  0.1755  0.1127
25022W        W31622   8.365   6.983  23.824 -0.1179  0.0084  0.1072
25023W        W31623  14.425   2.369   6.015 -0.1117 -0.0096 -0.1400
25024W        W31624  10.491   2.476   2.800 -0.0436 -0.0052 -0.0429
25025W        W31625  11.086   5.561  17.848 -0.2389  0.0577 -0.2751
25026W        W31626  22.043   0.478   8.353 -0.0590  0.0582  0.1570
25027W        W31627  17.240   4.753   4.853  0.0770  0.0846  0.1586
25028W        W31628  22.000   3.702  17.697 -0.0996  0.1901 -0.0557
25029W        W31629  22.241   3.024   0.833  0.0627 -0.0443  0.0231
25030W        W31630  24.713   1.565  25.538 -0.3930 -0.1191  0.1557
25031W        W31631   3.680   0.739  16.391 -0.0413  0.1421  0.0257
25032W        W31632  11.497   3.821   3.540  0.0477 -0.0521  0.1147
25033W        W31633  22.601   1.077   8.803 -0.0949  0.0531  0.0921
25034W        W31634  26.982   2.186   2.680 -0.1561 -0.1671 -0.0043
25035W        W31635  13.496   2.668   5.334  0.1158  0.1288  0.0498
25036W        W31636  25.997   3.237   2.508  0.0008  0.1728  0.0718
25037W        W31637  29.024   4.669  23.977  0.2592 -0.0083  0.0337
25038W        W31638  15.376   7.338   4.896  0.0951 -0.0110 -0.0952
25039W        W31639  29.821   6.961   8.863  0.3943 -0.0534  0.0054
25040W        W31640  12.164   6.365  22.683 -0.0046  0.0401  0.0222
25041W        W31641  22.083   2.712  25.236  0.0059 -0.1494 -0.0339
25042W        W31642  19.318   4.949   0.990  0.0794 -0.0543 -0.1342
25043W        W31643   5.174   5.586   7.308 -0.0874 -0.1034 -0.0396
25044W        W31644   3.126   7.731  15.852 -0.0274 -0.0698  0.1428
25045W        W31645  29.222   0.375   6.890 -0.0836 -0.1075  0.0335
25046W        W31646  29.496   3.522   5.112  0.1289  0.2050  0.0023
25047W        W31647  13.100   4.966  10.071 -0.2622  0.1718 -0.0020
25048W        W31648   7.239   0.542   1.257 -0.0739 -0.1438  0.0782
25049W        W31649   4.054   4.718   4.252  0.1056  0.1082 -0.4564
25050W        W31650  16.017   5.641   3.458 -0.0461  0.4437  0.1193
25051W        W31651   8.336   3.945   2.115 -0.0771 -0.0059 -0.3535
25052W        W31652   6.943   0.501  14.994  0.0259 -0.0909  0.0014
25053W        W31653  24.069   2.338  16.747 -0.0672 -0.0382 -0.1812
25054W        W31654  27.761   2.199   6.935 -0.4062  0.2329  0.0768
25055W        W31655  25.499   4.958   7.759 -0.1750 -0.3117  0.0143
25056W        W31656   6.197   6.697   7.872  0.0295 -0.1318 -0.1791
25057W        W31657   2.054   7.569  10.863 -0.1044 -0.1646 -0.2094
25058W        W31658   2.955   4.146   6.738 -0.1233 -0.1917 -0.0384
25059W        W31659  23.007   6.936   1.206  0.2029  0.0485  0.1498
25060W        W31660   1.309   0.510   0.263 -0.1728  0.0134 -0.2618
25061W        W31661   9.789   7.022  18.749 -0.2835 -0.1361 -0.0158
25062W        W31662   9.870   0.270  22.914  0.3764 -0.0084 -0.2423
25063W        W31663  10.324   5.270  22.289 -0.1455 -0.1372 -0.1054
25064W        W31664  23.202   7.095  20.497 -0.3027 -0.4395 -0.0003
25065W        W31665  23.925   0.760   8.914 -0.0800  0.0568 -0.2439
25066W        W31666   2.460   3.170   9.574  0.0772  0.0502  0.0996
25067W        W31667  18.847   2.557   3.878  0.1941  0.0757 -0.0720
25068W        W31668  17.794   3.057   0.233  0.1800  0.0966 -0.2729
25069W        W31669  16.592   7.674  20.396  0.2077 -0.0919  0.1167
25070W        W31670   3.475   7.272  20.407 -0.2791 -0.0359 -0.1954
25071W        W31671  25.607   0.838  21.811 -0.0901 -0.0381 -0.1497
25072W        W31672  10.571   2.988   3.596 -0.0836 -0.0389 -0.0711
25073W        W31673   5.163   3.653  17.012 -0.2715 -0.0384  0.2456
25074W        W31674  10.329   3.851  23.342  0.2285  0.0912  0.0531
25075W        W31675  12.392   3.768  10.337 -0.2203 -0.1124 -0.1442
25076W        W31676   1.618   3.339  17.707 -0.0699 -0.3260 -0.3513
25077W        W31677  11.694   2.467  21.075 -0.2512  0.1540 -0.1570
25078W        W31678  17.770   4.011  18.276  0.1131  0.2866 -0.0759
25079W        W31679  21.066   6.191  16.081 -0.1575 -0.1623 -0.0352
25080W        W31680   3.253   1.881   8.278  0.1499  0.3813  0.0433
25081W        W31681  22.861   6.491   0.128 -0.1819  0.0044  0.1814
25082W        W31682  30.210   1.111   5.950 -0.1643 -0.3541  0.0434
25083W        W31683  20.087   0.460  21.073 -0.3445 -0.0690 -0.0187
25084W        W31684   9.761   7.256  21.982 -0.1574 -0.0361  0.0709
25085W        W31685   6.810   3.495  23.361 -0.1904 -0.0524 -0.1935
25086W        W31686  25.639   0.345  21.617 -0.1109 -0.0410  0.1474
25087W        W31687   3.365   2.417  18.616  0.3517 -0.1077  0.0685
25088W        W31688  13.164   2.526  22.443 -0.0032  0.2413 -0.0399
25089W        W31689  26.274   3.551   5.539 -0.2241  0.0397  0.1651
25090W        W31690  31.052   5.536   7.487 -0.3452 -0.0072 -0.2770
25091W        W31691   2.793   2.181   1.302  0.0215  0.2805  0.1021
25092W        W31692  21.484   6.887   3.289  0.3168 -0.1909  0.3108
25093W        W31693  23.543   5.456   1.603  0.1569  0.0496  0.0054
25094W        W31694  14.012   4.735   6.473  0.1553  0.2914  0.3306
25095W        W31695  26.707   0.612  22.966  0.1285  0.2014 -0.1131
25096W        W31696  20.278   4.659  22.482 -0.0596 -0.2466 -0.4889
25097W        W31697   0.316   6.471  16.556 -0.1382 -0.3160  0.1588
25098W        W31698  21.029   5.878  18.850 -0.0527 -0.1678  0.3537
25099W        W31699  26.251   3.941   2.807  0.1285  0.2123  0.1214
25100W        W31700   1.292   7.820  23.460  0.1287  0.1391 -0.3840
25101W        W31701  13.270   4.068  17.566 -0.3389  0.2432 -0.1801
25102W        W31702   4.782   2.070   0.206 -0.1904 -0.2360  0.0992
25103W        W31703  30.211   5.943  17.358  0.2117 -0.2686 -0.0463
25104W        W31704  15.183   3.642  10.820 -0.1699  0.0834 -0.1946
25105W        W31705   9.654   6.790  25.387 -0.3957 -0.0881  0.0406
25106W        W31706   2.284   3.321   5.626  0.3670  0.2081 -0.1087
25107W        W31707  15.574   4.997   3.261 -0.0121  0.3275 -0.0921
25108W        W31708   7.978   0.635   0.690 -0.0499 -0.0773  0.0206
25109W        W31709  28.226   7.712   1.798 -0.0518 -0.0716 -0.0546
25110W        W31710  13.156   6.726  20.576 -0.0451  0.3914  0.2618
25111W        W31711  14.336   0.625  22.549 -0.1313 -0.2525 -0.0234
25112W        W31712   7.626   2.574  21.189 -0.2048  0.0004  0.1137
25113W        W31713  27.240   6.094  23.042  0.1171  0.3179  0.1384
25114W        W31714   9.292   3.738  16.835  0.0891 -0.0077  0.0413
25115W        W31715  11.525   6.212  18.079 -0.1992  0.3067  0.0647
25116W        W31716   2.209   4.363  18.323  0.2593 -0.2547  0.0457
25117W        W31717  27.939   6.212   0.016  0.1427  0.0626  0.2359
25118W        W31718  20.693   4.425  17.936 -0.0754  0.3359  0.0349
25119W        W31719  19.068   0.364  16.666  0.3115 -0.2476  0.2279
25120W        W31720  10.042   2.140   8.549 -0.0704 -0.3143  0.2276
25121W        W31721   0.255   4.068   7.261 -0.2991  0.1617 -0.1427
25122W        W31722  24.582   2.061  20.868  0.0989  0.1466  0.0265
25123W        W31723   3.263   7.659  23.410  0.2784 -0.1813 -0.2250
25124W        W31724   3.017   2.456  22.614 -0.0637 -0.0773  0.1412
25125W        W31725  30.319   5.836  20.470 -0.0088  0.1323 -0.2293
25126W        W31726  13.833   4.898  20.167  0.2346  0.1361  0.0253
25127W        W31727   5.263   6.914   7.556 -0.0313 -0.2346  0.1933
25128W        W31728  21.673   2.430   7.460 -0.0394  0.0238 -0.1401
25129W        W31729  29.275   3.869  16.235 -0.4989 -0.1144  0.2451
25130W        W31730  26.297   5.717  19.739  0.0142  0.0480  0.0666
25131W        W31731  29.693   3.264  17.664 -0.0279  0.3038 -0.4440
25132W        W31732   0.672   0.273  22.685 -0.1434 -0.2440 -0.0915
25133W        W31733  18.064   2.874   1.134 -0.1737  0.0797 -0.1988
25134W        W31734  22.422   0.945   2.128 -0.0586  0.0566  0.0944
25135W        W31735  21.324   2.602   0.887  0.0985 -0.0824  0.0170
25136W        W31736   0.743   4.806  24.268  0.0727 -0.0641  0.0525
25137W        W31737   4.502   3.186   9.101 -0.3507 -0.0017  0.4312
25138W        W31738   5.410   5.744  16.546 -0.1472  0.0006 -0.4508
25139W        W31739  30.942   0.821  21.374  0.0094  0.0700  0.1231
25140W        W31740  28.959   7.366  10.575  0.1659  0.2390  0.1644
25141W        W31741  11.271   5.393   4.819  0.0077 -0.1060 -0.1812
25142W        W31742  29.892   2.400   4.547 -0.4234 -0.0525  0.1739
25143W        W31743  14.684   3.931   1.026  0.1601 -0.1113 -0.0899
25144W        W31744  20.795   0.043   4.588  0.3611 -0.0551  0.1849
25145W        W31745  30.176   0.593  22.530 -0.0368 -0.1340  0.1149
25146W        W31746   8.778   4.527   1.457  0.1154  0.0863  0.2472
25147W        W31747  20.948   5.283   8.994  0.0163  0.0438 -0.1176
25148W        W31748  27.524   3.695  10.012  0.1686 -0.0278 -0.0209
25149W        W31749   1.842   5.013  18.905 -0.2548  0.0568 -0.3331
25150W        W31750  27.828   4.001   9.058  0.0793 -0.1893  0.0873
25151W        W31751  20.263   7.821  20.878 -0.2131 -0.1513  0.4265
25152W        W31752   3.620   6.973   3.295  0.1239  0.0646  0.1815
25153W        W31753  16.287   1.122   6.208  0.2626 -0.3267  0.0207
25154W        W31754  13.776   5.430   5.928  0.2456 -0.1376 -0.0794
25155W        W31755  30.170   2.544   6.704  0.1982 -0.0112 -0.1060
25156W        W31756   6.154   5.620   7.151 -0.0516  0.1988 -0.2885
25157W        W31757  13.372   7.291  10.614  0.0100 -0.0186 -0.2479
25158W        W31758   6.580   2.430  19.736 -0.2951  0.0485  0.0107
25159W        W31759  23.229   0.546   4.519 -0.0994 -0.1304 -0.1811
25160W        W31760   7.059   7.771  21.460 -0.2467 -0.0299  0.1643
25161W        W31761  12.025   5.221  19.295  0.0210  0.0277  0.3818
25162W        W31762  11.850   3.997  25.426  0.0230  0.0807 -0.2334
25163W        W31763  16.864   1.830  16.679  0.3186 -0.0418 -0.1844
25164W        W31764   4.150   2.985  18.705  0.0903  0.1655  0.0692
25165W        W31765  17.249   5.032  22.380  0.0481  0.0370  0.0269
25166W        W31766  16.480   6.243   6.283  0.1736 -0.1489 -0.4979
25167W        W31767  16.597   0.927  21.761  0.0501  0.0288  0.2089
25168W        W31768   1.834   5.330  24.819 -0.0651 -0.0598 -0.2352
25169W        W31769  14.283   2.695   5.708  0.1012  0.0056 -0.0435
25170W        W31770  21.405   5.116  15.266 -0.0797  0.0856  0.0669
25171W        W31771  17.233   1.348  18.399 -0.1705  0.1954  0.3341
25172W        W31772  11.873   1.614  16.218  0.0393  0.0946 -0.0785
25173W        W31773  28.926   3.892  15.728 -0.0573 -0.0783  0.2031
25174W        W31774   9.275   3.557   2.021 -0.1571  0.3047  0.3484
25175W        W31775  20.383   1.989  17.959  0.0888 -0.2749  0.0574
25176W        W31776   4.605   5.149   5.896 -0.3744 -0.1415  0.0688
25177W        W31777  24.373   2.405   2.016  0.2274 -0.5206  0.0560
25178W        W31778   4.112   3.197  17.082 -0.1719 -0.0038  0.3017
25179W        W31779  14.285   4.420  24.498  0.3233 -0.3441  0.1818
25180W        W31780  12.643   3.433  20.370 -0.2213 -0.1300  0.1897
25181W        W31781  21.894   6.971  26.081  0.0323  0.0233 -0.0339
25182W        W31782   0.470   0.145   8.393 -0.1900 -0.0626  0.2305
25183W        W31783   3.684   3.944  17.025  0.0189 -0.2567 -0.2327
25184W        W31784  13.350   4.873   2.762  0.2175  0.3500  0.1928
25185W        W31785  18.240   1.193  19.091  0.0605  0.1677  0.0030
25186W        W31786  18.932   4.669   3.269  0.0440 -0.2463 -0.0106
25187W        W31787  30.742   7.767  21.631 -0.0559 -0.2804 -0.1828
25188W        W31788  12.371   7.331  22.297  0.2331 -0.1879  0.0440
25189W        W31789   7.447   6.626   6.289 -0.3847 -0.1843  0.1798
25190W        W31790  19.870   3.390  22.960  0.0894  0.0846 -0.0070
25191W        W31791  31.160   0.812  17.486  0.0091 -0.0700 -0.1458
25192W        W31792  30.245   2.594   7.262  0.2141 -0.4357 -0.1204
25193W        W31793  26.928   1.639  25.059 -0.2603  0.1916 -0.1060
25194W        W31794  23.278   2.617   6.367  0.3561  0.1082  0.0065
25195W        W31795  23.706   7.277   5.825 -0.1276  0.1082  0.0405
25196W        W31796  30.596   6.851   1.064  0.1050  0.2636  0.0042
25197W        W31797  23.652   0.468   7.064  0.0107  0.0407  0.0552
25198W        W31798  17.859   6.768   5.769  0.3679 -0.1017  0.5117
25199W        W31799  12.752   2.323  22.583 -0.1301  0.3090 -0.1934
25200W        W31800  17.905   5.949  25.888 -0.0113 -0.0266 -0.0045
25201W        W31801   3.564   6.040  19.825 -0.3064 -0.4399  0.0725
25202W        W31802  31.182   6.501   7.510 -0.1011  0.2555 -0.0874
25203W        W31803  13.105   4.580   4.749  0.1322 -0.1325 -0.0449
25204W        W31804  14.484   4.930   1.154  0.3867  0.1505  0.2371
25205W        W31805   8.978   6.427   4.304  0.0487 -0.1480 -0.1193
25206W        W31806   3.008   0.609   8.966  0.3940  0.1351  0.0148
25207W        W31807   4.585   3.100  19.101  0.0698 -0.0542 -0.2455
25208W        W31808  19.689   2.527  10.645 -0.4366 -0.1005 -0.3323
25209W        W31809   0.426   2.922  18.195 -0.0942  0.2052 -0.3177
25210W        W31810   8.174   0.041  21.848 -0.1069 -0.1827  0.1455
25211W        W31811  20.410   4.877   7.562  0.0187 -0.0492  0.1496
25212W        W31812   8.996   0.580   8.305  0.1386  0.1078 -0.2288
25213W        W31813  17.125   3.121   7.251 -0.5713 -0.1311  0.1917
25214W        W31814  10.598   0.852  21.925 -0.0440 -0.0250 -0.0085
25215W        W31815   1.300   1.850  14.647  0.2847 -0.1627 -0.1662
25216W        W31816  18.282   3.507   7.574  0.0124  0.1188  0.0116
25217W        W31817  10.911   7.092   5.488  0.1626 -0.0274  0.3080
25218W        W31818  18.223   4.099  17.390 -0.1012 -0.2267 -0.0018
25219W        W31819  18.382   2.657   3.686  0.2158 -0.1495 -0.0914
25220W        W31820  12.852   2.795   1.079  0.0107 -0.1409 -0.1906
25221W        W31821   4.989   1.971   1.916 -0.1975  0.2753  0.0824
25222W        W31822  20.960   7.807  25.236  0.1741 -0.0213 -0.1012
25223W        W31823  20.910   0.353  19.804 -0.0486 -0.4600  0.0289
25224W        W31824   4.830   3.890  17.902  0.1104 -0.0702  0.0366
25225W        W31825   3.391   3.242  22.083 -0.0674 -0.2646  0.0521
25226W        W31826   8.330   1.739  19.126 -0.1993 -0.0418 -0.0701
25227W        W31827  24.437   6.551  25.503  0.0496 -0.0616 -0.3546
25228W        W31828   6.915   5.966  25.431 -0.0918  0.0157  0.3562
25229W        W31829  23.708   3.063  19.854  0.1683 -0.3877 -0.1164
25230W        W31830   9.176   7.448   1.854  0.1936  0.0745  0.2974
25231W        W31831  27.985   1.117   1.269  0.1243 -0.0266  0.3405
25232W        W31832   4.107   3.839   4.578 -0.0527 -0.0686 -0.1187
25233W        W31833  17.058   0.868   1.025 -0.0363 -0.2448 -0.0063
25234W        W31834  10.127   5.227   2.208 -0.0214  0.0060  0.2067
25235W        W31835   1.650   5.441  20.129 -0.3954 -0.1830 -0.2040
25236W        W31836  21.186   5.700  18.416 -0.0569  0.2552  0.0211
25237W        W31837  21.658   4.005   0.147 -0.2590  0.1226  0.1674
25238W        W31838  24.818   0.916  25.122 -0.0312 -0.1097 -0.1720
25239W        W31839  27.160   4.117   7.140  0.1483 -0.0393 -0.1407
25240W        W31840   3.946   4.146  17.398  0.1861  0.0918 -0.3538
25241W        W31841  14.980   1.037  25.852  0.2057  0.4204 -0.0413
25242W        W31842  10.134   5.970   3.712  0.2157  0.1997 -0.1436
25243W        W31843  10.998   4.627  18.616 -0.1807  0.1097 -0.0491
25244W        W31844  17.217   1.497   0.415 -0.0946  0.2195  0.1349
25245W        W31845  12.129   6.498   3.712 -0.0193  0.1352  0.0365
25246W        W31846  26.779   4.477   1.963 -0.0471  0.0120 -0.1441
25247W        W31847  30.444   4.488  19.645  0.1031  0.1291  0.0481
25248W        W31848   1.149   2.664   5.192 -0.1334  0.1633 -0.2199
25249W        W31849   6.293   7.058   2.498  0.1675  0.0166  0.2538
25250W        W31850  10.798   2.083  22.414  0.1096 -0.1574 -0.1362
25251W        W31851  19.178   5.490   7.507 -0.1023 -0.0384 -0.0141
25252W        W31852  19.984   2.940   6.701  0.0334 -0.0555  0.2337
25253W        W31853  30.701   5.214   7.871 -0.1509 -0.3300  0.0854
25254W        W31854  20.589   1.691   9.437 -0.0668 -0.0766  0.2641
25255W        W31855  17.363   1.824   2.893  0.0487 -0.4767 -0.3070
25256W        W31856  25.956   2.534   5.586  0.0398 -0.2304 -0.2328
25257W        W31857  22.899   5.276  10.557  0.0101 -0.0823 -0.0383
25258W        W31858  24.012   4.566   4.002 -0.1124 -0.0464  0.0269
25259W        W31859   6.936   1.164   1.685  0.1591 -0.1095 -0.1610
25260W        W31860  21.349   4.507  17.314  0.0856  0.3436 -0.1362
25261W        W31861  25.461   3.676  25.889 -0.0481  0.0535 -0.4914
25262W        W31862   1.977   1.757   1.324 -0.0733 -0.0213 -0.0499
25263W        W31863   0.581   1.325   5.977  0.0106 -0.1313  0.2065
25264W        W31864  30.259   0.936  15.384  0.1569 -0.5305 -0.3108
25265W        W31865   0.249   0.657   3.388 -0.1696  0.1442  0.1468
25266W        W31866  27.533   2.115   0.940  0.2098  0.3719  0.0196
25267W        W31867  19.815   2.644   5.433  0.2288 -0.1337  0.2032
25268W        W31868  29.841   0.244   7.203  0.0524  0.0944 -0.1936
25269W        W31869  15.610   7.697   0.512 -0.1008  0.0175  0.0171
25270W        W31870  26.222   4.181  19.988  0.1637  0.0010 -0.0777
25271W        W31871  19.908   4.598  16.111  0.1885 -0.1606  0.2710
25272W        W31872  16.670   1.676  10.715  0.0239 -0.3021 -0.1103
25273W        W31873   0.861   5.994  18.833 -0.0449 -0.1141 -0.0987
25274W        W31874  27.657   4.584  23.855 -0.1532  0.1394 -0.1973
25275W        W31875  17.813   1.033   3.889 -0.0676 -0.0640  0.0306
25276W        W31876   4.408   0.607  20.260 -0.0885 -0.2889 -0.1258
25277W        W31877  22.988   2.537   2.511 -0.1317 -0.1333 -0.3061
25278W        W31878   7.756   0.202   4.024  0.0650 -0.0876  0.2364
25279W        W31879  26.065   0.673  21.879 -0.1253 -0.1725 -0.3456
25280W        W31880   6.656   6.815  17.432 -0.0319 -0.2004 -0.1450
25281W        W31881  15.668   7.499   4.310 -0.1671 -0.0462  0.1395
25282W        W31882  24.944   5.872  10.699  0.0469  0.0322  0.0874
25283W        W31883  20.260   1.263  23.754 -0.0364 -0.1155  0.2203
25284W        W31884  28.014   5.216   6.180  0.0921 -0.0304 -0.0428
25285W        W31885  26.849   7.018   5.770 -0.1496  0.3007 -0.2609
25286W        W31886  10.807   1.605  17.540 -0.1710  0.0441  0.0753
25287W        W31887  29.129   5.810   2.716 -0.2472 -0.0347 -0.4672
25288W        W31888  26.975   5.741   4.860 -0.1682  0.1755 -0.1177
25289W        W31889   2.249   3.887   3.195  0.0027  0.0102 -0.2147
25290W        W31890  22.361   2.988   9.588 -0.1787 -0.2285  0.0336
25291W        W31891   5.902   7.193   3.457  0.1884  0.1361  0.0548
25292W        W31892   4.087   0.024  18.290  0.0912  0.0345  0.0975
25293W        W31893  10.441   2.762  21.531 -0.0251 -0.0407  0.0207
25294W        W31894  30.830   6.023   3.383 -0.2131  0.1111 -0.1228
25295W        W31895   1.658   6.692   1.249 -0.2065  0.0130 -0.0741
25296W        W31896  22.261   7.559   8.098 -0.2366  0.1195 -0.1632
25297W        W31897   1.109   6.535   1.334  0.1825 -0.1385 -0.0437
25298W        W31898   3.848   1.251  25.240 -0.3141  0.1204  0.0498
25299W        W31899  28.648   3.347   2.892 -0.2632 -0.1292  0.4128
25300W        W31900   6.910   2.598   4.803 -0.0808  0.0906 -0.0135
25301W        W31901  17.192   1.767  23.064  0.3269 -0.1381  0.0570
25302W        W31902  11.132   0.257   6.430 -0.2110 -0.1714  0.0856
25303W        W31903   9.263   1.264  20.343  0.0913  0.0301 -0.1812
25304W        W31904   5.910   1.231   2.647  0.0807 -0.0867  0.0596
25305W        W31905  17.798   6.929  11.476  0.0631 -0.1282  0.0401
25306W        W31906  10.458   3.800   7.989 -0.2298  0.1045  0.0061
25307W        W31907  28.950   1.654   1.316  0.1670 -0.2117  0.1687
25308W        W31908  27.326   0.736  25.438 -0.2783  0.0706  0.1958
25309W        W31909  24.532   6.366   7.913 -0.1991  0.2100  0.0832
25310W        W31910   8.093   1.135  19.201 -0.0931 -0.2602 -0.2961
25311W        W31911  12.533   2.099   0.710 -0.0072  0.3765  0.1039
25312W        W31912   9.742   7.613   8.437  0.2675 -0.1480 -0.0104
25313W        W31913  23.744   7.119  17.603  0.0392 -0.1301  0.1073
25314W        W31914   9.235   7.616  23.712  0.1858  0.0243 -0.1964
25315W        W31915  31.258   3.875  24.529 -0.1331 -0.3599 -0.1749
25316W        W31916  29.248   4.805  15.833 -0.0679  0.0850  0.1373
25317W        W31917   9.318   6.322  20.056 -0.1089  0.2765 -0.0831
25318W        W31918   2.393   6.054  17.417 -0.1360  0.0185 -0.3334
25319W        W31919  28.157   7.516  10.466 -0.0104 -0.0594  0.1341
25320W        W31920  12.757   1.164  21.108  0.0258 -0.1331  0.1191
25321W        W31921   2.483   5.913   4.061  0.2071 -0.1932  0.1354
25322W        W31922  20.621   2.080  25.388 -0.0686 -0.1607  0.0963
25323W        W31923  25.898   4.608   7.918  0.0501  0.0595 -0.1497
25324W        W31924  24.153   7.575  16.019  0.1080 -0.1668 -0.3857
25325W        W31925  23.570   1.805   3.433 -0.3659 -0.0470 -0.0145
25326W        W31926  27.430   2.043  18.953  0.0600 -0.0322 -0.0014
25327W        W31927  22.060   6.387   5.560 -0.1251 -0.2926 -0.0346
25328W        W31928  21.967   7.515   5.052 -0.0271  0.3029 -0.0958
25329W        W31929  14.080   3.744   4.794 -0.0578 -0.0638 -0.0712
25330W        W31930  19.485   1.845   7.740  0.3828  0.2085  0.0120
25331W        W31931  14.671   2.920  16.011 -0.1946  0.2471 -0.0938
25332W        W31932  31.392   6.813  15.379  0.1715  0.1863  0.2509
25333W        W31933  14.479   5.555  24.240  0.2798 -0.2054  0.0493
25334W        W31934   4.595   5.304  24.246  0.0030 -0.0122 -0.1785
25335W        W31935  28.390   0.801  24.649  0.1416  0.4096  0.0296
25336W        W31936  22.637   2.094  24.680 -0.2060 -0.0004  0.1286
25337W        W31937  26.957   1.811  18.102 -0.3335 -0.3418 -0.0477
25338W        W31938  20.074   7.326  16.859 -0.0444  0.1507 -0.0358
25339W        W31939   7.405   2.381  23.849 -0.2911  0.0675  0.2218
25340W        W31940  25.738   7.759  23.786  0.0684 -0.0125  0.1757
25341W        W31941  19.903   6.144   5.054  0.4194  0.1738  0.0523
25342W        W31942  26.321   5.525  24.137 -0.0768 -0.0062 -0.1487
25343W        W31943  25.181   3.429  17.628  0.1228 -0.2936  0.2682
25344W        W31944   8.141   2.857   4.139  0.3358  0.0263 -0.2250
25345W        W31945   2.782   1.679   1.439 -0.1014 -0.1020 -0.1038
25346W        W31946  23.973   0.547  10.609  0.0675 -0.1158  0.1553
25347W        W31947  26.051   2.673  23.495  0.0018  0.1942  0.1598
25348W        W31948   5.199   7.196  18.603 -0.0455 -0.0495  0.2524
25349W        W31949  15.751   3.567  20.103 -0.0840  0.1716  0.2648
25350W        W31950   5.950   7.357   2.275  0.3502  0.2320  0.2112
25351W        W31951  15.872   6.882   3.981 -0.0558  0.0953  0.1255
25352W        W31952   7.548   7.563   2.335  0.2103  0.0537  0.0706
25353W        W31953  16.211   4.243   5.467 -0.0440  0.2265  0.1104
25354W        W31954  24.606   3.308  21.119  0.0564  0.0737 -0.1993
25355W        W31955   6.401   3.179  17.787  0.2117 -0.0168 -0.1025
25356W        W31956  28.090   3.107   5.167 -0.1951 -0.0971  0.1052
25357W        W31957  10.564   7.576  24.625 -0.0504  0.0156  0.0997
25358W        W31958  14.675   4.964  19.938 -0.0111 -0.0766 -0.0852
25359W        W31959  12.724   3.702   2.520  0.2172 -0.2436  0.1598
25360W        W31960  30.822   4.741   6.457 -0.0503  0.1699  0.1408
25361W        W31961  13.146   0.389  21.003 -0.1248  0.0235 -0.0938
25362W        W31962  26.127   2.573   6.099 -0.3078  0.2232  0.0725
25363W        W31963  24.005   2.923  22.885 -0.1478  0.0160 -0.1068
25364W        W31964   7.565   6.598  19.629  0.0373 -0.1406  0.0182
25365W        W31965  29.889   2.986  22.106  0.0841  0.1370 -0.0042
25366W        W31966  18.452   3.838   9.382  0.2884 -0.0518 -0.0895
25367W        W31967  11.974   4.745  15.991  0.1798 -0.0057  0.1943
25368W        W31968   9.003   0.480  19.082  0.2348 -0.0726 -0.1380
25369W        W31969  23.571   4.004  17.213  0.0569 -0.3362  0.3638
25370W        W31970  31.118   1.799  22.387 -0.1037  0.1477 -0.0630
25371W        W31971   0.073   1.998  16.160  0.2316  0.0439 -0.1968
25372W        W31972   2.893   1.944   2.931 -0.0142  0.2197  0.2076
25373W        W31973  12.621   6.018  22.258  0.0245 -0.2662 -0.0520
25374W        W31974   2.838   4.955   5.238 -0.2341  0.1945 -0.1093
25375W        W31975  18.536   1.375  18.711 -0.0792 -0.0535  0.2024
25376W        W31976   6.503   3.956  19.639 -0.0757  0.0147 -0.2975
25377W        W31977   8.803   6.328  20.438  0.2201  0.0663  0.0209
25378W        W31978  24.484   6.914   1.426 -0.2017  0.2969 -0.0087
25379W        W31979  11.424   4.174  18.919 -0.0425  0.4374 -0.3772
25380W        W31980  20.290   6.240   4.743  0.2965 -0.0830  0.1239
25381W        W31981   0.651   7.446   1.301 -0.1323  0.0726 -0.2056
25382W        W31982  22.064   0.901  18.935  0.0603 -0.0145  0.2195
25383W        W31983  22.733   0.031   8.656  0.1149 -0.1757  0.0898
25384W        W31984  23.525   1.637  21.126  0.1691 -0.0565  0.0081
25385W        W31985   8.676   5.427  22.418 -0.1915  0.0346  0.1360
25386W        W31986  21.037   5.936   0.508  0.1768  0.1060  0.1080
25387W        W31987  30.304   0.707  18.655 -0.1743 -0.0884 -0.2481
25388W        W31988   4.646   7.132  20.659  0.3791  0.2067  0.0859
25389W        W31989  17.273   5.025  10.906  0.0475  0.2190  0.1976
25390W        W31990  18.746   1.198  23.236  0.1104 -0.0815  0.3616
25391W        W31991  21.220   6.502   7.077 -0.1752  0.0069 -0.2469
25392W        W31992   4.065   6.802  17.865  0.1419 -0.2098 -0.3084
25393W        W31993  20.396   2.188   9.320  0.2109 -0.1942  0.0098
25394W        W31994   0.394   6.000  16.164 -0.1940 -0.0404  0.2264
25395W        W31995   1.854   0.662  15.427 -0.0359 -0.1188 -0.2424
25396W        W31996  13.172   4.541  18.660 -0.1183 -0.0001  0.1599
25397W        W31997  22.999   1.162  20.424  0.0968  0.2005 -0.2760
25398W        W31998  17.573   1.130   1.082  0.3104 -0.2170  0.0193
25399W        W31999   0.685   1.469  15.408 -0.4433 -0.3215 -0.3401
25400W        W32000  17.599   1.494  21.273  0.1381  0.0951  0.0396
25401W        W32001  14.898   3.955  22.347  0.0103 -0.1127  0.2348
25402W        W32002  11.742   4.638   5.922  0.2088 -0.3746 -0.0440
25403W        W32003  11.471   1.597   3.607  0.0156 -0.3196 -0.2686
25404W        W32004  14.235   0.849  20.293 -0.1546 -0.1772  0.0871
25405W        W32005  14.826   6.529   1.375  0.1309  0.1040  0.0304
25406W        W32006   6.799   2.786  10.448 -0.0158 -0.0290  0.0098
25407W        W32007  30.475   0.069   7.698 -0.0121 -0.1604  0.1274
25408W        W32008  12.919   5.764  24.605 -0.0004  0.1737 -0.2317
25409W        W32009  29.740   4.647  15.093 -0.1010  0.2472  0.0129
25410W        W32010  15.849   6.055   9.507 -0.0425 -0.3871  0.1166
25411W        W32011   3.236   7.462  18.608 -0.0374  0.6263  0.0983
25412W        W32012  13.074   2.917   0.368  0.0972 -0.0224  0.1773
25413W        W32013  13.683   3.192   8.102  0.1078  0.1711  0.1208
25414W        W32014  18.238   2.941   1.619 -0.1812  0.1795  0.0421
25415W        W32015   4.308   6.399  19.512  0.0431 -0.3719 -0.2840
25416W        W32016  13.955   2.955  24.578  0.0157  0.0868 -0.1321
25417W        W32017  23.626   6.890  19.941  0.3572  0.1435  0.1208
25418W        W32018  10.624   2.981  22.711  0.2172 -0.3634  0.0147
25419W        W32019   3.717   2.723   4.867  0.2236 -0.2938  0.1286
25420W        W32020  11.406   3.830   1.596 -0.3034  0.0927 -0.1482
25421W        W32021  20.427   4.545   6.818  0.1816 -0.1189 -0.3576
25422W        W32022  21.983   6.977   5.343 -0.0281  0.0078  0.1375
25423W        W32023   4.109   1.896   8.522 -0.1314 -0.0105 -0.1009
25424W        W32024  28.687   0.399   8.479 -0.2209  0.0227  0.2211
25425W        W32025   1.091   3.736  25.194 -0.1845  0.0353  0.0518
25426W        W32026  12.951   0.311  18.874 -0.3581 -0.0235 -0.0348
25427W        W32027  16.791   0.878  15.846  0.0064 -0.0885 -0.1187
25428W        W32028   1.361   1.169   8.881 -0.0391 -0.2423  0.1149
25429W        W32029   2.588   6.564   7.680  0.2157  0.2349  0.1299
25430W        W32030  22.317   1.899  25.036 -0.3766 -0.1313 -0.1363
25431W        W32031  23.004   2.011   0.622  0.0481  0.0619 -0.1277
25432W        W32032  27.704   1.323  16.571  0.2637  0.0058  0.2996
25433W        W32033   5.598   1.226  16.872 -0.1842 -0.0469 -0.1112
25434W        W32034  26.639   1.216  21.435 -0.2329  0.0326  0.0112
25435W        W32035  12.005   3.083  17.256  0.0221 -0.0374  0.1816
25436W        W32036   5.852   3.812  15.220  0.1257  0.1508  0.1790
25437W        W32037  24.472   6.966  21.469 -0.0350  0.2362  0.1912
25438W        W32038  24.343   5.057  23.808 -0.2711  0.2092  0.2536
25439W        W32039  27.847   2.465  24.088  0.0671  0.1781 -0.3842
25440W        W32040   5.156   2.229  18.527 -0.2469  0.0724  0.1877
25441W        W32041   6.537   7.614   9.409 -0.0057  0.3361  0.0511
25442W        W32042   2.650   5.020  16.048  0.0997 -0.1336  0.1241
25443W        W32043  11.915   6.085   9.685 -0.0217 -0.0898  0.1808
25444W        W32044  14.684   2.825   1.569 -0.0423  0.1752  0.0283
25445W        W32045   0.691   5.519  19.000 -0.1314 -0.2838  0.1180
25446W        W32046  18.199   3.008  20.754  0.0765  0.1195 -0.2111
25447W        W32047  14.084   3.998  19.340  0.1440 -0.2547  0.0584
25448W        W32048  10.912   3.677   1.738  0.3839 -0.2597  0.0134
25449W        W32049   1.073   0.786  21.774  0.2668 -0.0447 -0.2529
25450W        W32050  24.319   7.383  23.414  0.0289  0.3065  0.1753
25451W        W32051  24.341   5.613   7.157 -0.0731  0.1260 -0.1648
25452W        W32052   8.869   0.488   6.370  0.0207  0.1376  0.0076
25453W        W32053  22.535   7.512   6.459 -0.1180 -0.2444  0.1506
25454W        W32054   9.245   1.233  19.347  0.0608  0.1829 -0.0974
25455W        W32055  10.839   0.704  20.726  0.2371 -0.0842 -0.5942
25456W        W32056  29.402   7.032   9.288  0.1370  0.0801  0.0815
25457W        W32057  21.849   3.850  24.253  0.1230 -0.0524 -0.0482
25458W        W32058  19.921   7.764   8.464  0.0438 -0.2126 -0.0615
25459W        W32059   6.965   6.393   2.679 -0.3580 -0.2143 -0.0424
25460W        W32060  19.785   2.390   1.465 -0.2922 -0.2413 -0.0663
25461W        W32061  17.277   6.611  18.024  0.0564 -0.1945 -0.2725
25462W        W32062   7.342   4.560  21.321 -0.0690 -0.0009 -0.1792
25463W        W32063  15.631   7.388   7.402  0.1050  0.1446 -0.0580
25464W        W32064   4.294   5.772   8.220 -0.2307  0.1098 -0.1591
25465W        W32065  30.198   3.074  15.410 -0.2075 -0.0653  0.0406
25466W        W32066  11.997   3.914   8.859  0.0548  0.1467  0.1874
25467W        W32067  11.599   7.549  10.664 -0.0363 -0.1037 -0.3025
25468W        W32068  20.825   6.184  22.980  0.2920  0.3217 -0.0079
25469W        W32069  28.001   6.629   0.947  0.1734 -0.2486 -0.1170
25470W        W32070  14.198   1.624  18.389 -0.0521  0.3193 -0.0602
25471W        W32071  13.856   4.989  21.055 -0.1424 -0.1337 -0.4227
25472W        W32072  19.339   0.244  17.066  0.1165  0.1605 -0.2946
25473W        W32073   0.365   2.805  23.979  0.0246 -0.0096  0.2612
25474W        W32074   4.596   6.226   7.274  0.1483 -0.0012  0.2666
25475W        W32075   3.922   0.218   3.505 -0.0271 -0.2276  0.1149
25476W        W32076  21.229   5.389  23.382 -0.0052  0.1288 -0.0588
25477W        W32077   4.834   3.453   1.420  0.0506 -0.2171  0.0983
25478W        W32078  19.163   4.817   6.827  0.0707 -0.2165 -0.1820
25479W        W32079  25.656   6.082   4.598  0.2913  0.0895 -0.3196
25480W        W32080   7.936   4.291   7.362  0.2054  0.1537 -0.1371
25481W        W32081  20.416   6.556   0.873  0.1611 -0.1198 -0.2807
25482W        W32082   8.619   3.906   9.983 -0.0407  0.1306 -0.1044
25483W        W32083   4.035   2.476  15.408 -0.2908  0.1232 -0.1614
25484W        W32084   3.746   6.641   4.542  0.3451  0.0594 -0.0856
25485W        W32085   7.810   2.728   7.192  0.1843 -0.0055 -0.1313
25486W        W32086   3.237   2.014   2.255  0.1355 -0.1249  0.1104
25487W        W32087  30.070   6.279   8.081  0.0029  0.1507 -0.3318
25488W        W32088   0.840   7.646  21.208  0.0587  0.0324  0.0433
25489W        W32089   0.644   3.189   9.161 -0.0449 -0.1518 -0.2078
25490W        W32090   2.202   1.042  15.509  0.0355 -0.0130  0.1589
25491W        W32091   7.921   1.772   1.726 -0.3220 -0.2824  0.3431
25492W        W32092  14.971   6.406  25.517  0.1006  0.2375 -0.0309
25493W        W32093  24.999   3.848  16.063  0.0906  0.0215 -0.1271
25494W        W32094   1.969   5.804  20.316  0.1474 -0.1062 -0.1991
25495W        W32095  12.362   1.826   7.991 -0.1425  0.0616 -0.0223
25496W        W32096   9.668   0.271  15.881  0.1898 -0.0300  0.0672
25497W        W32097   9.538   3.922   1.797  0.0612 -0.0576  0.0196
25498W        W32098  10.910   4.031   9.004 -0.1223 -0.1017 -0.2065
25499W        W32099  17.431   1.025  15.779  0.2077  0.1883 -0.2181
25500W        W32100  27.276   4.565   7.341 -0.0531  0.0414 -0.1491
25501W        W32101  13.296   7.298  25.336 -0.0048  0.0111  0.0654
25502W        W32102  23.670   5.491  19.186 -0.0631 -0.0038  0.1062
25503W        W32103  30.750   6.623  18.963  0.2898  0.1116 -0.2362
25504W        W32104  21.353   6.839   8.973  0.1669  0.3909  0.4458
25505W        W32105  15.705   0.050   6.162 -0.2135 -0.0849  0.0907
25506W        W32106  18.172   3.368   0.895  0.1515  0.1191  0.3220
25507W        W32107   0.210   4.515  23.423 -0.1218 -0.2340  0.0873
25508W        W32108  30.406   2.195   9.251  0.0567 -0.0716 -0.0974
25509W        W32109   9.501   3.328  17.269 -0.1441 -0.0569  0.0855
25510W        W32110   0.670   6.218   6.917  0.2591 -0.4369  0.1925
25511W        W32111  11.025   3.138  11.352 -0.2950 -0.1378  0.1793
25512W        W32112   7.039   1.837  16.589 -0.1130  0.1364 -0.0497
25513W        W32113   7.818   4.791   6.346  0.0714  0.0227 -0.0261
25514W        W32114   6.224   0.554  26.071 -0.2031 -0.0175 -0.1729
25515W        W32115   2.426   4.518  23.973 -0.1289  0.4195  0.2364
25516W        W32116  27.811   6.860   4.096 -0.2433  0.1136  0.2321
25517W        W32117   9.671   2.162   3.040 -0.0329  0.2173  0.0891
25518W        W32118   9.721   4.684   5.506 -0.0576  0.3105  0.0340
25519W        W32119  28.767   4.063  18.226 -0.0087 -0.0301  0.3076
25520W        W32120  16.473   0.058  17.197  0.1667 -0.1326 -0.0719
25521W        W32121  11.075   1.658  10.370  0.4413 -0.0240  0.1763
25522W        W32122  25.500   6.532   4.749  0.0255  0.0077  0.1069
25523W        W32123  12.963   6.028   1.885 -0.0245  0.1615  0.1685
25524W        W32124  16.839   4.128   4.192  0.1097 -0.3419 -0.1027
25525W        W32125  31.039   7.805   3.616  0.0827  0.0189  0.0608
25526W        W32126  26.707   1.004   8.105 -0.2986  0.2641  0.2361
25527W        W32127  10.646   6.266  22.034 -0.0958  0.0344 -0.1380
25528W        W32128  14.863   3.305  23.328 -0.1027  0.2620 -0.1162
25529W        W32129   2.143   4.909   1.829 -0.1962  0.1569  0.5048
25530W        W32130  31.299   2.020   9.548 -0.1589  0.0034  0.1582
25531W        W32131  20.857   2.406   2.426  0.1001 -0.0403 -0.0720
25532W        W32132   0.609   3.033  18.622  0.1334 -0.2529 -0.1791
25533W        W32133  11.121   6.422  21.908 -0.0501 -0.0578 -0.3019
25534W        W32134  13.235   2.351  24.203  0.1508  0.1214  0.0715
25535W        W32135   7.445   2.643  19.581  0.0377 -0.2622  0.0304
25536W        W32136  24.373   3.992  23.503 -0.0840  0.0076 -0.3015
25537W        W32137   4.685   6.311   5.478  0.0403  0.0007 -0.3657
25538W        W32138  22.714   6.786  23.435  0.0028  0.4944 -0.0486
25539W        W32139   0.298   6.577  20.351 -0.2799  0.2611  0.1916
25540W        W32140  26.538   2.661   8.583  0.0568  0.1022 -0.2958
25541W        W32141  18.338   1.677   7.519 -0.0083  0.3704 -0.2308
25542W        W32142   7.704   5.669  20.170 -0.3902  0.0517 -0.0720
25543W        W32143   2.743   6.509  23.634 -0.2514 -0.0135 -0.1093
25544W        W32144  20.262   1.176   2.144  0.3526 -0.1332  0.3095
25545W        W32145  21.157   5.557   1.241  0.3359  0.2201 -0.0568
25546W        W32146  27.512   6.353   8.393 -0.1064  0.0569 -0.2301
25547W        W32147  19.463   7.095   1.305 -0.1711  0.0405 -0.1298
25548W        W32148  26.067   1.723   9.220  0.0250 -0.1214 -0.0586
25549W        W32149  16.267   4.685  16.097  0.0899  0.3443  0.2325
25550W        W32150  21.418   2.050  19.496 -0.2286  0.3182 -0.0278
25551W        W32151  23.223   2.177   3.576 -0.0738 -0.1250 -0.1745
25552W        W32152  26.104   3.503  17.435 -0.0757  0.0755 -0.1633
25553W        W32153   8.541   5.404  22.902  0.1866 -0.3986  0.0599
25554W        W32154   4.010   6.801  23.496 -0.2773 -0.2428  0.2498
25555W        W32155   2.562   5.457  24.280 -0.2232  0.3300  0.0388
25556W        W32156   3.775   3.554   5.816  0.0602  0.3456 -0.0544
25557W        W32157  27.915   5.074  19.279  0.1350  0.0247  0.0074
25558W        W32158   1.471   6.335   2.426 -0.0391  0.3431 -0.2402
25559W        W32159  28.197   4.333  20.385 -0.0917 -0.0480  0.0500
25560W        W32160  12.746   4.798   9.721 -0.3119 -0.1960 -0.0628
25561W        W32161  15.733   5.134  22.504 -0.1652  0.1676  0.1954
25562W        W32162  15.945   1.231  23.074  0.0802  0.0826  0.0380
25563W        W32163  16.852   1.291  21.939  0.2268  0.0093  0.2033
25564W        W32164  13.998   3.397  24.873  0.0202  0.1339 -0.6182
25565W        W32165   6.553   4.539  23.861  0.0319  0.1782  0.1332
25566W        W32166  21.193   1.456   3.804 -0.1263  0.0200 -0.0250
25567W        W32167  17.349   5.024  26.065 -0.0419 -0.1186  0.1859
25568W        W32168  20.728   7.732  19.044  0.3319  0.0330  0.1075
25569W        W32169  19.248   0.557  19.489 -0.1878 -0.0305 -0.0543
25570W        W32170  13.484   3.822  22.718 -0.0275  0.2244  0.4334
25571W        W32171  29.950   1.643  17.403  0.1418  0.2066  0.1963
25572W        W32172  14.684   1.897  19.231  0.0393 -0.1295  0.2417
25573W        W32173  18.163   7.429  21.346 -0.0145 -0.1403  0.1037
25574W        W32174  27.047   2.093  23.814 -0.0579 -0.0574  0.0729
25575W        W32175  31.369   2.819  10.077 -0.2081 -0.1358  0.0061
25576W        W32176  27.179   0.142   9.223 -0.0383  0.1486 -0.2795
25577W        W32177  20.011   4.483  11.535  0.0756  0.2608 -0.1352
25578W        W32178  28.311   0.609   5.627  0.0630  0.3341  0.1412
25579W        W32179   9.551   6.459  15.410  0.0491 -0.1619 -0.2200
25580W        W32180  13.082   2.148   3.510  0.2231  0.1426 -0.0916
25581W        W32181  21.018   7.768  19.644  0.1810  0.2033  0.0170
25582W        W32182  22.714   5.618   6.409  0.2731 -0.0805 -0.1034
25583W        W32183  30.948   1.209  23.520  0.1735 -0.4493 -0.0796
25584W        W32184  13.463   2.020  19.763  0.2787  0.0900  0.1537
25585W        W32185  17.276   4.961  19.799 -0.1240  0.0202  0.2424
25586W        W32186  16.651   6.829  18.904 -0.0784  0.0137  0.1107
25587W        W32187   1.166   5.358   6.883  0.1212 -0.0223 -0.3612
25588W        W32188  25.071   0.436   9.919 -0.0122 -0.2293 -0.0113
25589W        W32189  15.377   2.421  15.727 -0.2329  0.0226 -0.0885
25590W        W32190  20.353   2.688   2.909  0.0546  0.0823  0.2098
25591W        W32191  22.611   6.929  18.440  0.2153  0.3555  0.1007
25592W        W32192  30.058   0.964  10.099  0.1091 -0.0605  0.1359
25593W        W32193  30.550   2.277  23.049 -0.2533 -0.1261  0.1389
25594W        W32194   8.549   6.355  22.145 -0.0521  0.1866 -0.0166
25595W        W32195   5.758   6.869   6.937  0.1474  0.1593  0.1649
25596W        W32196  24.300   2.113  19.254  0.1429 -0.0090  0.2116
25597W        W32197  26.902   6.317   0.715  0.0789  0.1195 -0.1998
25598W        W32198   2.440   7.179  15.931  0.1991 -0.1740  0.2608
25599W        W32199  13.296   6.834  25.779  0.0785  0.0570 -0.1536
25600W        W32200   0.748   5.323  21.808  0.3339  0.3608  0.1719
25601W        W32201  24.875   7.400   5.315 -0.1606 -0.1574  0.1043
25602W        W32202  14.701   5.463  20.018 -0.2933 -0.0105  0.0701
25603W        W32203  29.408   0.851   2.587  0.1419 -0.0134 -0.0831
25604W        W32204  27.947   1.764  10.813 -0.0773  0.2972  0.2140
25605W        W32205   4.228   6.112  20.599 -0.1980  0.1413 -0.0667
25606W        W32206  11.165   4.000  25.963 -0.2176 -0.1109  0.3105
25607W        W32207   6.863   7.687  24.406  0.3059  0.2227 -0.0142
25608W        W32208  28.176   3.348  25.000 -0.0995  0.0131 -0.0254
25609W        W32209  15.472   2.466   7.139  0.2436 -0.0241  0.2710
25610W        W32210  17.257   7.503   2.420  0.1158 -0.0071  0.0547
25611W        W32211  11.328   4.086   0.380 -0.1394 -0.1264  0.0149
25612W        W32212   8.591   6.297  14.797  0.0781  0.2750 -0.4777
25613W        W32213   2.832   0.039   0.596 -0.0166 -0.3728 -0.2730
25614W        W32214   4.600   4.043   5.466 -0.2835  0.0433 -0.0245
25615W        W32215   5.496   3.784  22.668 -0.1556 -0.0445 -0.2221
25616W        W32216  14.003   0.875   4.301  0.1065  0.2269  0.1981
25617W        W32217  18.994   2.411  10.349 -0.0094  0.2573 -0.3391
25618W        W32218  16.130   7.248   7.379 -0.1273  0.2365  0.0932
25619W        W32219   7.136   5.377  22.924 -0.0910  0.1961  0.0982
25620W        W32220  12.707   3.939  25.561 -0.2395 -0.0582 -0.0452
25621W        W32221  24.125   6.877  19.588  0.0813 -0.0331 -0.0150
25622W        W32222  30.280   3.036   9.195 -0.0713  0.3171  0.4872
25623W        W32223  15.117   3.615  26.050 -0.0923  0.1825  0.1059
25624W        W32224   4.406   7.674  23.827 -0.1697  0.0715  0.4722
25625W        W32225  14.569   6.506  20.460 -0.2200 -0.0024 -0.1906
25626W        W32226  24.665   3.128  10.971  0.0814  0.0636 -0.2385
25627W        W32227   4.694   0.641  16.990  0.0917 -0.1342  0.2305
25628W        W32228  30.522   6.568  16.441  0.2455  0.1910 -0.1957
25629W        W32229  15.562   7.710  21.693  0.1217 -0.0795 -0.0198
25630W        W32230  23.489   6.019   2.861  0.2842  0.2624 -0.0912
25631W        W32231  27.779   3.481   6.447  0.0230  0.0679 -0.1543
25632W        W32232  20.834   0.167  15.927  0.0385 -0.2252  0.3351
25633W        W32233  11.994   1.068  15.504  0.1132  0.3519 -0.1415
25634W        W32234   8.816   0.840   0.103  0.1141  0.1281  0.1224
25635W        W32235  22.332   5.336  21.820  0.2148 -0.1039 -0.4153
25636W        W32236  27.904   1.559  20.482  0.1308 -0.1888  0.0780
25637W        W32237  16.851   2.566   2.320  0.0673 -0.1552  0.2669
25638W        W32238   4.228   7.857  25.559 -0.1109 -0.1669  0.0283
25639W        W32239   6.735   1.478  18.826 -0.0375  0.1808  0.0910
25640W        W32240  31.376   5.630  21.079  0.0815  0.1635 -0.2225
25641W        W32241  17.535   3.531   9.523  0.0826  0.1155  0.2904
25642W        W32242   0.859   7.735   6.421 -0.0143  0.1491 -0.0181
25643W        W32243  26.163   0.071   9.948 -0.2514  0.0946  0.2741
25644W        W32244  17.835   0.827   2.110  0.2541 -0.1337 -0.1658
25645W        W32245  17.459   6.790  25.787  0.2331  0.0105  0.1393
25646W        W32246  31.386   5.530  24.291  0.0552 -0.1483  0.0026
25647W        W32247   2.324   4.730   8.808  0.3714  0.0361  0.0959
25648W        W32248  11.305   7.302   6.256 -0.0761 -0.5602 -0.2041
25649W        W32249  16.948   4.822  10.076 -0.3015 -0.2960 -0.0550
25650W        W32250  23.279   7.664   3.579  0.0468  0.1126 -0.2277
25651W        W32251  27.508   5.080  21.217 -0.0048  0.1135  0.2424
25652W        W32252  28.680   5.638  19.895  0.0939 -0.0148 -0.0178
25653W        W32253  16.754   2.436  20.343 -0.0850 -0.1426 -0.1814
25654W        W32254   8.156   6.434  22.705 -0.3463  0.2303 -0.0271
25655W        W32255   3.200   3.646   9.296 -0.2477 -0.1813  0.1375
25656W        W32256  15.150   1.911  24.918  0.3018  0.3293  0.1628
25657W        W32257  20.332   0.380  15.873 -0.0496 -0.0269  0.0054
25658W        W32258   2.501   5.201   1.662 -0.1641 -0.1373 -0.0250
25659W        W32259  30.476   2.449  19.516 -0.1640 -0.0530 -0.2188
25660W        W32260  19.992   7.824   2.472  0.2090  0.0057 -0.0479
25661W        W32261   3.005   7.709  20.368 -0.1960  0.0328  0.0290
25662W        W32262   8.512   1.678  22.761  0.1096  0.1282  0.0087
25663W        W32263   7.085   3.985   5.220 -0.2898  0.0882  0.0170
25664W        W32264   5.487   4.053   0.998  0.0393 -0.1238  0.1090
25665W        W32265   8.712   6.772   9.581 -0.2525 -0.0422  0.0264
25666W        W32266   4.194   7.040   1.963  0.2738 -0.0317 -0.0562
25667W        W32267   8.830   7.557   7.131 -0.1619 -0.0633  0.0946
25668W        W32268  22.743   3.730  19.540 -0.1549 -0.3014 -0.1234
25669W        W32269   8.874   5.559  16.639 -0.2029  0.0613 -0.0053
25670W        W32270  29.740   1.777  19.368  0.0678  0.3036  0.0348
25671W        W32271  15.645   4.219   6.361  0.0719 -0.1946 -0.3720
25672W        W32272  28.743   2.710   7.867  0.1770 -0.1593  0.0534
25673W        W32273   8.021   2.135  26.047 -0.0330  0.3980  0.0192
25674W        W32274  26.388   0.378  24.627 -0.1361  0.0307  0.2353
25675W        W32275  26.343   4.286  17.314  0.0941 -0.2737 -0.0796
25676W        W32276  17.897   0.815  16.838 -0.1404  0.1409 -0.1236
25677W        W32277  15.604   2.677  17.562 -0.2075 -0.3386 -0.0659
25678W        W32278  12.720   1.865   3.257 -0.1395  0.2337  0.2222
25679W        W32279  29.760   4.315  25.520  0.0140 -0.0745 -0.0015
25680W        W32280  21.989   3.052  10.550  0.4392  0.3352  0.2363
25681W        W32281  25.993   3.983   5.192 -0.0812  0.2107  0.1427
25682W        W32282  18.755   1.669   0.442 -0.1257 -0.0842 -0.0906
25683W        W32283  16.758   6.355  21.876  0.2682  0.0696 -0.1347
25684W        W32284  19.136   7.588   1.356  0.5195  0.0081 -0.1729
25685W        W32285  18.186   1.523   6.793 -0.1509  0.0977  0.0917
25686W        W32286  14.430   5.309  20.699  0.0402 -0.1104 -0.2149
25687W        W32287  21.260   4.988   9.656 -0.0396 -0.0002 -0.0749
25688W        W32288  18.991   1.101   5.422 -0.1128 -0.2074  0.0320
25689W        W32289  10.235   3.562  16.599 -0.0954 -0.2041  0.1401
25690W        W32290   9.433   6.390   3.338 -0.1544  0.0829 -0.2177
25691W        W32291  25.551   5.710  17.109 -0.0925 -0.1083 -0.2759
25692W        W32292  13.043   4.057   2.715  0.1233 -0.1594  0.0172
25693W        W32293   3.290   3.284  22.589  0.0276  0.0541  0.1391
25694W        W32294  16.695   4.635  21.030  0.0976 -0.0371  0.0557
25695W        W32295  17.451   1.417   7.307  0.0257 -0.0534 -0.1743
25696W        W32296  28.189   6.338  24.619 -0.0267  0.0387  0.0422
25697W        W32297  29.383   1.385   8.918  0.0041  0.1103 -0.0309
25698W        W32298  26.729   2.608   8.138  0.1590 -0.0575  0.1005
25699W        W32299  20.381   2.729   7.406  0.1991  0.1203  0.0349
25700W        W32300  28.804   5.343  17.930 -0.4372  0.1523 -0.1071
25701W        W32301   7.775   7.715  16.327  0.0747 -0.0489 -0.0003
25702W        W32302  20.915   2.914  15.903 -0.1147 -0.0582  0.3267
25703W        W32303  27.916   7.474   6.596  0.1452 -0.1080  0.1023
25704W        W32304  22.247   4.702  19.487 -0.4500 -0.0140 -0.3377
25705W        W32305  18.932   1.865   3.397  0.1766  0.0828  0.4334
25706W        W32306   3.634   4.991   7.642  0.2490  0.1191  0.0765
25707W        W32307  22.530   0.433  16.513  0.0365 -0.0592  0.2603
25708W        W32308  19.322   3.703  10.189  0.0474  0.0656  0.1741
25709W        W32309  18.696   0.480  25.438 -0.0605  0.0545  0.1177
25710W        W32310  14.772   7.605   1.975  0.2118 -0.0483  0.0098
25711W        W32311  25.150   5.968  22.462  0.0201  0.1478 -0.0458
25712W        W32312   6.762   7.537  25.789  0.1402 -0.1413  0.1876
25713W        W32313  26.376   6.069   7.199  0.2762  0.1196  0.2637
25714W        W32314  23.924   4.893  22.175  0.0800 -0.0557 -0.1413
25715W        W32315   7.293   0.665  18.249  0.1435  0.0772  0.1264
25716W        W32316   7.356   0.557   7.688  0.0691 -0.2046 -0.0596
25717W        W32317  25.068   6.364  10.706  0.1091 -0.0957 -0.0548
25718W        W32318   9.479   2.483  24.157 -0.2872 -0.0762 -0.1269
25719W        W32319  30.719   5.478   6.631  0.0891  0.1539  0.0164
25720W        W32320   9.046   6.136   3.177  0.1613 -0.2758 -0.2411
25721W        W32321   8.926   1.819  15.232  0.1560 -0.1164  0.0313
25722W        W32322  24.991   4.992   9.067 -0.1283  0.0201  0.1724
25723W        W32323   4.845   1.099   5.732  0.0282 -0.1374 -0.3353
25724W        W32324  19.661   7.584   8.849 -0.3322  0.0217  0.1515
25725W        W32325   3.011   6.735  15.940  0.1615 -0.1196  0.0572
25726W        W32326   7.644   5.167  25.480  0.2244  0.0720 -0.1454
25727W        W32327   2.833   3.489  14.911 -0.3784 -0.2610 -0.0909
25728W        W32328  30.058   5.050  18.181  0.2186 -0.0614  0.0389
25729W        W32329   2.604   3.088  18.511 -0.0987 -0.1559 -0.0036
25730W        W32330   7.916   0.975  18.688 -0.0617 -0.0600  0.0226
25731W        W32331  23.722   1.671  23.006 -0.3658  0.0742 -0.0481
25732W        W32332  10.346   7.748  22.728 -0.3213  0.2986  0.1913
25733W        W32333  15.909   7.101   6.350 -0.1261 -0.0363 -0.0545
25734W        W32334   6.631   7.135  23.566  0.0687  0.0635 -0.1839
25735W        W32335   0.055   6.794  26.022 -0.1235  0.0202  0.0688
25736W        W32336  25.665   4.190   4.855  0.2122 -0.0306 -0.0725
25737W        W32337  25.601   1.084   5.060  0.1558  0.0028  0.0420
25738W        W32338  30.883   1.459  15.506 -0.3276 -0.0103 -0.4117
25739W        W32339  26.750   6.342   6.891  0.2909 -0.0400 -0.0473
25740W        W32340  20.523   1.570   8.655  0.1730 -0.2657  0.2761
25741W        W32341   5.930   3.052  17.986 -0.1841 -0.0400  0.2019
25742W        W32342   2.038   0.881  22.853 -0.2603 -0.2092  0.0702
25743W        W32343   4.977   0.021   8.786  0.5601 -0.0014 -0.1296
25744W        W32344   9.914   0.003  22.480 -0.1832  0.1193 -0.1928
25745W        W32345  18.541   0.042  22.620 -0.1480 -0.0612 -0.1399
25746W        W32346   1.852   2.754  24.737  0.2469  0.1385  0.1505
25747W        W32347  28.649   5.659   4.348 -0.0082 -0.0773 -0.0396
25748W        W32348  19.874   1.013   5.448 -0.0268 -0.1254 -0.1860
25749W        W32349  14.677   5.681  20.905 -0.1870 -0.3813 -0.2869
25750W        W32350  22.211   5.912   3.169 -0.0925  0.0142 -0.1431
25751W        W32351  21.422   5.253  10.045 -0.1354  0.0186 -0.0334
25752W        W32352  16.649   4.958  24.259 -0.1674 -0.0200 -0.2035
25753W        W32353   8.003   2.531  18.944 -0.0639  0.1353  0.1860
25754W        W32354   4.156   0.578  15.539 -0.1043  0.2522  0.1438
25755W        W32355  21.525   5.563   4.360  0.1364  0.0616 -0.1489
25756W        W32356  10.155   1.235  16.447  0.2052  0.0324  0.0044
25757W        W32357   1.702   2.606   8.148 -0.2422  0.0930  0.1109
25758W        W32358  30.965   5.259  24.400 -0.2144 -0.0917 -0.2090
25759W        W32359  28.376   5.832  18.571  0.1877 -0.2218  0.0976
25760W        W32360  29.861   2.606   1.591 -0.0880  0.0343  0.1264
25761W        W32361   0.550   7.372   9.161 -0.0964  0.0343 -0.2372
25762W        W32362  25.061   5.107   6.514  0.0319  0.1490 -0.1218
25763W        W32363  26.089   6.727  18.670  0.0184  0.0889  0.1538
25764W        W32364  12.758   2.918  25.243  0.1603 -0.1545  0.0641
25765W        W32365  22.160   0.811   7.258 -0.1305 -0.0481 -0.0442
25766W        W32366   0.802   3.545  15.589 -0.2294  0.0838  0.2562
25767W        W32367  12.423   6.405  26.017 -0.1445  0.1126  0.0151
25768W        W32368   1.240   6.624  24.192 -0.1202  0.2564  0.0190
25769W        W32369  27.373   2.813  16.165 -0.0676 -0.4765 -0.2714
25770W        W32370  20.549   1.869  24.980  0.0020  0.2515  0.4004
25771W        W32371  16.306   4.254   3.934  0.1722  0.1318 -0.3287
25772W        W32372  23.601   1.934  17.626  0.2221  0.3426  0.0924
25773W        W32373  30.080   5.824   7.235  0.2471 -0.1236  0.0942
25774W        W32374  25.931   1.631   7.603 -0.2924 -0.2358  0.0321
25775W        W32375  19.630   2.047  25.868  0.3461  0.2041 -0.2770
25776W        W32376   3.328   6.268  24.483 -0.0640 -0.1726 -0.3458
25777W        W32377   5.146   6.900  25.632 -0.0156  0.2258 -0.2006
25778W        W32378  16.239   4.457   9.968 -0.1564 -0.0081  0.0878
25779W        W32379   8.219   3.470  21.102  0.1492 -0.3212 -0.0108
25780W        W32380  25.302   3.893  22.687  0.2052 -0.0119 -0.1087
25781W        W32381   0.578   3.940   7.783 -0.0596 -0.1064  0.2035
25782W        W32382  30.747   0.029   6.257  0.0875  0.1560 -0.2098
25783W        W32383   1.869   5.309  14.433 -0.2964  0.0757 -0.0083
25784W        W32384  20.592   1.502  23.473  0.1159  0.2515  0.0394
25785W        W32385   9.345   6.190  23.575  0.0227 -0.0875  0.3490
25786W        W32386   6.637   4.888   1.821 -0.2350  0.1240 -0.0313
25787W        W32387  30.105   5.953  21.314  0.3140  0.1130  0.1089
25788W        W32388  24.568   0.101  16.365  0.1577  0.0317 -0.1312
25789W        W32389   3.840   4.220   0.673 -0.1244  0.0767  0.3592
25790W        W32390  19.772   7.396   7.592  0.1773  0.1728  0.0990
25791W        W32391   2.852   5.428   7.745 -0.0380 -0.1681  0.0561
25792W        W32392  10.445   4.878   4.649  0.2045 -0.0692 -0.1748
25793W        W32393  15.119   3.336   6.635  0.0015 -0.1219 -0.0520
25794W        W32394  30.828   3.095  22.975 -0.1599  0.2861 -0.3175
25795W        W32395   8.256   4.847   9.790  0.0284  0.0555  0.0076
25796W        W32396  24.573   3.490  21.854  0.2225  0.1459  0.1620
25797W        W32397  13.295   0.054   0.789 -0.2196 -0.2326 -0.1107
25798W        W32398   6.124   0.545   4.006  0.0852 -0.1988  0.1572
25799W        W32399  25.954   5.866  24.280 -0.0122  0.4568 -0.0290
25800W        W32400   3.553   6.150  21.661 -0.0718  0.0874 -0.2260
25801W        W32401   1.607   0.231  17.340 -0.0968  0.0457  0.0228
25802W        W32402  22.457   1.929  23.059 -0.0226 -0.3900  0.1735
25803W        W32403   1.902   3.760   7.269  0.1656 -0.2028 -0.0493
25804W        W32404   5.632   7.722  19.980  0.1320  0.1066 -0.1733
25805W        W32405  18.054   2.467   1.716  0.1250  0.2007 -0.2120
25806W        W32406   3.011   3.859  19.336 -0.0597 -0.2750 -0.2338
25807W        W32407  18.801   3.924   6.390 -0.0794 -0.0347 -0.2348
25808W        W32408  13.690   7.270   6.273  0.2951 -0.0749 -0.1220
25809W        W32409   0.700   5.248   1.070  0.1075 -0.0046 -0.0347
25810W        W32410   6.399   7.540   2.203 -0.0173  0.0130  0.5882
25811W        W32411   2.904   2.084   6.610 -0.3106 -0.2012 -0.0640
25812W        W32412  19.433   0.778   5.228 -0.0873  0.1488 -0.0223
25813W        W32413   1.199   5.335   5.393  0.0249 -0.3530  0.1804
25814W        W32414  11.190   2.699  16.765 -0.2594  0.1083  0.1088
25815W        W32415   5.266   4.552  24.417 -0.3257 -0.1463 -0.1206
25816W        W32416  18.012   7.055   8.783 -0.1509  0.1334 -0.2761
25817W        W32417  12.634   5.030  16.349  0.5246 -0.1967  0.2729
25818W        W32418   5.196   7.545  21.212  0.1368  0.0992  0.1487
25819W        W32419  30.074   6.511  18.261 -0.0010 -0.2300  0.3457
25820W        W32420  24.688   6.739   1.860 -0.1888  0.1432 -0.0035
25821W        W32421  27.293   1.375   5.142 -0.2266  0.2868 -0.1366
25822W        W32422  18.294   3.415  23.218  0.1416  0.3225  0.0218
25823W        W32423  25.574   4.877   8.290  0.3795 -0.1538  0.0273
25824W        W32424  30.690   2.273  15.911  0.0767  0.0199 -0.0225
25825W        W32425  29.449   6.386  17.245 -0.1561 -0.0998 -0.0639
25826W        W32426  18.829   3.261  16.219  0.4061  0.0907 -0.3649
25827W        W32427   6.384   0.390  18.445  0.3124  0.1168 -0.1124
25828W        W32428   8.002   1.104   1.414  0.0784  0.3274 -0.2412
25829W        W32429  19.411   4.641   6.444  0.2800  0.2727 -0.0466
25830W        W32430  26.493   6.697  22.748 -0.2777  0.1890 -0.0989
25831W        W32431   6.825   6.661   9.586 -0.0345  0.0314  0.3720
25832W        W32432  25.258   7.817   9.840  0.2576 -0.1427 -0.0974
25833W        W32433   4.289   4.411  23.675 -0.3199 -0.1402 -0.1071
25834W        W32434   0.384   4.540   6.510  0.2139 -0.1160  0.0001
25835W        W32435   0.945   5.920   7.237 -0.0677  0.0342  0.2261
25836W        W32436  16.058   7.599  18.455 -0.1468  0.0418 -0.0176
25837W        W32437  15.184   0.613   3.475  0.0918  0.0253 -0.2948
25838W        W32438  16.001   4.743   0.224 -0.1940  0.1064 -0.1049
25839W        W32439  12.218   1.596   0.550 -0.3301 -0.1101 -0.3280
25840W        W32440  26.765   4.058  17.635  0.0068 -0.0075 -0.0100
25841W        W32441  23.335   0.163   6.781  0.0609  0.1846  0.0188
25842W        W32442  28.687   7.229  16.426 -0.0471  0.1016 -0.0919
25843W        W32443  29.201   3.952  26.066 -0.1268 -0.0727  0.0644
25844W        W32444   3.169   0.766  21.452 -0.1511 -0.2908 -0.0471
25845W        W32445  24.936   3.669  20.555  0.0327 -0.1177  0.1114
25846W        W32446  24.650   3.028   9.283 -0.1400 -0.0468 -0.0907
25847W        W32447  26.966   0.402  18.125 -0.3320 -0.3187 -0.4920
25848W        W32448  26.373   0.863   0.804 -0.0127  0.1251  0.0601
25849W        W32449  13.661   4.801   4.617 -0.2681 -0.1948  0.0562
25850W        W32450  30.449   3.304   0.577 -0.1680  0.1823 -0.4974
25851W        W32451   3.141   6.651   7.000 -0.0225 -0.0275  0.1886
25852W        W32452   2.994   2.323  24.452 -0.3514  0.1054 -0.3328
25853W        W32453   7.281   4.695  16.945  0.2637  0.0641 -0.0642
25854W        W32454   1.349   2.289   9.633  0.0382  0.1805 -0.2847
25855W        W32455  21.387   6.271  22.205  0.0359  0.0962 -0.0086
25856W        W32456  11.059   1.843  15.382 -0.1551  0.2767 -0.2335
25857W        W32457  10.812   7.856  11.196  0.1866 -0.0291 -0.0699
25858W        W32458   9.952   6.966   5.308  0.3317 -0.1714 -0.2356
25859W        W32459  27.942   3.860  15.274  0.0858  0.4477  0.1099
25860W        W32460   1.001   3.534   7.537 -0.0158  0.0614  0.0694
25861W        W32461  17.674   5.024   9.710  0.4399  0.0409 -0.5628
25862W        W32462  26.907   2.965  18.496 -0.0080 -0.1308  0.0160
25863W        W32463  30.835   4.949   2.499  0.0274  0.2498 -0.0053
25864W        W32464  20.388   7.197  11.046 -0.3319 -0.0373  0.1750
25865W        W32465  12.381   7.407  24.040  0.2600  0.0517  0.1938
25866W        W32466  18.819   6.595  25.505  0.0030 -0.0164  0.0826
25867W        W32467  25.344   1.481  20.336  0.0625  0.0037 -0.2812
25868W        W32468  17.087   3.886   2.490  0.0322  0.1488 -0.2716
25869W        W32469  13.314   1.040   2.942 -0.0966  0.1937  0.2522
25870W        W32470  26.178   5.899   1.416  0.4755  0.2796 -0.4805
25871W        W32471  24.843   5.755   0.989 -0.0664 -0.1730  0.0257
25872W        W32472  12.413   7.806   0.237 -0.0107 -0.2510 -0.1880
25873W        W32473  17.435   2.739  23.850  0.0396  0.0284 -0.2942
25874W        W32474   7.952   7.667   1.088  0.2438  0.3385  0.0834
25875W        W32475  19.969   0.162  10.720  0.1215 -0.0472  0.2421
25876W        W32476  23.891   3.379   1.290 -0.2420  0.2873 -0.1680
25877W        W32477  28.104   5.259   1.049  0.1186  0.1327  0.0306
25878W        W32478   6.534   2.691   2.219  0.2013  0.0207 -0.2514
25879W        W32479  25.424   7.206  21.901  0.0996 -0.1678 -0.2802
25880W        W32480  14.090   3.546  16.437 -0.1580  0.1578 -0.0891
25881W        W32481  29.508   2.444  24.409  0.1089 -0.0465  0.0329
25882W        W32482  15.889   7.076   7.878 -0.2015 -0.1471 -0.1171
25883W        W32483  24.901   4.631   2.712  0.0090  0.1762 -0.0218
25884W        W32484  19.293   1.676   2.914 -0.2051 -0.1830 -0.1515
25885W        W32485  23.270   5.959   7.581 -0.0083 -0.1507  0.1065
25886W        W32486  16.725   7.201  16.824 -0.0156  0.1185 -0.0583
25887W        W32487   8.334   5.951   6.126 -0.2291 -0.1593 -0.0881
25888W        W32488  29.601   0.492   9.945  0.0527  0.0560  0.0782
25889W        W32489  23.792   5.043  25.783 -0.0419 -0.0930  0.0446
25890W        W32490  10.469   2.478  25.800  0.4524 -0.2377 -0.2724
25891W        W32491  30.967   6.349   9.459  0.1437 -0.2828  0.0265
25892W        W32492  13.179   3.660  24.793  0.1217  0.1531 -0.2485
25893W        W32493  25.777   7.482  17.349  0.1161 -0.2120 -0.1670
25894W        W32494  15.255   7.756   3.404  0.0691  0.0316 -0.0564
25895W        W32495  28.315   1.118  16.221  0.2138  0.1963 -0.4633
25896W        W32496  24.153   5.951   3.552 -0.2041  0.0875  0.0776
25897W        W32497  23.473   5.940  11.792 -0.2415  0.3648  0.0521
25898W        W32498  22.144   7.736   3.078  0.3428 -0.0278  0.0689
25899W        W32499  11.982   4.437   8.396 -0.0333 -0.1891  0.6189
25900W        W32500   5.496   1.162   6.168  0.3396 -0.1362  0.1115
25901W        W32501  20.567   5.764   4.210 -0.0131  0.0431  0.0384
25902W        W32502   8.615   6.538  16.767 -0.1876 -0.2351  0.1160
25903W        W32503   2.597   0.031  20.289 -0.2423  0.0288 -0.3062
25904W        W32504  28.254   5.795  24.234 -0.3006  0.0064  0.1671
25905W        W32505  29.561   6.996  16.385 -0.2242  0.1010  0.1801
25906W        W32506  23.428   6.022  25.605 -0.0782  0.1214  0.1757
25907W        W32507  20.208   6.844  24.622  0.1839  0.1651 -0.0251
25908W        W32508  20.095   4.159   1.833 -0.0999 -0.0089  0.2145
25909W        W32509   3.771   3.067  25.532  0.4748 -0.1604  0.2329
25910W        W32510  14.064   0.561  17.463  0.1102  0.0531 -0.0623
25911W        W32511  25.291   7.289  10.853  0.2888  0.0626 -0.2047
25912W        W32512   6.073   2.062   2.021  0.0897 -0.1679 -0.5299
25913W        W32513  21.152   6.263   0.952  0.2643 -0.2679  0.0566
25914W        W32514  23.514   1.307  22.232 -0.1486 -0.0203 -0.1982
25915W        W32515  21.452   4.766   1.197 -0.1056  0.0996  0.1934
25916W        W32516  16.163   7.481   5.534  0.0694  0.2181 -0.0289
25917W        W32517   8.100   3.204  10.586  0.0771 -0.1935 -0.0427
25918W        W32518   1.994   3.226  20.476  0.1883  0.1174  0.0244
25919W        W32519   5.527   5.374  23.068  0.1736 -0.0598 -0.0890
25920W        W32520  12.178   6.620   1.709 -0.0561 -0.0635  0.1889
25921W        W32521   9.627   3.934  24.978 -0.0190  0.1481 -0.1051
25922W        W32522  10.533   1.280  24.902  0.1473  0.1028 -0.0744
25923W        W32523  24.504   6.315  21.905  0.2543  0.1964  0.0842
25924W        W32524  13.649   4.786  19.662  0.0385 -0.0839 -0.3013
25925W        W32525  26.110   6.960   6.836  0.0577 -0.2141 -0.0033
25926W        W32526  25.710   7.341   6.858 -0.3216 -0.1791 -0.1998
25927W        W32527   3.697   4.218   2.694 -0.1421 -0.1762 -0.2430
25928W        W32528  17.926   7.831   9.782 -0.1085 -0.0242 -0.0518
25929W        W32529  25.719   0.600  16.335  0.0570  0.1486  0.0528
25930W        W32530   8.812   7.199  15.192  0.0684  0.2147 -0.1369
25931W        W32531   0.363   3.251   0.781 -0.0854  0.2324  0.3415
25932W        W32532   6.294   3.917   8.939  0.0247 -0.0152  0.0157
25933W        W32533  10.325   3.535  22.441 -0.0248 -0.2546 -0.3447
25934W        W32534  10.687   3.257   0.822  0.0471 -0.3394  0.4162
25935W        W32535  23.366   0.763   8.112  0.1959  0.1365 -0.2027
25936W        W32536  20.134   2.148  21.092  0.0806  0.0260  0.1512
25937W        W32537  27.916   7.035  22.072 -0.1173 -0.1473 -0.0321
25938W        W32538   5.704   2.321   5.962  0.1776  0.0450  0.0963
25939W        W32539   6.294   2.649  22.929 -0.4914  0.2254 -0.1738
25940W        W32540  20.896   2.118  17.786  0.2331  0.2408 -0.0184
25941W        W32541   5.857   7.396  20.262  0.1347  0.0738 -0.1265
25942W        W32542   4.250   7.227  22.203  0.1747 -0.0178 -0.1421
25943W        W32543  28.794   6.585  18.552 -0.0974 -0.0085 -0.1509
25944W        W32544  23.309   0.478   0.172 -0.2362  0.2679  0.2645
25945W        W32545   2.473   7.416  24.662  0.0235 -0.2132  0.0006
25946W        W32546   0.618   1.146   9.205  0.0622  0.0933 -0.1179
25947W        W32547   1.253   3.938  15.544 -0.2754 -0.2693  0.2157
25948W        W32548   1.283   7.839   1.798 -0.0966 -0.0596 -0.0243
25949W        W32549  27.880   0.173   1.459  0.0394  0.0192  0.0745
25950W        W32550   7.960   0.781  24.263  0.0762 -0.0026 -0.0623
25951W        W32551  24.607   6.494  19.290 -0.0406 -0.2143 -0.1165
25952W        W32552   2.607   1.991   9.127 -0.2384 -0.0353 -0.0223
25953W        W32553   7.293   1.822   6.222 -0.0372  0.3104  0.1212
25954W        W32554  28.799   4.447   2.027  0.1711  0.0604 -0.0319
25955W        W32555  23.756   3.243   9.475 -0.1317  0.1360 -0.2853
25956W        W32556   6.019   5.309  22.711  0.1997 -0.2070  0.0594
25957W        W32557   8.047   1.936   8.634  0.1433  0.1201  0.0569
25958W        W32558   7.733   3.629  24.970  0.3878 -0.0166  0.0382
25959W        W32559  28.393   1.913  24.478 -0.2763  0.1546 -0.0095
25960W        W32560  29.421   2.110   0.683 -0.0717 -0.0108 -0.0391
25961W        W32561  24.349   7.651  10.356 -0.1048  0.1030  0.1175
25962W        W32562  30.029   3.368   7.824  0.0826 -0.1342 -0.2320
25963W        W32563  15.309   4.025   0.327  0.1573  0.0907  0.0170
25964W        W32564   1.175   4.652  17.582  0.1421  0.1216  0.0563
25965W        W32565  30.407   3.383  23.820 -0.0048 -0.0787  0.0275
25966W        W32566  31.190   5.030   7.642 -0.0596 -0.1923  0.2721
25967W        W32567  19.934   6.122   9.192 -0.0470  0.0158  0.0056
25968W        W32568  17.919   0.951  23.328  0.0963  0.0167  0.1623
25969W        W32569   9.794   3.849   5.174  0.3331  0.0143  0.0063
25970W        W32570  28.107   1.534  10.174  0.0028 -0.2763  0.0214
25971W        W32571  29.539   2.741  23.561 -0.1573 -0.2242  0.2026
25972W        W32572   0.915   7.568  23.287  0.2215  0.4524  0.0314
25973W        W32573  25.585   1.843   6.091  0.5571 -0.2590  0.0491
25974W        W32574   2.453   5.904   5.957  0.2191 -0.0617  0.0581
25975W        W32575   1.493   1.458   8.513 -0.0211 -0.0333  0.0783
25976W        W32576  12.913   6.601  17.833  0.0353 -0.0763 -0.0860
25977W        W32577  28.014   0.148  23.317 -0.4575 -0.3794 -0.0469
25978W        W32578   3.894   5.325  23.826  0.0990  0.2619 -0.2665
25979W        W32579  20.141   2.182  20.507  0.3466 -0.0702  0.1800
25980W        W32580   4.794   5.387   0.817 -0.1367  0.2688  0.1601
25981W        W32581   0.617   7.096  15.937 -0.1627 -0.2198  0.0834
25982W        W32582  30.944   0.098  22.007 -0.1246  0.0769 -0.2068
25983W        W32583  19.837   7.613  19.639 -0.0578  0.1386 -0.0250
25984W        W32584  28.153   0.825  16.615 -0.0127 -0.0119 -0.0652
25985W        W32585  31.324   6.366  15.086  0.2653 -0.0162 -0.0239
25986W        W32586  23.211   4.894  20.348  0.0748 -0.0604  0.1212
25987W        W32587  21.406   2.056  20.302 -0.2518 -0.0304 -0.2965
25988W        W32588   1.775   5.055  18.247 -0.0749  0.0583 -0.0927
25989W        W32589   4.725   2.568  21.262 -0.2378 -0.1381 -0.1650
25990W        W32590   6.929   1.827  24.172 -0.2276  0.2579  0.3531
25991W        W32591   0.293   4.399  26.052  0.1709 -0.0728 -0.0943
25992W        W32592   5.540   6.048  22.377 -0.3019 -0.2229  0.0672
25993W        W32593   9.653   4.616  22.531 -0.1946 -0.1115 -0.2605
25994W        W32594  22.487   6.982   2.944  0.0762  0.0912 -0.3392
25995W        W32595  24.649   4.982  24.573  0.1946 -0.0700  0.2191
25996W        W32596  18.019   3.881   7.891  0.2109  0.2331 -0.0707
25997W        W32597   8.258   2.143  25.027 -0.0153 -0.3658 -0.0636
25998W        W32598  13.932   2.290  25.181 -0.1680  0.0157  0.3257
25999W        W32599  21.141   6.262  23.768  0.1457 -0.1222  0.1139
26000W        W32600  25.608   4.755  15.792 -0.1312  0.4584  0.0120
26001W        W32601  19.719   0.480  20.754 -0.0250  0.1138 -0.0131
26002W        W32602  12.570   6.021  10.189  0.0300  0.1025  0.1207
26003W        W32603   0.304   4.837  10.675 -0.2282 -0.0911 -0.0811
26004W        W32604  26.433   5.254   2.414  0.1112 -0.0554 -0.2335
26005W        W32605   0.719   2.965  21.768  0.3342  0.0565  0.0782
26006W        W32606   6.816   5.893  20.461  0.2246  0.0144 -0.1858
26007W        W32607  23.284   7.857  25.541  0.1366 -0.3342  0.1322
26008W        W32608  30.880   4.298   7.466  0.0878  0.1488 -0.1966
26009W        W32609  12.487   6.056  16.161  0.1364 -0.1060 -0.0335
26010W        W32610  26.484   6.843  24.245  0.2460  0.1604 -0.2244
26011W        W32611   0.711   5.351   9.943 -0.1770 -0.1803  0.0497
26012W        W32612  18.923   2.474   5.307 -0.0022  0.1118  0.0942
26013W        W32613  25.723   4.128   1.213  0.1336  0.0053  0.1233
26014W        W32614   0.115   6.476  23.794 -0.2114 -0.4031  0.1444
26015W        W32615   6.530   7.073  10.350 -0.1985 -0.0285 -0.1947
26016W        W32616  14.098   6.622  19.480  0.1316  0.1672  0.2722
26017W        W32617   1.243   0.307  22.568  0.0289  0.1555 -0.0586
26018W        W32618   6.279   5.434   3.372 -0.2048  0.1801  0.0468
26019W        W32619  25.949   6.067  19.425  0.3422 -0.1456  0.2770
26020W        W32620  16.170   2.998   9.205 -0.0326 -0.2455 -0.0062
26021W        W32621  17.065   3.014  17.467  0.0938  0.1036 -0.2210
26022W        W32622   1.590   4.164   1.743  0.1475 -0.1224 -0.2155
26023W        W32623  11.816   5.644  19.434 -0.0297  0.3662  0.0082
26024W        W32624  13.027   7.858  25.131 -0.4416 -0.2590  0.0936
26025W        W32625  10.626   4.426  21.038  0.0374 -0.3076 -0.2329
26026W        W32626  17.679   2.293  18.488 -0.3463 -0.1476 -0.0674
26027W        W32627  23.899   7.029   7.293 -0.0275 -0.0845 -0.1096
26028W        W32628  16.102   1.841  18.756  0.0950  0.0452 -0.1840
26029W        W32629  31.296   5.417  14.398 -0.2946 -0.1216 -0.0450
26030W        W32630  10.042   2.658   7.708  0.1601 -0.4014 -0.0951
26031W        W32631   6.986   5.794   5.071  0.1952 -0.1434 -0.1208
26032W        W32632   0.953   2.287  20.258  0.1096 -0.1701 -0.0657
26033W        W32633  11.805   5.154  22.553 -0.1445  0.1471  0.1027
26034W        W32634  30.732   3.166  23.504  0.0676  0.2093  0.1161
26035W        W32635  18.682   2.707   8.599 -0.0157 -0.0206  0.3443
26036W        W32636  27.293   5.338  22.450  0.2328  0.0135 -0.3064
26037W        W32637  12.584   1.414   7.059 -0.1067 -0.0353 -0.3140
26038W        W32638  26.302   3.569  21.379 -0.2499 -0.0298 -0.4920
26039W        W32639  17.333   7.354  24.907  0.2156 -0.1744 -0.0720
26040W        W32640  28.240   4.166  19.851 -0.1664  0.0716  0.1080
26041W        W32641  17.181   5.390   5.511 -0.3371 -0.0735  0.2302
26042W        W32642  11.933   1.562   9.835  0.2058  0.0611  0.3549
26043W        W32643  13.905   7.658   0.009  0.3496 -0.0435  0.0142
26044W        W32644   6.478   1.721  20.953  0.1177 -0.1365  0.1248
26045W        W32645  11.129   0.551  20.052  0.2902 -0.3005  0.1503
26046W        W32646  18.438   6.291  16.515  0.0403  0.1732 -0.0090
26047W        W32647  13.770   2.093   8.671 -0.0101  0.0350 -0.2375
26048W        W32648  27.381   6.123  17.112  0.0795  0.4116 -0.0401
26049W        W32649   0.742   7.053   5.631 -0.1752 -0.1815  0.0258
26050W        W32650  17.717   0.531   7.479 -0.0172  0.2518 -0.0686
26051W        W32651  26.575   0.631  22.063  0.2263  0.2550  0.1507
26052W        W32652   8.269   7.134   8.468 -0.2184  0.2367 -0.0764
26053W        W32653  12.061   2.562   9.761  0.3464 -0.0869  0.0018
26054W        W32654  12.838   7.270  23.774  0.2610  0.1364  0.2468
26055W        W32655   5.475   1.605  17.253 -0.1962 -0.0568 -0.0416
26056W        W32656  30.580   6.418   0.091 -0.0569 -0.2209 -0.1644
26057W        W32657  28.163   3.122  19.942  0.2217  0.3015 -0.2864
26058W        W32658  31.204   4.993   3.397  0.1134  0.4131  0.2767
26059W        W32659   1.029   3.057   2.097 -0.1175  0.1283 -0.4109
26060W        W32660  27.377   2.809  25.315  0.0459  0.4077  0.1316
26061W        W32661  28.781   2.206  15.650 -0.1181 -0.2557 -0.1915
26062W        W32662   4.790   1.497   4.663 -0.1501 -0.0671 -0.3015
26063W        W32663  14.410   5.465   3.702  0.1727 -0.2461 -0.2485
26064W        W32664   8.625   5.837   0.080 -0.2571 -0.0947  0.0006
26065W        W32665  17.877   0.638  22.341  0.0677  0.1125 -0.1573
26066W        W32666   6.658   1.608   0.110  0.0485 -0.2574 -0.2162
26067W        W32667  25.863   2.310  24.276 -0.1621  0.2638  0.0412
26068W        W32668   5.081   1.188  21.263  0.0542  0.0479  0.2474
26069W        W32669   7.388   2.490   2.817  0.0088  0.2732 -0.2295
26070W        W32670  31.020   2.375   9.824 -0.0886 -0.1177  0.0688
26071W        W32671  27.038   4.884  15.139 -0.2825  0.1730  0.0346
26072W        W32672  20.687   7.799   7.800  0.2414 -0.2233 -0.0998
26073W        W32673  13.889   1.478   5.521 -0.1878  0.1630 -0.2058
26074W        W32674   1.962   4.106   3.617 -0.2277  0.0003 -0.0297
26075W        W32675  12.376   5.642   9.791 -0.3772 -0.3404  0.2861
26076W        W32676  24.876   2.317   6.887 -0.0519  0.0549 -0.0540
26077W        W32677  10.731   4.647  18.197  0.3641 -0.0396 -0.0846
26078W        W32678   5.661   5.408   7.317 -0.1014  0.1230 -0.0022
26079W        W32679   5.881   1.920  17.370 -0.1353  0.1376 -0.0134
26080W        W32680  12.548   0.027  24.847 -0.3004  0.1057  0.0323
26081W        W32681  15.883   7.590  16.711 -0.1642 -0.0004  0.0180
26082W        W32682  17.510   5.663  18.481 -0.0428 -0.3980 -0.1563
26083W        W32683  28.086   6.559  15.367 -0.1365  0.3236 -0.1532
26084W        W32684  28.178   6.864  22.560 -0.1714 -0.1146  0.1395
26085W        W32685  15.319   4.365  18.234  0.1148 -0.5973  0.3118
26086W        W32686  21.470   2.780   9.657 -0.0626  0.2442 -0.3611
26087W        W32687  25.352   7.322  10.204 -0.0649  0.0623 -0.0996
26088W        W32688  30.665   5.665   1.617  0.1118  0.3245 -0.1934
26089W        W32689  28.609   0.677   5.164 -0.2729  0.0875 -0.0055
26090W        W32690  25.991   4.798  15.457  0.0051 -0.2374 -0.0430
26091W        W32691   5.171   5.424  25.676 -0.2598 -0.1971  0.3044
26092W        W32692   8.865   3.456  19.017 -0.2783 -0.0826 -0.1446
26093W        W32693  15.521   1.697   7.652  0.0723 -0.1702 -0.2163
26094W        W32694  15.497   0.792   7.295  0.0671  0.1568  0.3248
26095W        W32695  16.153   5.845  10.199 -0.0485  0.1572  0.0203
26096W        W32696  20.435   0.831  22.539 -0.4594 -0.0147  0.0201
26097W        W32697   5.089   2.062   9.789  0.1950 -0.0570  0.2151
26098W        W32698  28.998   7.196  17.100 -0.2593 -0.0423 -0.2380
26099W        W32699   1.681   4.380  20.823  0.0333  0.1097 -0.1850
26100W        W32700  30.592   3.926  17.795  0.0775  0.3153 -0.1999
26101W        W32701  21.702   4.873  25.154  0.6631  0.3571  0.0272
26102W        W32702  20.506   6.293  21.648 -0.0910  0.1501  0.0569
26103W        W32703  23.806   5.633  22.587  0.1738  0.0075  0.0175
26104W        W32704  20.663   3.472   8.856 -0.0779 -0.1169  0.1542
26105W        W32705  12.700   0.560  21.758 -0.0699 -0.2548 -0.1334
26106W        W32706  25.674   4.283  19.881 -0.3063 -0.0511  0.1570
26107W        W32707  19.530   1.602  18.585  0.4479 -0.0080  0.0271
26108W        W32708  26.928   4.671  19.477  0.2149 -0.0933  0.1930
26109W        W32709  17.152   7.082  21.638 -0.0476  0.2341  0.1247
26110W        W32710   8.326   0.968   2.505  0.4327 -0.1230  0.1020
26111W        W32711  16.902   0.256  24.824  0.0003 -0.2133  0.1827
26112W        W32712   2.620   7.693  19.306 -0.0988 -0.2296  0.1682
26113W        W32713   5.463   0.877  18.545  0.0962 -0.0724  0.1963
26114W        W32714  12.873   6.488   3.573 -0.1040 -0.1975 -0.1269
26115W        W32715  23.760   0.834  16.407 -0.3188  0.0535  0.4941
26116W        W32716  27.765   1.438   5.593  0.1575 -0.2860 -0.0928
26117W        W32717  21.007   5.129   8.008  0.2389  0.3169 -0.1731
26118W        W32718  12.488   2.069  25.718  0.0340 -0.2336  0.1894
26119W        W32719  23.132   2.866  17.742 -0.0730  0.0667  0.0018
26120W        W32720  14.715   5.238  22.176 -0.2239  0.2591 -0.3490
26121W        W32721   8.101   4.620  18.622 -0.1369 -0.1653  0.3140
26122W        W32722   3.235   4.776   0.174 -0.2278  0.2067 -0.0172
26123W        W32723  19.013   2.349   4.798 -0.1792  0.1823  0.0999
26124W        W32724  21.032   2.614   9.759 -0.0575  0.2273  0.0925
26125W        W32725   8.368   1.172  17.103 -0.1025  0.1338 -0.1628
26126W        W32726   2.018   1.274   7.878 -0.1515 -0.1125 -0.2358
26127W        W32727   9.721   2.666  17.987 -0.0755  0.0223  0.0085
26128W        W32728   0.899   2.980   2.633  0.0062  0.0216  0.3102
26129W        W32729   4.243   7.151  19.802  0.0108 -0.0905 -0.3626
26130W        W32730   8.583   6.232  25.029 -0.0325 -0.0997 -0.1362
26131W        W32731  28.622   5.844   2.680 -0.2153  0.0207 -0.2523
26132W        W32732   5.066   3.421   3.668  0.2004 -0.0507  0.0600
26133W        W32733  29.517   6.572   6.038 -0.0934 -0.0118  0.0773
26134W        W32734  12.403   5.190   7.966  0.0137  0.0278 -0.1844
26135W        W32735   1.580   1.159   9.309 -0.0304  0.0627 -0.2786
26136W        W32736  24.452   6.275   1.698 -0.1933  0.1854 -0.0077
26137W        W32737  25.643   3.253   3.386  0.1036 -0.1735 -0.1994
26138W        W32738  20.336   0.741   1.001  0.1458 -0.2581  0.1489
26139W        W32739  17.811   6.318   4.553  0.2584 -0.0591  0.0609
26140W        W32740   6.038   7.831  18.381 -0.0114  0.1486  0.0578
26141W        W32741  20.057   3.723   8.098 -0.0891 -0.2318  0.0733
26142W        W32742  27.927   0.199   0.956 -0.3921  0.2142 -0.0218
26143W        W32743  14.806   1.366   5.370 -0.0067 -0.1662  0.2675
26144W        W32744  19.729   3.209  24.474  0.0859  0.0521 -0.2466
26145W        W32745  24.326   1.525  20.845  0.1282 -0.1567 -0.0761
26146W        W32746  23.962   1.096  19.502  0.2875  0.0159  0.2044
26147W        W32747   9.153   6.485  10.929  0.0766  0.0478 -0.1113
26148W        W32748  10.177   0.904   8.077  0.2861  0.2789 -0.2151
26149W        W32749  28.021   4.929  21.862 -0.0615  0.0447 -0.1500
26150W        W32750  11.566   7.755   6.620  0.1091  0.0365  0.1432
26151W        W32751  12.499   4.966  15.037 -0.1255  0.1576 -0.2620
26152W        W32752   5.178   1.737  23.735 -0.2184  0.4341  0.0344
26153W        W32753  18.411   1.666   8.513  0.2897 -0.0903 -0.2330
26154W        W32754  17.405   4.982   9.227 -0.1349  0.1703 -0.0857
26155W        W32755   9.893   4.374  16.625 -0.0107 -0.2550 -0.2770
26156W        W32756  28.398   2.512  20.571  0.0869  0.0284  0.0458
26157W        W32757  17.139   7.616   6.543 -0.0022  0.0165 -0.0808
26158W        W32758  14.656   5.336  19.303 -0.0970 -0.3205 -0.3245
26159W        W32759  14.053   6.989  18.207  0.0346 -0.0006  0.1069
26160W        W32760   6.275   5.033  25.928 -0.1965 -0.1576 -0.0819
26161W        W32761  28.501   4.135  23.128  0.1916  0.0006 -0.2139
26162W        W32762  24.723   7.770   8.336  0.0439  0.1924 -0.0769
26163W        W32763   6.009   5.571   2.968  0.1790  0.1779 -0.2048
26164W        W32764   6.121   6.173   7.891  0.2080 -0.0981  0.0339
26165W        W32765  15.101   4.274  20.019 -0.4051  0.2278  0.0488
26166W        W32766   7.260   6.344  11.189 -0.0968 -0.1943 -0.2457
26167W        W32767  17.881   3.593   5.950 -0.0677  0.0318  0.0108
26168W        W32768  10.769   4.224   5.125  0.2505 -0.2608  0.0408
26169W        W32769  12.905   6.715  21.871  0.2045 -0.0645  0.1323
26170W        W32770  28.048   2.683  18.377  0.1078 -0.0574  0.1048
26171W        W32771  10.725   4.856  18.982 -0.0676  0.0830  0.2803
26172W        W32772   9.412   5.638  19.291  0.2348 -0.1822  0.0041
26173W        W32773  22.780   1.817  21.796  0.2061  0.0302  0.1124
26174W        W32774  24.913   2.768   1.709 -0.3113 -0.1507 -0.2054
26175W        W32775  29.207   3.540   4.669  0.0919  0.1581 -0.1886
26176W        W32776  25.018   3.709   5.572 -0.2343 -0.2763  0.0052
26177W        W32777   2.689   4.434  15.633 -0.0776  0.1767  0.1002
26178W        W32778  26.135   4.075  22.644  0.2083 -0.1444  0.0215
26179W        W32779  13.486   0.451  23.046  0.1508  0.3679 -0.3869
26180W        W32780  30.040   2.939  22.680  0.1780 -0.2298 -0.1080
26181W        W32781  29.949   2.316  15.663 -0.0658  0.4796  0.1540
26182W        W32782  16.103   3.850  22.063  0.1992  0.0794 -0.0132
26183W        W32783   0.783   0.363   0.198 -0.0491 -0.0361  0.2324
26184W        W32784   3.605   6.730  10.059 -0.0399  0.0615 -0.2570
26185W        W32785  10.858   2.417  11.202  0.0451 -0.2630  0.3479
26186W        W32786  15.584   3.105   5.746 -0.0848  0.0425  0.0111
26187W        W32787  23.846   5.587   0.951  0.0124 -0.4211  0.0423
26188W        W32788   9.599   6.618  20.398 -0.1619  0.0557 -0.0257
26189W        W32789   3.718   5.142  17.186  0.0313  0.1011 -0.2350
26190W        W32790  22.193   4.484  23.606  0.1707 -0.0931  0.0682
26191W        W32791  28.087   3.323   2.706  0.0810 -0.3806 -0.0577
26192W        W32792  25.913   1.896  22.819  0.2614 -0.2852  0.1746
26193W        W32793   1.279   5.819   5.469 -0.0980 -0.2587  0.1374
26194W        W32794   7.651   6.555  16.161 -0.2717 -0.0725  0.1389
26195W        W32795   3.448   0.183   2.687 -0.0898 -0.1052 -0.3701
26196W        W32796  27.106   5.994  18.325  0.1350 -0.2368 -0.1846
26197W        W32797  22.229   6.231  22.268 -0.0530 -0.0595  0.3121
26198W        W32798  25.913   3.148   6.242  0.0916 -0.3687 -0.3503
26199W        W32799  13.657   2.343   2.803  0.0412 -0.1230  0.3598
26200W        W32800   5.056   2.700   8.011 -0.0740 -0.0612 -0.3606
26201W        W32801  11.792   1.391  18.908 -0.3354 -0.0581  0.1247
26202W        W32802  22.197   5.172   2.518  0.0545 -0.1002 -0.3243
26203W        W32803  27.310   6.304  15.722 -0.1529  0.0373 -0.1186
26204W        W32804  25.413   7.617  20.341 -0.1088  0.2036 -0.2429
26205W        W32805  20.705   3.699  19.502 -0.1918  0.0394 -0.1221
26206W        W32806  23.994   7.859  23.002 -0.0287  0.3958  0.2646
26207W        W32807   9.065   5.257   5.821  0.2577 -0.0645  0.1253
26208W        W32808  16.310   1.349  10.406 -0.1600  0.0843  0.1145
26209W        W32809   3.292   5.255   2.802 -0.0830 -0.1980 -0.0964
26210W        W32810  24.865   4.050  20.266 -0.0495  0.0513  0.1847
26211W        W32811  30.999   0.904  22.090  0.1281  0.1020 -0.3005
26212W        W32812  11.965   3.391  25.148 -0.1919 -0.0961 -0.0730
26213W        W32813   9.756   3.382  16.614  0.1913  0.0880  0.1593
26214W        W32814   1.091   4.242  18.974 -0.0466 -0.0208 -0.2323
26215W        W32815  10.448   6.495  17.406  0.3722 -0.0497  0.4468
26216W        W32816  20.937   3.829  21.003 -0.0996 -0.1048 -0.1448
26217W        W32817  12.326   3.051  23.336 -0.0288 -0.0972  0.1219
26218W        W32818  22.811   2.863   0.776 -0.0237  0.0352 -0.0296
26219W        W32819   4.791   1.499  22.141 -0.0298 -0.0152  0.1836
26220W        W32820  19.364   7.488  20.886 -0.3000 -0.1628  0.1276
26221W        W32821  21.844   7.206  20.452 -0.1430 -0.2085  0.0509
26222W        W32822  19.025   0.103  17.428 -0.2078  0.0925 -0.1403
26223W        W32823  31.196   1.774  15.337  0.0752  0.2863 -0.2306
26224W        W32824  26.193   5.684  11.468  0.0604 -0.1673  0.1735
26225W        W32825   8.395   5.954   1.051 -0.0970  0.1559  0.0378
26226W        W32826  27.345   2.285   5.469  0.0158 -0.2308 -0.0500
26227W        W32827  26.017   5.666  23.617  0.0868  0.0091 -0.3076
26228W        W32828  24.117   2.059  20.679 -0.1784 -0.0842  0.1856
26229W        W32829  17.934   1.898   3.013  0.2317  0.0600 -0.0477
26230W        W32830  19.716   1.657   1.271 -0.2679 -0.3626  0.3220
26231W        W32831   3.298   5.522   9.177  0.3000 -0.1042 -0.3874
26232W        W32832  13.612   0.454  18.253 -0.1601  0.0175  0.0128
26233W        W32833  17.208   6.538  10.870  0.0344 -0.1781 -0.1658
26234W        W32834   4.201   2.946   4.491  0.4065 -0.1061 -0.2200
26235W        W32835  21.480   2.900   4.746  0.0312  0.1458 -0.6235
26236W        W32836  28.422   2.313  22.390  0.3449 -0.4095 -0.0783
26237W        W32837   2.411   5.399   9.594  0.0310 -0.0176 -0.4123
26238W        W32838   8.926   5.118   8.452 -0.0554  0.0763 -0.2329
26239W        W32839  19.765   3.373  16.553  0.1495  0.1451 -0.0810
26240W        W32840  14.822   4.841  19.462 -0.2056  0.1651 -0.0014
26241W        W32841  12.194   2.387  21.437  0.2096  0.0054 -0.1920
26242W        W32842  31.006   4.350  18.199 -0.2061 -0.0929 -0.1949
26243W        W32843   0.081   6.690   7.283 -0.2876 -0.1045 -0.2084
26244W        W32844  13.018   4.989   3.734 -0.0040  0.1563  0.0752
26245W        W32845  20.403   1.078   6.878 -0.0645 -0.2425 -0.0169
26246W        W32846   5.444   3.011  22.903 -0.1023  0.1933  0.2821
26247W        W32847  21.505   5.273  23.791  0.2771 -0.0128  0.1253
26248W        W32848   2.662   3.504  22.566 -0.0610  0.1986  0.2837
26249W        W32849  22.780   6.212  19.274  0.1603 -0.0336 -0.1197
26250W        W32850   5.078   1.922  24.190 -0.0210  0.3131  0.1402
26251W        W32851   9.632   1.193   4.213 -0.2574 -0.0519 -0.2463
26252W        W32852  14.947   4.927   2.325 -0.0059 -0.0008 -0.4394
26253W        W32853  20.276   5.098  17.440 -0.1158 -0.0608 -0.0919
26254W        W32854   8.670   0.429   3.679 -0.0792 -0.0568 -0.0613
26255W        W32855   8.660   3.489  23.129  0.2017  0.3232  0.1020
26256W        W32856   2.503   1.555   3.630 -0.0254 -0.1787  0.1130
26257W        W32857  11.520   3.584  21.587  0.1800 -0.0474 -0.1931
26258W        W32858   4.087   2.834  22.029 -0.1122  0.0779  0.0874
26259W        W32859  13.142   1.733  25.139 -0.1374 -0.0507 -0.1318
26260W        W32860  14.788   7.232  17.072 -0.1111 -0.4746  0.0868
26261W        W32861  15.208   4.649   7.900 -0.0168  0.0575 -0.0171
26262W        W32862  15.330   1.155  19.442  0.2311  0.1231 -0.1342
26263W        W32863   3.116   0.244  21.542  0.1342 -0.1319  0.0927
26264W        W32864  11.533   3.714  24.330  0.1659  0.1976 -0.4136
26265W        W32865  27.887   4.716   4.466  0.2614 -0.0934  0.2608
26266W        W32866  23.912   3.718  17.416 -0.1338  0.0558  0.3210
26267W        W32867  23.343   1.037   0.131 -0.0643  0.2932 -0.0009
26268W        W32868  19.894   5.622  25.282 -0.1114 -0.1316  0.1578
26269W        W32869  28.757   6.264   7.880  0.1705 -0.1618 -0.0838
26270W        W32870   5.213   4.343  17.285 -0.0091  0.1268  0.3764
26271W        W32871  21.865   4.301  23.997  0.0002 -0.2378  0.0316
26272W        W32872  29.359   3.756   1.298 -0.1120  0.3381  0.1513
26273W        W32873  29.303   4.188   2.916  0.0981  0.0452  0.0469
26274W        W32874  12.578   1.961  20.690  0.2206 -0.0673  0.1502
26275W        W32875  22.840   4.568  20.630  0.2612 -0.0393  0.1904
26276W        W32876  29.388   2.535  19.739  0.4256 -0.0376 -0.0771
26277W        W32877  21.171   0.054   2.536 -0.2132  0.1132 -0.0918
26278W        W32878   1.653   0.851   0.410  0.1938 -0.3698  0.0758
26279W        W32879  30.674   2.547  18.446  0.5419 -0.0207  0.0928
26280W        W32880   4.086   6.116  19.987 -0.0875 -0.1819  0.0335
26281W        W32881  14.214   3.360  17.964  0.4074  0.1747 -0.0347
26282W        W32882   4.586   2.278  20.776  0.3491  0.1425 -0.2980
26283W        W32883  18.980   4.948   1.777  0.1078  0.2388  0.3006
26284W        W32884   4.323   4.407  18.902  0.0276 -0.0198  0.1264
26285W        W32885  12.379   1.185  25.799  0.0837 -0.2832 -0.0800
26286W        W32886  21.956   2.395  10.286  0.1946 -0.0259  0.0178
26287W        W32887  20.699   5.823   7.914  0.1639  0.1414  0.1727
26288W        W32888  11.256   3.499   7.884  0.0068  0.0116 -0.1686
26289W        W32889  31.100   4.367  14.800 -0.2576  0.0503  0.2170
26290W        W32890  31.382   1.196   2.673  0.1939 -0.0743  0.3181
26291W        W32891   3.684   0.375  10.248 -0.2958  0.2196 -0.3699
26292W        W32892  12.455   2.232  17.291 -0.2627  0.1868  0.1858
26293W        W32893  29.338   4.598  21.716 -0.2964  0.2824 -0.2372
26294W        W32894  30.158   5.419   4.512  0.2002  0.1580  0.3091
26295W        W32895   2.860   1.802  15.557 -0.3476 -0.0417  0.0547
26296W        W32896  26.267   5.138   5.627  0.1374  0.2261 -0.0466
26297W        W32897   5.996   1.281  17.164 -0.0214 -0.1081  0.0493
26298W        W32898  22.411   2.270   5.339  0.3440 -0.0845 -0.2162
26299W        W32899  28.511   7.058  17.211 -0.0051  0.0587 -0.0576
26300W        W32900  31.281   0.505   8.741 -0.4038 -0.0878 -0.3970
26301W        W32901  15.178   1.469   5.715 -0.0809 -0.3199  0.0284
26302W        W32902   1.232   6.304  22.978  0.1839  0.2454  0.0236
26303W        W32903   1.099   7.689   5.805 -0.0614  0.2476 -0.0836
26304W        W32904  11.276   4.513   0.741 -0.2800 -0.0484 -0.3032
26305W        W32905  29.848   0.305   4.845  0.2367 -0.0676  0.0508
26306W        W32906  21.009   2.471  22.471  0.1922  0.1128  0.1517
26307W        W32907  14.789   6.505   7.583  0.0331 -0.0385 -0.0856
26308W        W32908  11.655   2.002   8.982 -0.3856  0.0734  0.1917
26309W        W32909  21.544   0.726  23.756 -0.3467  0.0906  0.0776
26310W        W32910  10.540   2.176   0.164  0.4162 -0.2510 -0.0314
26311W        W32911  17.859   5.049  26.075 -0.0858  0.0709 -0.2099
26312W        W32912   2.093   3.191  21.304  0.1376 -0.2901 -0.0039
26313W        W32913  19.658   3.283   5.906 -0.0128 -0.0163  0.0890
26314W        W32914  20.355   5.452  20.915  0.0795 -0.0182  0.1271
26315W        W32915  11.678   7.632  20.378 -0.3704 -0.0346 -0.0406
26316W        W32916  16.408   5.852  17.204  0.0734 -0.0497 -0.0981
26317W        W32917  27.039   4.584   3.903 -0.1672  0.0932 -0.0686
26318W        W32918   9.802   3.693   9.590 -0.1148  0.0289 -0.0444
26319W        W32919  25.404   2.654  22.702 -0.3579  0.1314  0.0203
26320W        W32920  22.821   3.996   2.598  0.1400  0.1967  0.2086
26321W        W32921   9.416   4.887   8.595 -0.2222  0.1080 -0.3365
26322W        W32922   1.647   3.635   1.742 -0.2101  0.0464 -0.1802
26323W        W32923  23.360   6.566  10.048  0.0963 -0.2100 -0.2343
26324W        W32924  16.023   3.765   1.171 -0.0235  0.1028  0.0262
26325W        W32925  17.303   0.015   7.390  0.1124  0.3318 -0.0922
26326W        W32926   8.470   3.242   5.568 -0.0096 -0.1379 -0.0304
26327W        W32927  21.331   7.374   4.307 -0.1597 -0.2284  0.0815
26328W        W32928  24.430   3.665   1.976 -0.0806  0.1257 -0.3464
26329W        W32929  21.174   4.314   9.160  0.0954 -0.2032  0.0797
26330W        W32930  10.636   6.901   7.040 -0.1222 -0.1163  0.2429
26331W        W32931  17.288   7.031   9.897  0.0202  0.0808 -0.0840
26332W        W32932   9.822   1.460  20.300 -0.1981  0.0587  0.0384
26333W        W32933  15.975   0.552   0.321 -0.1821  0.3239 -0.3205
26334W        W32934  13.307   1.603  25.625 -0.1200 -0.2721  0.0627
26335W        W32935   5.531   1.971  22.888  0.0829 -0.1204 -0.1742
26336W        W32936   8.232   1.882   2.980 -0.2328 -0.5099  0.3310
26337W        W32937  25.992   5.935  22.299  0.0501 -0.1490  0.2001
26338W        W32938   6.673   5.355   7.897  0.0475  0.1183 -0.3833
26339W        W32939  11.827   6.878   7.675  0.1516 -0.0267 -0.3146
26340W        W32940  28.196   1.241   4.723  0.0213 -0.1384  0.3184
26341W        W32941  21.137   0.453   8.328 -0.0213  0.1823 -0.1949
26342W        W32942  11.748   1.203  17.385  0.3094 -0.2980  0.1233
26343W        W32943  16.899   2.624   6.516  0.1225  0.1959  0.0926
26344W        W32944   0.225   2.390   2.537 -0.1776  0.2236  0.0485
26345W        W32945  24.089   2.275   4.119 -0.1189  0.1427  0.1759
26346W        W32946  24.724   2.924   0.914  0.0568 -0.3353  0.0532
26347W        W32947   4.667   6.513  21.869  0.0607  0.1300 -0.1353
26348W        W32948  17.580   5.838   9.009  0.0549  0.0518 -0.2601
26349W        W32949  21.328   3.898   8.362  0.1080  0.1001  0.1366
26350W        W32950   9.746   0.218  25.512  0.0997 -0.0096  0.1997
26351W        W32951  12.011   0.317  16.094 -0.2858  0.0587  0.0704
26352W        W32952  20.433   5.166  10.941  0.0700 -0.0011  0.0022
26353W        W32953  17.657   5.540   9.789 -0.2141 -0.2842  0.2108
26354W        W32954  30.252   5.005  24.434 -0.2000  0.0487 -0.1039
26355W        W32955   4.600   0.398  19.771 -0.2580  0.1027  0.0744
26356W        W32956  10.629   3.892   4.671  0.2123 -0.0461  0.2107
26357W        W32957  27.740   7.847  23.960  0.1173  0.0331  0.1043
26358W        W32958   3.494   0.735  14.878  0.0716  0.2848  0.0104
26359W        W32959  28.161   1.534   1.976  0.3547  0.0284  0.0416
26360W        W32960  17.175   7.609   2.934  0.1772  0.1875 -0.1915
26361W        W32961   0.410   2.368   8.912 -0.1910  0.0224  0.1373
26362W        W32962   8.945   7.011  22.852 -0.0623  0.1422 -0.0551
26363W        W32963  31.190   6.259  19.634 -0.0052  0.0313  0.3818
26364W        W32964  25.502   6.916   0.612  0.0286  0.0128  0.0064
26365W        W32965  21.426   5.741  10.212  0.1214 -0.2317  0.1330
26366W        W32966  13.378   1.630  18.817  0.0833  0.0072  0.2486
26367W        W32967  20.471   6.655  11.106  0.2824  0.0630 -0.1597
26368W        W32968  24.805   7.287   4.450  0.2031  0.1523 -0.0186
26369W        W32969  15.690   4.023  25.283 -0.0407 -0.2582 -0.1931
26370W        W32970  17.912   4.043   5.343  0.3043 -0.0216 -0.1421
26371W        W32971   8.985   5.479   1.215 -0.2115  0.2481  0.3762
26372W        W32972  27.130   6.511  18.367 -0.2786 -0.3114 -0.0070
26373W        W32973   0.048   5.541  22.379  0.2694 -0.1442  0.1623
26374W        W32974  10.998   0.444   8.010  0.1288 -0.0593 -0.2087
26375W        W32975  27.581   6.268  18.097 -0.2760 -0.2596  0.2082
26376W        W32976  20.384   7.784   8.688 -0.1576 -0.1509  0.2493
26377W        W32977   6.308   3.486  19.999  0.0136  0.4521 -0.0281
26378W        W32978  19.816   1.845  18.980 -0.0933 -0.0691  0.0378
26379W        W32979   9.176   5.218   3.872 -0.0121 -0.1348 -0.0844
26380W        W32980  17.419   7.558   8.293  0.0663 -0.2064 -0.0674
26381W        W32981   2.154   3.281   7.110  0.2112  0.2279 -0.0126
26382W        W32982  23.498   3.632  23.403  0.1603  0.0503 -0.0602
26383W        W32983   5.541   0.567  25.835 -0.0258  0.0424  0.1726
26384W        W32984  10.542   6.207  21.475 -0.2430 -0.0805 -0.0944
26385W        W32985   1.553   2.193   8.961  0.0856  0.2447  0.1015
26386W        W32986   9.516   1.733   2.102  0.0696 -0.0684  0.0225
26387W        W32987  23.730   4.885   3.800  0.0052 -0.0236 -0.1826
26388W        W32988  19.850   5.130  17.100 -0.0255 -0.0101 -0.3356
26389W        W32989  20.606   4.483  22.112 -0.3009  0.1502 -0.2162
26390W        W32990  21.695   5.679   9.719 -0.0329  0.1700  0.1384
26391W        W32991   5.790   6.702   3.644  0.0894  0.1572 -0.0047
26392W        W32992   7.856   4.339   8.663 -0.1341  0.1711 -0.1133
26393W        W32993   9.465   7.217   7.467  0.1813 -0.1564 -0.0388
26394W        W32994   4.812   0.698   3.978 -0.0570 -0.0796 -0.2802
26395W        W32995  30.607   5.330  10.218 -0.0118 -0.1223 -0.0575
26396W        W32996  24.206   0.936   0.217  0.0310 -0.0553 -0.2880
26397W        W32997  29.589   4.539  15.552 -0.3220  0.0226  0.1380
26398W        W32998  26.131   3.107   1.903 -0.1549  0.1669 -0.0765
26399W        W32999  11.677   3.994  15.732 -0.1110  0.0583 -0.1912
26400W        W33000  24.418   2.846  25.214 -0.0500 -0.0560 -0.1699
26401W        W33001  23.421   6.658  16.932 -0.0577 -0.1328  0.0933
26402W        W33002  22.705   0.020  16.643  0.0232  0.0056  0.0952
26403W        W33003   3.633   4.363   9.243 -0.1859  0.2162 -0.3510
26404W        W33004  28.283   1.493  23.108 -0.1988 -0.4348  0.1162
26405W        W33005  24.546   7.392   9.981  0.1987  0.1621 -0.2000
26406W        W33006  15.014   1.453   0.116  0.0031  0.0723 -0.1955
26407W        W33007  22.106   0.978   1.202  0.2945 -0.2626  0.1768
26408W        W33008   7.950   6.496  19.992 -0.0584  0.0905 -0.1129
26409W        W33009  16.822   3.568   8.912  0.2188 -0.0217  0.0121
26410W        W33010  13.563   2.855  19.940 -0.1233 -0.2742  0.3514
26411W        W33011  25.865   4.501  19.472 -0.2616 -0.0119  0.1316
26412W        W33012   5.653   2.129  16.966 -0.1132 -0.3964  0.0438
26413W        W33013  17.724   3.270  24.003  0.2236  0.1300 -0.1408
26414W        W33014  22.389   1.521   3.408  0.1333  0.0843 -0.2087
26415W        W33015  12.534   3.384   8.163  0.1562 -0.2062 -0.2495
26416W        W33016   3.187   0.844  25.622  0.2530  0.0553  0.0836
26417W        W33017  15.571   6.797  10.302 -0.0593  0.0700 -0.0693
26418W        W33018   4.102   5.194  19.547 -0.0011 -0.0809  0.3088
26419W        W33019  28.833   5.286   2.687  0.3474 -0.2791  0.2503
26420W        W33020  28.940   6.986  22.149  0.0557 -0.2075  0.2460
26421W        W33021  25.398   3.804  20.652 -0.2202  0.0927 -0.4037
26422W        W33022   8.048   5.814   1.398  0.2710 -0.0154  0.2292
26423W        W33023   2.112   6.086   9.983  0.2778 -0.0012  0.1552
26424W        W33024  15.743   2.229   9.028 -0.0416 -0.1341  0.0696
26425W        W33025  11.886   7.819   4.439  0.0956 -0.0701 -0.1816
26426W        W33026  25.829   7.553   9.276  0.2077 -0.1822  0.0005
26427W        W33027  25.715   6.181   3.448 -0.2042 -0.1246  0.2868
26428W        W33028   1.521   7.636   2.527 -0.0045 -0.2161 -0.0074
26429W        W33029  12.554   6.124   2.429 -0.1331  0.0034  0.3815
26430W        W33030  17.618   7.350   6.533  0.0207  0.0339  0.3524
26431W        W33031  11.409   1.685  18.189 -0.1646 -0.2489  0.1036
26432W        W33032  17.102   2.902   2.071  0.0488 -0.2928 -0.0455
26433W        W33033  17.251   6.994   1.378  0.0390  0.0562  0.0880
26434W        W33034  10.760   6.505  17.874 -0.1634  0.0338 -0.1622
26435W        W33035  25.164   7.125  17.980 -0.0617  0.0946  0.2005
26436W        W33036   6.738   1.870   8.733 -0.0457 -0.1120  0.0432
26437W        W33037  21.580   7.633   3.898  0.0188 -0.0783 -0.0353
26438W        W33038  30.573   6.039   9.238 -0.0215  0.2053  0.2247
26439W        W33039   0.273   0.307   4.737  0.1157  0.1094  0.0141
26440W        W33040  29.446   1.314  25.403  0.1764 -0.2727  0.2818
26441W        W33041  29.816   4.528  23.069 -0.1565 -0.3287  0.3564
26442W        W33042  15.406   4.904  10.569  0.3203  0.0171 -0.0350
26443W        W33043  11.831   4.397   0.252 -0.2466 -0.0916  0.0314
26444W        W33044   4.011   5.448   2.379 -0.3070  0.1283  0.4724
26445W        W33045  27.289   0.540  21.806  0.2600 -0.2174 -0.0920
26446W        W33046  26.877   1.671   7.149 -0.2118 -0.0862  0.2042
26447W        W33047  19.890   6.545  25.533 -0.1631 -0.1605 -0.1250
26448W        W33048  13.483   4.343   2.323  0.0321  0.2066 -0.2481
26449W        W33049  21.695   5.357  16.538  0.2088  0.0988  0.2579
26450W        W33050  16.156   3.719  16.567 -0.1251 -0.0841 -0.0356
26451W        W33051  11.860   2.394   8.768  0.0055 -0.1260  0.1533
26452W        W33052   7.452   2.462   4.804 -0.0720  0.2646  0.1510
26453W        W33053   0.104   3.544   8.177  0.1763  0.3852  0.1260
26454W        W33054  22.620   4.690   9.309  0.1316  0.1067 -0.1452
26455W        W33055   7.103   0.122  20.523  0.2997 -0.2216 -0.0795
26456W        W33056   7.813   4.071   8.249  0.1972 -0.0130  0.0882
26457W        W33057  18.600   2.721  20.843  0.2553  0.0719  0.1994
26458W        W33058  23.986   6.343  11.326 -0.0965 -0.1217  0.3341
26459W        W33059  17.473   5.274  18.938 -0.0168  0.0020  0.1696
26460W        W33060  23.179   2.150  19.238 -0.0154  0.2555 -0.1887
26461W        W33061  25.367   1.897  15.494 -0.0389  0.1517  0.1270
26462W        W33062  10.104   0.687   4.091 -0.0837  0.0864 -0.1944
26463W        W33063  30.996   0.082   9.421  0.2436 -0.1798  0.1332
26464W        W33064  18.649   0.303  23.236  0.0294 -0.0796 -0.1795
26465W        W33065   2.493   4.930  16.511  0.1233 -0.2232  0.1713
26466W        W33066   0.004   7.444  23.588  0.2405  0.0099  0.1241
26467W        W33067  17.827   5.827   6.843 -0.3070 -0.0267  0.0304
26468W        W33068  28.982   7.111  18.551  0.1959  0.4032 -0.1501
26469W        W33069  27.243   4.392  11.706 -0.0322  0.1549 -0.0696
26470W        W33070  13.131   1.394   7.645  0.0856 -0.3522  0.0071
26471W        W33071  27.807   7.078  26.081  0.0438  0.0119  0.1670
26472W        W33072  11.140   5.742  21.122 -0.1090  0.2841 -0.0119
26473W        W33073  30.674   6.589   9.105 -0.2196 -0.0317 -0.2820
26474W        W33074  13.030   0.955   6.718  0.1669 -0.1451 -0.1129
26475W        W33075  24.649   4.041  24.845  0.0390  0.1387  0.0751
26476W        W33076  27.731   7.220   7.227  0.2623  0.1508 -0.1861
26477W        W33077  11.224   2.476   7.808 -0.1879 -0.2449  0.1174
26478W        W33078   5.855   1.065   4.894 -0.3257  0.1835 -0.2197
26479W        W33079  14.461   2.405   3.822 -0.0535 -0.3254 -0.0959
26480W        W33080  10.958   4.107   7.008 -0.1079 -0.1474  0.1956
26481W        W33081  26.228   1.111  22.460 -0.0107  0.0669 -0.1410
26482W        W33082  10.017   0.724  10.363  0.2132 -0.1400  0.3330
26483W        W33083  19.987   7.170  23.745  0.1402  0.0813  0.0962
26484W        W33084   0.580   7.270   3.518 -0.0983  0.2582 -0.3622
26485W        W33085  23.431   6.706   6.979  0.1297  0.0833 -0.1356
26486W        W33086  12.742   7.020  19.712  0.0286  0.1365  0.1401
26487W        W33087  18.945   4.631  24.842 -0.0254  0.2395  0.2402
26488W        W33088   0.726   2.664  15.945 -0.3640 -0.1946 -0.0844
26489W        W33089  16.414   4.661  15.251 -0.0626 -0.0038 -0.0583
26490W        W33090  13.795   1.753  24.976  0.1175 -0.1796 -0.3863
26491W        W33091  27.832   7.253  22.571  0.0199 -0.3970  0.1333
26492W        W33092   6.019   7.060  25.768 -0.2378  0.1770 -0.0572
26493W        W33093  12.240   1.245   9.169 -0.0308 -0.0353 -0.2463
26494W        W33094  23.726   1.218   2.112 -0.1020  0.0463 -0.0848
26495W        W33095  10.740   0.182   7.638 -0.2182 -0.0672 -0.1785
26496W        W33096   3.363   2.771  17.450 -0.0060  0.2239 -0.1401
26497W        W33097   9.097   2.354  18.519 -0.2874  0.0168  0.2903
26498W        W33098  20.280   3.202  23.766  0.2753  0.2514  0.0076
26499W        W33099  12.042   7.093   9.945 -0.0415  0.0466 -0.0321
26500W        W33100  27.295   5.046   0.442 -0.0453  0.1809  0.1075
26501W        W33101  23.448   1.071  17.745  0.1453 -0.0263 -0.2124
26502W        W33102  20.347   0.990  16.418  0.0853 -0.2694  0.0536
26503W        W33103   6.351   2.791  10.286 -0.3825 -0.0218  0.0314
26504W        W33104  19.236   0.136  21.538  0.0598 -0.3056 -0.1584
26505W        W33105  16.508   4.731   3.801 -0.2379  0.1442 -0.1536
26506W        W33106  12.287   6.707  23.409  0.1840  0.1371 -0.1251
26507W        W33107   5.194   1.906  25.252 -0.3617  0.0211  0.1041
26508W        W33108  19.662   2.810   2.300 -0.1224 -0.0087  0.0175
26509W        W33109  17.424   6.493   5.457 -0.0092 -0.3105  0.0346
26510W        W33110  26.337   1.909  20.929  0.2362 -0.2877  0.1118
26511W        W33111  12.646   2.787   8.954  0.1137  0.0480 -0.3820
26512W        W33112   9.916   4.470   5.948  0.2748  0.0241 -0.1582
26513W        W33113  17.485   1.998   1.161 -0.2306  0.0529  0.1910
26514W        W33114  23.794   3.459  22.955  0.2926  0.0022  0.0557
26515W        W33115  12.053   6.832  16.862  0.0954 -0.1162 -0.0640
26516W        W33116   8.678   5.859  25.658  0.0807  0.1307  0.0206
26517W        W33117  20.980   2.769   1.198 -0.0840 -0.0315  0.0455
26518W        W33118  24.580   0.359  21.114 -0.2763 -0.3339 -0.1561
26519W        W33119  15.374   4.881   9.418  0.0333 -0.2117 -0.3345
26520W        W33120   1.446   1.912  24.087 -0.1574  0.2440  0.0646
26521W        W33121  15.253   1.089   9.591 -0.0389 -0.0383 -0.2593
26522W        W33122  26.934   6.896   0.603 -0.2860 -0.0124 -0.1727
26523W        W33123  27.927   1.118  21.686  0.0475  0.1041 -0.1119
26524W        W33124  24.925   3.671  25.634 -0.0645 -0.0158  0.2402
26525W        W33125   4.951   6.127  24.450 -0.3958  0.2454 -0.2089
26526W        W33126  17.735   2.033  25.590 -0.0978  0.1830  0.0738
26527W        W33127   6.497   1.442  17.131  0.2178 -0.2643  0.2960
26528W        W33128   1.195   4.557   8.035 -0.1844 -0.3495  0.3295
26529W        W33129  28.586   2.140  20.768  0.0273  0.2410 -0.2917
26530W        W33130  29.543   1.171   7.184 -0.0850 -0.1397  0.0822
26531W        W33131   8.293   2.768  15.185  0.1798  0.0091  0.0388
26532W        W33132  27.665   7.812  18.124  0.3662 -0.0496  0.0449
26533W        W33133  12.678   7.285   3.852 -0.0669 -0.0036  0.0797
26534W        W33134  13.734   4.164  10.435  0.0128 -0.0650 -0.0537
26535W        W33135  26.484   7.512   9.853  0.0766 -0.0022  0.3074
26536W        W33136  18.384   4.600  22.229  0.0976 -0.0925 -0.0411
26537W        W33137  13.850   1.144   2.758 -0.0975  0.1431 -0.0234
26538W        W33138   2.263   4.453  20.966 -0.2492 -0.2723 -0.2004
26539W        W33139   2.152   4.636  25.874 -0.0616  0.0517 -0.3193
26540W        W33140  24.432   7.638  19.539 -0.3903 -0.0771 -0.0074
26541W        W33141  17.810   4.535   8.612  0.1108 -0.0769  0.2406
26542W        W33142   7.955   7.301  20.385 -0.1682  0.0408 -0.3168
26543W        W33143   5.122   5.456   6.101 -0.1438  0.0611 -0.1245
26544W        W33144  25.710   0.268   7.192  0.1973 -0.0995  0.2889
26545W        W33145  20.225   0.673   3.666 -0.1423 -0.3644 -0.1364
26546W        W33146  11.794   4.711  20.472  0.1211 -0.1011  0.0482
26547W        W33147  27.657   3.914   7.259 -0.1437 -0.0162 -0.0385
26548W        W33148  12.662   1.045   9.315  0.0500 -0.1068 -0.0390
26549W        W33149  11.394   4.310   1.465 -0.2827  0.1220  0.3336
26550W        W33150   5.418   1.666  21.192  0.1914  0.2096  0.2209
26551W        W33151  31.226   6.451   5.177  0.2504 -0.1359  0.0169
26552W        W33152  18.357   4.025  21.413 -0.1302  0.0733  0.0402
26553W        W33153   2.233   7.238  18.449 -0.0496  0.0423  0.1423
26554W        W33154  28.936   6.742  17.258 -0.4231 -0.1219 -0.0713
26555W        W33155  30.691   3.674  19.105 -0.0344  0.1130 -0.1100
26556W        W33156   9.660   2.785  19.161  0.4645  0.2282 -0.0654
26557W        W33157  14.483   0.015   4.507  0.0309  0.0089 -0.0400
26558W        W33158  20.867   3.590  25.934 -0.1120 -0.1113  0.0414
26559W        W33159  26.234   7.245  23.065 -0.3461  0.1102  0.0616
26560W        W33160  26.891   5.231  16.698  0.1704  0.1013 -0.0004
26561W        W33161  18.561   0.009  16.757 -0.1501 -0.1526  0.0309
26562W        W33162   6.487   4.023  15.537  0.0205 -0.2319  0.2868
26563W        W33163   9.107   4.698  18.304  0.0057 -0.0871 -0.0948
26564W        W33164  16.758   6.587   2.184 -0.1390 -0.0457 -0.1698
26565W        W33165  28.584   6.549  16.253  0.1996  0.0061 -0.0547
26566W        W33166   4.562   4.992   8.788  0.1142  0.0962 -0.1725
26567W        W33167  27.298   2.734  18.240  0.2944  0.2360  0.1169
26568W        W33168  12.981   5.843  15.933  0.0892  0.0131 -0.0638
26569W        W33169  31.440   3.188  18.190  0.1195 -0.1512  0.0477
26570W        W33170  17.156   1.748  10.519 -0.4138 -0.3641  0.0477
26571W        W33171   9.884   7.139   3.027 -0.1663 -0.0663 -0.0283
26572W        W33172   4.571   7.559  21.985  0.0621  0.2608  0.0195
26573W        W33173   2.803   4.631   8.966 -0.1122  0.0855  0.0252
26574W        W33174  15.504   1.203  25.194 -0.2780 -0.0050  0.0603
26575W        W33175  14.629   6.327  22.246  0.1406 -0.1214 -0.1962
26576W        W33176   0.189   1.936   2.668 -0.2057 -0.3084  0.2827
26577W        W33177  13.256   1.858   4.837  0.2320  0.0276  0.2482
26578W        W33178   6.513   6.243   2.753  0.0898  0.4288 -0.0530
26579W        W33179   0.338   4.984   5.623  0.1257  0.1161 -0.0505
26580W        W33180  31.200   7.297   3.488 -0.1186  0.0014 -0.0706
26581W        W33181  10.628   6.591  15.298 -0.1840  0.2480 -0.2970
26582W        W33182  25.052   2.096   4.550  0.1583  0.1544  0.2664
26583W        W33183  27.030   7.421  26.025 -0.0293  0.1492  0.2872
26584W        W33184  31.034   6.370   3.627  0.3265 -0.1155 -0.0184
26585W        W33185  10.511   3.506  16.094  0.2429  0.1124  0.0772
26586W        W33186  19.952   4.728   6.550 -0.2532 -0.1852  0.0256
26587W        W33187   1.321   0.584   8.514  0.0826 -0.0564 -0.0449
26588W        W33188   2.146   2.487  10.171  0.1561  0.2736  0.0095
26589W        W33189  10.793   1.722   4.308 -0.1549 -0.2231  0.0726
26590W        W33190  21.903   0.001  22.495 -0.2052 -0.2907  0.1101
26591W        W33191  21.568   4.571  16.483 -0.1671  0.2157  0.1229
26592W        W33192  10.897   3.563   6.791  0.1038 -0.2125  0.1854
26593W        W33193  22.178   6.661  22.043 -0.0920 -0.1173 -0.0394
26594W        W33194  10.231   0.911   1.075  0.1416 -0.1702 -0.2888
26595W        W33195  15.501   2.054   2.829 -0.0476  0.1707  0.2482
26596W        W33196   8.391   6.958  15.406  0.0783  0.0333 -0.4136
26597W        W33197  13.339   5.753  10.634  0.1828  0.0601  0.1131
26598W        W33198   6.209   1.361  16.194 -0.1555  0.1022 -0.0297
26599W        W33199  10.809   4.937  25.845  0.3383 -0.0527 -0.1544
26600W        W33200   8.063   3.897   1.597 -0.2182 -0.3791 -0.1246
26601W        W33201   6.770   3.991  22.122  0.0457 -0.1696  0.1571
26602W        W33202   3.025   0.436  20.236  0.1211  0.1449 -0.1781
26603W        W33203  16.307   5.109  21.153  0.1108 -0.2582 -0.4025
26604W        W33204   2.998   1.515  18.785 -0.2014  0.1472 -0.4114
26605W        W33205  12.679   1.033   7.394 -0.1410 -0.4635 -0.0227
26606W        W33206  21.681   1.261   6.355 -0.1294 -0.0574  0.1058
26607W        W33207  15.354   4.944  18.367  0.1760  0.1075  0.1357
26608W        W33208  12.485   1.393   8.204  0.0273 -0.0473 -0.0134
26609W        W33209   9.763   6.835  19.241 -0.0194  0.0118 -0.0250
26610W        W33210  21.577   7.114  19.441 -0.1774 -0.0835  0.1236
26611W        W33211   6.250   7.436   6.260  0.0376  0.1669  0.2504
26612W        W33212  28.709   4.498  21.666 -0.1696 -0.3156 -0.1413
26613W        W33213  28.796   6.385   8.401 -0.3447 -0.3610 -0.1490
26614W        W33214  10.442   1.019  25.335 -0.1819  0.0684  0.0220
26615W        W33215   6.854   7.279   4.283  0.2386 -0.1355  0.1771
26616W        W33216  16.531   6.481  24.853 -0.2792  0.0539 -0.0646
26617W        W33217   0.381   5.488  21.427 -0.3017  0.0790  0.1266
26618W        W33218   6.156   5.271  25.127 -0.1340 -0.0678  0.2371
26619W        W33219   4.909   2.313  19.630 -0.2640 -0.0456  0.1728
26620W        W33220  28.175   5.930   3.595 -0.1008 -0.1407  0.0567
26621W        W33221  22.846   1.646  25.735 -0.3328  0.0168 -0.0004
26622W        W33222   7.141   4.398   8.111 -0.0188 -0.1482  0.0561
26623W        W33223  29.243   7.664  23.897 -0.1412  0.2810 -0.1417
26624W        W33224  30.717   6.826  23.548 -0.1318  0.1693 -0.0358
26625W        W33225  19.690   3.559  25.608 -0.0818  0.1580 -0.1850
26626W        W33226  22.216   2.992   3.930 -0.2667 -0.0167  0.1486
26627W        W33227   7.861   4.625   0.511 -0.0735 -0.1169  0.0355
26628W        W33228  14.340   5.148  25.688 -0.3765 -0.3293 -0.3241
26629W        W33229   3.044   0.233  22.616 -0.0287  0.1775 -0.0546
26630W        W33230  22.333   3.720   4.221  0.3705  0.1432  0.0257
26631W        W33231  15.525   0.278   8.169 -0.0724 -0.0925 -0.0257
26632W        W33232  22.609   3.422   3.959  0.2560 -0.1392  0.1986
26633W        W33233   1.950   2.444   4.413  0.1666 -0.1185  0.2351
26634W        W33234  22.870   4.577  22.762  0.1041  0.0720  0.0536
26635W        W33235   8.292   1.834  10.410  0.2939  0.3042  0.3268
26636W        W33236   0.684   0.932   3.668 -0.3027  0.1381 -0.0992
26637W        W33237  30.114   7.008  14.374  0.0108  0.2147 -0.0106
26638W        W33238   6.958   3.930   7.344 -0.3674  0.0452  0.2972
26639W        W33239  19.117   1.684  22.520 -0.2149  0.3737 -0.0100
26640W        W33240  30.250   4.325   8.747  0.0247 -0.0622 -0.2053
26641W        W33241  20.360   3.207  17.585  0.2770 -0.0141  0.0617
26642W        W33242  15.372   1.115   3.485  0.3632 -0.0076  0.0442
26643W        W33243   8.001   1.228  24.860 -0.0323 -0.5356 -0.0408
26644W        W33244   8.534   7.400  22.632 -0.2190 -0.3951 -0.3581
26645W        W33245  30.621   2.017  17.245 -0.0417 -0.0340 -0.0419
26646W        W33246  28.849   2.809   1.865  0.0475  0.1171  0.0405
26647W        W33247  25.756   6.413  15.810  0.0514  0.1048 -0.3136
26648W        W33248  16.405   1.085   3.630 -0.0256 -0.2133 -0.0204
26649W        W33249  12.388   3.137  22.413 -0.1731  0.1725  0.2917
26650W        W33250  15.420   3.981   9.135  0.2640  0.1867 -0.2896
26651W        W33251   0.612   5.988   2.640 -0.1380  0.0141 -0.2351
26652W        W33252   7.432   3.165   9.818  0.0190  0.0098  0.1080
26653W        W33253  26.376   3.037  20.726 -0.0267 -0.3018 -0.0072
26654W        W33254   8.631   6.866   8.645 -0.0166  0.2479 -0.2118
26655W        W33255  22.653   0.422   7.315 -0.1861  0.0895  0.1464
26656W        W33256   3.875   7.281  23.900 -0.1807  0.0510  0.0957
26657W        W33257  22.844   0.005   6.065 -0.0339 -0.1197 -0.0759
26658W        W33258  16.422   2.807   8.784 -0.1954 -0.3084 -0.2440
26659W        W33259  26.765   0.819   5.798  0.2434  0.2753  0.0739
26660W        W33260   5.084   2.467   4.617  0.1591  0.2411  0.2342
26661W        W33261   2.481   6.300  18.428 -0.2434  0.1410 -0.0257
26662W        W33262  13.503   2.199  15.855 -0.1597  0.1401  0.0118
26663W        W33263   4.749   3.331  25.992 -0.0212 -0.1260 -0.3610
26664W        W33264  11.919   3.144  15.473  0.0995  0.1072  0.0506
26665W        W33265  15.948   2.607   3.544 -0.1489 -0.1798 -0.2400
26666W        W33266   2.478   0.083   0.931 -0.0264 -0.0681 -0.3455
26667W        W33267  25.072   3.858  15.077  0.2083 -0.1474  0.0874
26668W        W33268   2.268   1.711  25.870  0.0495 -0.0763  0.1501
26669W        W33269  19.699   5.304   5.430  0.0051  0.1554 -0.0461
26670W        W33270   9.819   3.640   4.064 -0.1915  0.2251  0.1567
26671W        W33271  13.881   6.735  21.863  0.0882 -0.0819 -0.2109
26672W        W33272   1.712   3.741   9.645  0.0378 -0.0750  0.3480
26673W        W33273   9.642   5.782  17.093  0.1067 -0.0231 -0.2293
26674W        W33274  15.021   4.443  16.233 -0.2695 -0.0469  0.0177
26675W        W33275   7.504   6.335  21.267 -0.0352  0.2845  0.3203
26676W        W33276   6.579   2.758  21.176 -0.2373 -0.1349  0.3350
26677W        W33277  24.578   3.906   0.700 -0.0038 -0.2159 -0.0791
26678W        W33278  28.601   6.065   0.161  0.0953 -0.3695  0.2405
26679W        W33279  25.852   7.524  21.176  0.0896 -0.0332 -0.2444
26680W        W33280  23.192   1.962  15.740  0.0299 -0.2189 -0.1681
26681W        W33281   9.946   7.377  17.156  0.1017 -0.3659  0.0710
26682W        W33282  11.000   5.700   6.982  0.0888 -0.0805  0.2298
26683W        W33283  24.205   2.557   6.855  0.5407 -0.2930 -0.1013
26684W        W33284  26.926   5.511   8.993 -0.1009 -0.2529 -0.2717
26685W        W33285   3.076   2.764   8.032  0.2373 -0.2334  0.1814
26686W        W33286   8.544   7.831   9.734  0.2643  0.0289 -0.0151
26687W        W33287  15.925   2.424  25.296 -0.0976 -0.3769 -0.0704
26688W        W33288   7.927   2.773   0.517 -0.1148  0.0698  0.0906
26689W        W33289  25.756   3.933   3.975  0.0360  0.4468  0.0278
26690W        W33290  11.851   5.976  20.972 -0.0651  0.1922  0.1661
26691W        W33291  23.189   5.453   2.513 -0.0027 -0.0525 -0.1857
26692W        W33292  16.322   0.582  23.951 -0.0664 -0.0604  0.0413
26693W        W33293  12.960   7.781   2.861 -0.2538  0.0426 -0.3707
26694W        W33294  12.569   7.482   2.061  0.0055 -0.0781  0.1454
26695W        W33295   6.445   0.739   5.975  0.2540 -0.0830 -0.0139
26696W        W33296  25.352   0.614  25.762  0.1590 -0.1704 -0.0323
26697W        W33297   9.008   1.193   7.792  0.1015  0.1337  0.0954
26698W        W33298  21.309   7.464   0.012 -0.2117 -0.0161 -0.0313
26699W        W33299   8.603   2.533  23.321 -0.0898  0.1505 -0.1535
26700W        W33300  29.499   0.510   2.082  0.0599  0.6085  0.1196
26701W        W33301  17.605   3.175   0.720  0.0707  0.1230  0.0528
26702W        W33302  10.715   2.143  19.841 -0.2403 -0.3769  0.5681
26703W        W33303  19.782   7.445  15.744 -0.0745 -0.0083  0.0724
26704W        W33304   5.834   0.178  15.697 -0.2719  0.1330 -0.2043
26705W        W33305  16.612   7.831   9.255  0.0425 -0.0744  0.0848
26706W        W33306  21.997   3.958  14.828 -0.1103  0.2463  0.0180
26707W        W33307  22.010   5.451  22.539 -0.1150 -0.1828 -0.0022
26708W        W33308  25.038   4.397   0.290  0.0929 -0.1296  0.0684
26709W        W33309   1.733   6.686   8.125 -0.0473  0.3627  0.0578
26710W        W33310   7.877   0.753  24.735 -0.1200  0.3564  0.1273
26711W        W33311   2.655   7.326   8.258  0.0919  0.0011 -0.0471
26712W        W33312   3.739   4.826  22.998  0.3403  0.2956  0.1655
26713W        W33313  20.098   2.459   6.344 -0.3307 -0.2604 -0.2755
26714W        W33314  10.950   7.784  15.776 -0.5105 -0.1325 -0.3386
26715W        W33315  17.495   4.224  10.392  0.0400  0.1230  0.2676
26716W        W33316  27.033   7.327  11.656  0.2651  0.2110  0.3228
26717W        W33317  31.241   2.184   5.204  0.1426  0.1341 -0.3216
26718W        W33318  22.748   7.079   4.899 -0.1702 -0.1845  0.0832
26719W        W33319  12.075   0.416   7.442  0.0290  0.2893 -0.0210
26720W        W33320   1.838   5.278   7.862 -0.0952 -0.2488 -0.1327
26721W        W33321   3.295   2.692  18.104 -0.2747 -0.2232 -0.1883
26722W        W33322   1.412   5.445  25.271  0.2128 -0.3264 -0.1750
26723W        W33323  29.649   0.199   1.196  0.3060  0.0353  0.0186
26724W        W33324  19.068   0.419   2.010 -0.1237 -0.3825  0.1109
26725W        W33325   5.399   3.619   5.862  0.0380 -0.2431 -0.2170
26726W        W33326  11.666   1.703  25.909  0.0452  0.2639  0.1039
26727W        W33327  17.524   3.794  21.736 -0.0572 -0.1800  0.0463
26728W        W33328  17.052   3.709   9.403 -0.3637 -0.2599 -0.0230
26729W        W33329   1.859   0.717   6.482 -0.1084 -0.0350 -0.3079
26730W        W33330  17.154   3.608   5.517  0.2834 -0.0010  0.1583
26731W        W33331  26.349   2.718  17.984  0.0760  0.1351 -0.2570
26732W        W33332   9.595   7.808  19.127  0.0862  0.3566  0.2032
26733W        W33333  23.539   0.517   9.082  0.1194  0.0826 -0.0208
26734W        W33334  18.913   5.250  22.468 -0.0101  0.2303 -0.0302
26735W        W33335  13.729   6.296  15.932  0.1419  0.2552 -0.4216
26736W        W33336  22.950   6.748   2.657 -0.1697  0.1962 -0.2513
26737W        W33337  31.162   5.319  17.017  0.3261 -0.1091 -0.3013
26738W        W33338  20.319   5.208  16.905  0.0911 -0.1557  0.0956
26739W        W33339  14.906   1.942   2.185 -0.1101 -0.4838 -0.0573
26740W        W33340   6.974   1.671   4.436 -0.0399 -0.3283  0.2840
26741W        W33341  26.404   7.205  19.427  0.1134 -0.1555  0.0474
26742W        W33342   0.365   2.677  18.938  0.5518  0.2838  0.1876
26743W        W33343  11.612   7.141  25.625 -0.2039 -0.2165  0.2101
26744W        W33344   2.986   1.479   1.900  0.0347 -0.1046 -0.1390
26745W        W33345  23.064   6.946  25.992  0.1077  0.2115  0.0948
26746W        W33346  21.342   0.015   3.588 -0.0139  0.1384 -0.2018
26747W        W33347  14.258   1.113  17.133 -0.0816 -0.1316 -0.0171
26748W        W33348  24.132   3.565  25.280 -0.0673  0.2044 -0.2626
26749W        W33349   2.905   2.744  24.201 -0.0862  0.1098 -0.0552
26750W        W33350   7.394   3.980  17.526  0.1572 -0.1929  0.0182
26751W        W33351  29.679   3.533  22.062  0.0884 -0.3150 -0.2053
26752W        W33352  15.118   0.222   2.931 -0.0864 -0.1580  0.2460
26753W        W33353  15.644   3.801  15.825  0.1737  0.2707 -0.1933
26754W        W33354  17.155   3.708   2.981 -0.1247 -0.0422 -0.0249
26755W        W33355  14.474   5.514  23.052 -0.0032  0.1080 -0.0215
26756W        W33356  13.349   6.280   7.734  0.1280 -0.1794 -0.0046
26757W        W33357  17.631   7.706   3.102  0.1113  0.0627  0.2485
26758W        W33358   0.981   1.187  18.714  0.2232  0.2943 -0.3482
26759W        W33359  17.151   0.782  18.356 -0.2296  0.0073 -0.1624
26760W        W33360  17.414   2.784  18.534  0.2919  0.0144  0.3381
26761W        W33361  12.772   6.516   3.077 -0.1833  0.0987  0.0113
26762W        W33362   4.066   3.177   7.100  0.3061  0.2915 -0.1582
26763W        W33363   5.459   1.992  10.205  0.0533 -0.2766  0.0047
26764W        W33364   7.042   5.898  11.053 -0.0077  0.3525 -0.0165
26765W        W33365   7.692   6.086  16.033 -0.2420 -0.0656  0.3546
26766W        W33366  29.266   4.258   1.926  0.0802 -0.0897  0.0784
26767W        W33367  11.209   1.784  16.568  0.1548 -0.0136 -0.1584
26768W        W33368   0.571   7.740  19.746  0.0861  0.0771  0.1236
26769W        W33369  26.099   3.944  15.402  0.0573  0.1585  0.2856
26770W        W33370  12.749   1.152  21.594 -0.1061 -0.1578  0.0475
26771W        W33371  30.609   4.359  16.940  0.1248  0.0851  0.0783
26772W        W33372   2.118   2.690   7.829  0.3546  0.0683  0.0264
26773W        W33373  24.426   7.815  19.017 -0.2711 -0.0699  0.1123
26774W        W33374  30.041   1.206  24.648 -0.0470 -0.2093  0.0285
26775W        W33375   8.263   2.985   1.187 -0.1694 -0.4261  0.0939
26776W        W33376   2.971   5.112   1.247 -0.1777  0.1557 -0.2688
26777W        W33377  13.969   0.819  21.507 -0.0040  0.0923 -0.1358
26778W        W33378   1.690   5.634  10.001 -0.0648 -0.0275 -0.3591
26779W        W33379   2.522   2.028  20.461 -0.0951  0.1213  0.0652
26780W        W33380   1.385   4.538  21.696  0.0480  0.0427 -0.1189
26781W        W33381  23.352   3.022  15.957 -0.0946  0.0984 -0.0885
26782W        W33382   8.042   4.768   3.616 -0.1190  0.2927  0.1477
26783W        W33383  29.122   5.563   2.289 -0.3457 -0.0596  0.1940
26784W        W33384   8.303   2.919  10.208  0.1188 -0.0618  0.2890
26785W        W33385  25.280   4.955   0.802  0.0181 -0.2073 -0.0504
26786W        W33386  10.752   7.213   9.079 -0.0633 -0.3121  0.0414
26787W        W33387  29.962   5.254  24.793 -0.1051 -0.0302  0.0631
26788W        W33388   4.273   3.345  20.976 -0.0619  0.0092 -0.1055
26789W        W33389  26.634   5.820  20.655  0.0699 -0.1411  0.2030
26790W        W33390   9.044   3.824   8.393 -0.0905 -0.2278 -0.0959
26791W        W33391  13.022   0.747  25.497 -0.0898 -0.1752 -0.3790
26792W        W33392  14.865   3.287   4.462 -0.0518  0.0973 -0.1961
26793W        W33393  21.404   0.838   0.353  0.3057 -0.1603 -0.2308
26794W        W33394  22.559   0.297   9.587 -0.1839  0.1373 -0.1822
26795W        W33395  12.397   6.690  15.506  0.4701 -0.0968  0.0192
26796W        W33396  27.235   6.803   6.642  0.0429  0.1737 -0.1132
26797W        W33397  18.050   4.490  21.411 -0.0725  0.1251  0.3591
26798W        W33398  14.419   5.797  19.083  0.0624  0.3175  0.0411
26799W        W33399   6.764   5.398   5.229  0.1528  0.0212  0.2402
26800W        W33400   2.602   5.097  23.515  0.0696  0.2026 -0.2495
26801W        W33401  16.909   7.573  24.855  0.0013 -0.0577 -0.1549
26802W        W33402   2.395   3.104  19.753  0.1706 -0.1292  0.4577
26803W        W33403  19.642   1.709  23.336 -0.0797 -0.4174 -0.0200
26804W        W33404   9.727   6.600   0.965  0.1708 -0.2230  0.2653
26805W        W33405   9.683   3.858  16.009 -0.3446  0.0798 -0.1363
26806W        W33406  15.401   0.703   7.793  0.2955 -0.1575 -0.2993
26807W        W33407  22.475   1.309  25.702 -0.0132 -0.1881 -0.0141
26808W        W33408  19.478   5.575   0.199 -0.3415  0.0285 -0.1189
26809W        W33409   6.922   3.044  17.972  0.1954 -0.0642  0.0697
26810W        W33410  25.451   4.843  19.584  0.0244  0.1347 -0.4475
26811W        W33411  24.146   7.580   5.840 -0.1584  0.0064 -0.1569
26812W        W33412  12.794   4.666  25.370 -0.1994 -0.0211  0.1276
26813W        W33413  25.091   6.979  23.229  0.0760  0.2536  0.5119
26814W        W33414   0.472   7.860  19.298  0.0092 -0.1825  0.2683
26815W        W33415   1.441   1.841   8.262  0.1436 -0.2065 -0.2099
26816W        W33416  27.522   5.138  23.576 -0.0144  0.1989 -0.0223
26817W        W33417  11.789   6.479   7.930 -0.0168  0.0193  0.2615
26818W        W33418  24.359   3.016   1.897 -0.0865  0.1391 -0.0659
26819W        W33419  26.580   6.964  10.221  0.1700  0.3905 -0.0538
26820W        W33420  17.377   1.879  25.237 -0.1043  0.0385 -0.0538
26821W        W33421  11.160   0.442   5.222 -0.0322 -0.1287  0.0836
26822W        W33422  10.995   2.425  19.204 -0.3404  0.3060 -0.2087
26823W        W33423  10.919   3.370  22.926  0.4458  0.0195 -0.1791
26824W        W33424   0.771   3.914  23.889  0.0648 -0.0736 -0.1078
26825W        W33425   3.188   4.563  15.421  0.0501  0.0653  0.0010
26826W        W33426   8.064   7.483  19.851  0.0102 -0.0952  0.1806
26827W        W33427  28.883   1.949  10.323 -0.0897  0.1561 -0.1044
26828W        W33428   5.747   0.281  24.363  0.1013 -0.0726 -0.1307
26829W        W33429  16.836   1.347   9.653 -0.1091  0.1014  0.1089
26830W        W33430  14.544   4.479   9.412 -0.2851  0.1799  0.2103
26831W        W33431  11.823   4.293  10.872 -0.2842 -0.0199  0.2651
26832W        W33432  24.886   0.363  16.905  0.1186  0.1271 -0.2127
26833W        W33433   7.776   1.808  17.181 -0.1097  0.3560 -0.2832
26834W        W33434  26.731   0.806  23.892 -0.0272 -0.4112 -0.1513
26835W        W33435  18.482   0.024  20.534 -0.2981 -0.0431 -0.1007
26836W        W33436   3.326   6.834   9.405 -0.1028 -0.4992 -0.0704
26837W        W33437  27.373   5.702  11.390  0.2513  0.2772  0.0508
26838W        W33438  27.436   3.720   8.986 -0.1060  0.1295 -0.1034
26839W        W33439   9.925   6.373  19.670  0.1037 -0.1437  0.1391
26840W        W33440   6.553   1.849   6.906  0.4815 -0.2346 -0.1153
26841W        W33441   6.687   3.003  15.895 -0.0117 -0.1482  0.0527
26842W        W33442   2.800   6.983  10.309  0.1630 -0.0617  0.1437
26843W        W33443   1.986   1.694   1.892  0.1033  0.2219  0.0722
26844W        W33444  29.242   5.140   4.989  0.0859  0.1901 -0.2586
26845W        W33445   3.381   7.781   5.184 -0.1600 -0.0543 -0.0848
26846W        W33446  25.012   1.365  25.176  0.0748  0.1589  0.1107
26847W        W33447   5.597   6.951  18.261 -0.0788  0.3511 -0.4031
26848W        W33448  27.681   0.514  21.423 -0.2373 -0.0345 -0.1279
26849W        W33449  18.145   7.032  18.429 -0.1926  0.2648 -0.2262
26850W        W33450   3.686   4.934  26.036  0.0543 -0.2388 -0.1551
26851W        W33451  20.947   4.520   2.598 -0.1273  0.2218  0.1310
26852W        W33452  10.598   2.398  25.314 -0.3178 -0.0127  0.0374
26853W        W33453  18.079   4.279   1.859  0.1471  0.1325 -0.1716
26854W        W33454  30.695   2.465  17.387 -0.2848 -0.1015  0.2080
26855W        W33455   9.313   5.788   2.542 -0.0738  0.1511  0.2015
26856W        W33456   9.671   0.505  25.946 -0.0148  0.4868 -0.0706
26857W        W33457   4.365   5.722  22.246 -0.1027 -0.1529 -0.1883
26858W        W33458  11.323   6.964   4.037 -0.0429  0.1286  0.1047
26859W        W33459   6.622   6.631   2.412  0.3325  0.0448 -0.0424
26860W        W33460  11.994   0.548   8.153  0.1285 -0.0358 -0.0963
26861W        W33461   1.201   4.102   6.138  0.1015  0.0114 -0.1016
26862W        W33462  24.124   1.457  18.528 -0.0272 -0.1481 -0.2051
26863W        W33463   1.550   1.632   2.794  0.2538 -0.0016  0.1510
26864W        W33464  21.521   0.439   0.674  0.1938  0.1504 -0.0258
26865W        W33465   4.462   3.525  23.700  0.0343  0.1607 -0.1035
26866W        W33466  11.546   2.111   0.058  0.1201 -0.2943 -0.0375
26867W        W33467  15.404   0.851   1.667  0.1916 -0.1552 -0.2960
26868W        W33468  18.429   0.868  18.683 -0.0308  0.0212  0.0524
26869W        W33469  25.092   5.062  16.766  0.0969 -0.0084 -0.0921
26870W        W33470  11.434   3.634  19.684 -0.0660 -0.0070  0.0063
26871W        W33471  13.404   6.446  11.319  0.2989 -0.3056 -0.3260
26872W        W33472  28.118   3.007   1.095  0.1661 -0.2219 -0.0552
26873W        W33473  25.481   1.071  22.586  0.3918  0.1717  0.1809
26874W        W33474  10.647   6.593   0.295  0.1572  0.3131  0.0871
26875W        W33475   5.299   4.220   9.743 -0.1422  0.0125  0.0706
26876W        W33476   7.575   3.447   0.349 -0.2173  0.4300  0.1929
26877W        W33477  25.739   0.673  10.448 -0.0317  0.0062  0.1574
26878W        W33478  31.044   0.218  23.499 -0.0376  0.0027 -0.1526
26879W        W33479  14.718   0.190  18.575  0.2107 -0.3052 -0.0186
26880W        W33480   9.218   2.779   7.495 -0.0595 -0.1507 -0.2261
26881W        W33481   0.161   3.165   7.218 -0.2920  0.1635 -0.2844
26882W        W33482  21.366   5.118  18.467  0.2588 -0.2046 -0.0611
26883W        W33483   5.708   2.645   9.391  0.1924 -0.1023 -0.0494
26884W        W33484  10.754   5.276   9.331 -0.0428  0.1939  0.1052
26885W        W33485  26.790   3.848   7.321 -0.4460 -0.2470 -0.2411
26886W        W33486  25.788   6.550  16.774  0.1907  0.0477  0.4348
26887W        W33487   9.733   2.862   9.042  0.1382 -0.1771 -0.0302
26888W        W33488   5.560   4.484  21.979  0.1614  0.3311  0.1649
26889W        W33489   9.290   2.047   5.267  0.0007  0.1306 -0.0609
26890W        W33490   6.680   2.676  23.425  0.3087 -0.1821 -0.1317
26891W        W33491   8.010   3.715  20.619  0.0310 -0.0429 -0.0473
26892W        W33492  24.561   1.593  22.310 -0.0314  0.0241 -0.0410
26893W        W33493  21.642   3.581   6.316  0.0331 -0.1600  0.1294
26894W        W33494  11.371   7.854   3.618 -0.2890 -0.0333 -0.0987
26895W        W33495   9.815   1.805  16.753  0.1562 -0.2808 -0.0622
26896W        W33496   9.894   4.766   1.005  0.0909  0.1161 -0.0619
26897W        W33497  15.458   3.032  19.375  0.2705  0.1166 -0.1387
26898W        W33498  16.264   4.057  18.771 -0.2915  0.1667 -0.0584
26899W        W33499   6.342   3.544  23.257 -0.0658  0.0665  0.0102
26900W        W33500  18.787   7.147   5.618  0.2624 -0.3605 -0.1078
26901W        W33501   6.462   6.183  16.512  0.3530 -0.1354 -0.1954
26902W        W33502  19.116   3.409  22.093 -0.0723 -0.1023 -0.1133
26903W        W33503  22.635   2.480   0.431 -0.3415 -0.1464 -0.1595
26904W        W33504   9.958   7.752  16.710  0.2253 -0.3089  0.0756
26905W        W33505  18.764   6.901   8.436  0.1647  0.1339  0.1101
26906W        W33506  22.702   4.712  16.959 -0.2209  0.2046 -0.1982
26907W        W33507  16.427   3.556  25.670 -0.2790  0.3490  0.0413
26908W        W33508  12.118   2.250  10.929  0.2582  0.2262 -0.0992
26909W        W33509  24.568   2.034  22.549 -0.4120  0.1498 -0.0017
26910W        W33510  27.130   3.360   3.173 -0.0550  0.2928 -0.0127
26911W        W33511  16.482   3.255  17.351  0.2008  0.2500  0.0854
26912W        W33512  17.143   1.868  21.000  0.0318 -0.1541 -0.0204
26913W        W33513   7.575   7.742   6.966  0.0055 -0.2322 -0.3317
26914W        W33514   7.526   4.294  16.580  0.0482 -0.1478  0.0814
26915W        W33515   1.520   5.936  21.669  0.0285 -0.1180  0.2310
26916W        W33516  20.343   4.009   3.382 -0.2213 -0.0830  0.1775
26917W        W33517  13.508   4.988  10.746  0.0056 -0.1903 -0.1637
26918W        W33518   1.218   3.769  21.272 -0.0782 -0.0885 -0.1473
26919W        W33519  16.133   3.268  24.125 -0.1435  0.2240 -0.0710
26920W        W33520   7.050   4.456  23.160 -0.1126 -0.0404  0.0189
26921W        W33521  20.465   1.253   9.242 -0.0305  0.0090  0.0980
26922W        W33522  15.121   7.368   0.610 -0.1272  0.0316  0.0719
26923W        W33523  30.726   1.807   9.319 -0.1861 -0.0586  0.0414
26924W        W33524  10.044   3.620  25.339 -0.0355 -0.0600  0.1244
26925W        W33525  21.109   0.125   0.693 -0.3096 -0.0209 -0.2013
26926W        W33526  21.678   2.759   6.803 -0.1013  0.2865  0.4145
26927W        W33527  26.874   6.630   9.173 -0.0303  0.0089  0.1380
26928W        W33528  18.823   3.995   1.708 -0.1390  0.2769  0.0368
26929W        W33529  30.165   6.119  24.281  0.1120  0.0174 -0.1028
26930W        W33530  21.777   1.741  20.427  0.0683  0.0744 -0.0388
26931W        W33531  29.404   3.134   4.362 -0.3781 -0.0201 -0.0421
26932W        W33532  26.177   2.743  24.690  0.2423 -0.0416 -0.1240
26933W        W33533  30.835   2.830  21.418 -0.0034  0.0951  0.1424
26934W        W33534   1.393   3.624   6.331  0.2694 -0.0516 -0.2982
26935W        W33535  12.242   2.667  15.857 -0.1186 -0.1649 -0.0611
26936W        W33536   8.177   0.755   9.595  0.1870 -0.0354  0.1162
26937W        W33537   4.864   6.501  23.441 -0.1495  0.2621  0.2598
26938W        W33538  16.464   6.344   7.790 -0.2951  0.1383 -0.1257
26939W        W33539  22.627   3.299   9.955  0.2536  0.0589  0.1928
26940W        W33540   2.378   6.626  10.288  0.0577  0.0123  0.2270
26941W        W33541  22.580   6.233  10.079  0.0678  0.1602 -0.0960
26942W        W33542  25.965   5.941  16.180  0.0247  0.2694  0.2411
26943W        W33543   9.910   1.068   2.498  0.1040  0.2155  0.1142
26944W        W33544   5.428   4.584  19.570  0.0920  0.2176  0.0637
26945W        W33545  14.027   2.485   0.040 -0.1725  0.2793 -0.5475
26946W        W33546  22.606   2.179  18.196 -0.1379 -0.3133 -0.1513
26947W        W33547  26.093   7.391  11.586 -0.1153  0.2658  0.1886
26948W        W33548  10.582   5.852   4.838  0.2602  0.0759 -0.1522
26949W        W33549  25.523   4.719  23.118 -0.1396  0.0478 -0.4137
26950W        W33550   8.824   3.243   6.474 -0.1599 -0.0284  0.0958
26951W        W33551  15.447   3.031   4.168  0.1039 -0.1754  0.5253
26952W        W33552  26.226   6.101   9.479  0.0770  0.1474  0.1542
26953W        W33553  16.771   2.258   5.892 -0.2207  0.0256 -0.0856
26954W        W33554   3.721   7.671  15.877  0.0212  0.2279  0.1343
26955W        W33555  18.024   2.841   4.015  0.0490 -0.1366 -0.2092
26956W        W33556  22.713   2.962  21.557  0.2650  0.0796 -0.2777
26957W        W33557  14.227   4.287  19.713  0.0658  0.0849  0.0135
26958W        W33558   5.572   1.100  18.083  0.2198  0.0670 -0.0768
26959W        W33559  15.963   5.032   6.808 -0.1818 -0.1198  0.0504
26960W        W33560   9.778   3.071  10.312 -0.1935  0.1182  0.0316
26961W        W33561  26.787   3.520  21.660 -0.2210  0.1753 -0.0731
26962W        W33562  16.425   0.446  21.550  0.1444 -0.0451 -0.2352
26963W        W33563  10.167   0.489   6.298 -0.2125 -0.3068 -0.0042
26964W        W33564  20.549   5.507  17.391  0.2260  0.0600  0.0080
26965W        W33565  19.266   5.721  20.139  0.0587  0.1617 -0.0882
26966W        W33566  13.058   7.227  21.277  0.2328 -0.5064  0.0656
26967W        W33567  17.777   7.773  21.072  0.0135  0.0077  0.0544
26968W        W33568  25.918   6.875   4.568 -0.0367 -0.2715 -0.0665
26969W        W33569  15.592   6.736  11.182  0.0749  0.1946  0.0101
26970W        W33570  22.096   1.026   9.127 -0.3560 -0.1934 -0.3676
26971W        W33571  17.813   6.104  18.730  0.0192  0.0480 -0.0655
26972W        W33572  10.257   4.380   4.315 -0.2315 -0.0655  0.1215
26973W        W33573  23.002   1.119  25.128 -0.0629 -0.0315 -0.1603
26974W        W33574  24.449   0.251   3.280 -0.1399  0.0967  0.3220
26975W        W33575   0.316   5.043  25.884 -0.1091  0.2294 -0.2362
26976W        W33576   4.346   4.552   0.530 -0.1439  0.2652 -0.1598
26977W        W33577  10.579   1.355   0.410  0.1542  0.0308 -0.1227
26978W        W33578  21.987   2.869  21.468 -0.0826  0.0341  0.1380
26979W        W33579  28.950   5.943   0.914  0.1406 -0.0108  0.1712
26980W        W33580  24.262   0.217  10.169  0.1624 -0.2391  0.0724
26981W        W33581  29.036   7.427   6.192 -0.2146  0.3827 -0.2003
26982W        W33582  22.805   6.658   8.928  0.0884 -0.1866  0.1124
26983W        W33583  29.143   3.367  21.193  0.0289  0.0624 -0.0190
26984W        W33584  12.607   3.660   3.537  0.2075  0.0195  0.0979
26985W        W33585  25.370   7.165  25.290  0.0702  0.0152 -0.2604
26986W        W33586  13.668   1.893   7.286 -0.2572  0.1482 -0.0271
26987W        W33587  14.338   3.674  23.946  0.0380 -0.1757  0.1886
26988W        W33588  14.239   1.664  15.759 -0.0361 -0.2541  0.0258
26989W        W33589  27.294   4.452  19.771  0.0646  0.0883 -0.1872
26990W        W33590  22.709   0.591  25.031  0.2320 -0.1954 -0.0932
26991W        W33591  26.804   2.993  25.929 -0.0054 -0.1461  0.0685
26992W        W33592  25.397   7.143   1.401 -0.0938  0.1187 -0.2427
26993W        W33593  26.438   0.982  16.038 -0.1562 -0.2337  0.2880
26994W        W33594  15.097   3.328  19.073 -0.2624  0.0997 -0.0633
26995W        W33595  22.157   4.606  25.135  0.1190  0.1108  0.2383
26996W        W33596  19.519   2.332   7.681 -0.1702 -0.0811  0.4219
26997W        W33597  12.257   0.645  23.007 -0.1120  0.1900  0.0351
26998W        W33598   9.706   6.343   7.003  0.3969  0.0124  0.3139
26999W        W33599  27.239   6.863   2.201  0.0083  0.0990 -0.2749
27000W        W33600   7.524   0.635   0.848 -0.0151  0.0914  0.1398
27001W        W33601  29.318   2.812   7.611 -0.0487 -0.1624  0.0058
27002W        W33602  12.702   3.155  18.596  0.0034 -0.0971 -0.2150
27003W        W33603  10.395   2.832  24.096  0.2777  0.3437  0.2593
27004W        W33604  16.736   5.036   8.299 -0.1515  0.1204 -0.1538
27005W        W33605  25.554   3.146  18.985  0.0309  0.0367 -0.1078
27006W        W33606   3.606   0.212   2.226  0.0923  0.1149  0.1214
27007W        W33607  11.517   1.467   8.982  0.1681  0.2604  0.0322
27008W        W33608   9.520   5.779  16.125 -0.0037 -0.0833 -0.0994
27009W        W33609  21.440   4.570   2.666 -0.3144  0.3081  0.1296
27010W        W33610  19.583   6.897   9.936  0.0898  0.0991 -0.0142
27011W        W33611  28.958   5.558  16.440 -0.0249  0.0561  0.0983
27012W        W33612  31.401   0.572   6.584 -0.0616  0.3385  0.2004
27013W        W33613  14.398   5.397   7.878  0.2661  0.2277 -0.0155
27014W        W33614  31.372   0.521   3.065 -0.0771 -0.1854  0.1268
27015W        W33615   6.285   0.595   6.409 -0.1059 -0.2805  0.0956
27016W        W33616  25.886   0.739   0.635 -0.0304 -0.0058 -0.0858
27017W        W33617  17.915   6.711   2.050  0.2017 -0.0883 -0.2537
27018W        W33618  10.478   0.702  18.038 -0.1765 -0.0063  0.3891
27019W        W33619  27.876   5.985  17.424  0.1492  0.0185  0.3615
27020W        W33620   0.128   5.578  16.364  0.1403  0.0144 -0.1167
27021W        W33621  25.233   0.811   3.679  0.2208 -0.1568 -0.0445
27022W        W33622  26.827   1.414   5.391  0.0047  0.1797 -0.0428
27023W        W33623  10.382   6.417   5.855 -0.0602  0.2151 -0.0093
27024W        W33624  15.654   3.862   4.329  0.0931  0.0676 -0.0121
27025W        W33625  19.037   4.109   9.404  0.2625 -0.0166 -0.1331
27026W        W33626  30.265   5.684  16.909  0.0435  0.1249  0.0473
27027W        W33627   7.475   7.025   0.517 -0.0270 -0.2272  0.1523
27028W        W33628  17.063   4.903   9.601  0.3286 -0.1198  0.0139
27029W        W33629  18.083   0.206  19.423  0.1764 -0.1577  0.0841
27030W        W33630  28.663   0.415  25.494  0.0422  0.1511  0.1878
27031W        W33631  14.240   0.657  19.714 -0.0287  0.0995  0.0984
27032W        W33632  31.325   2.513  16.091  0.1363 -0.1227 -0.1338
27033W        W33633   0.241   6.087  19.622 -0.2874 -0.0560 -0.3854
27034W        W33634  12.951   4.569  24.839  0.2375 -0.1192  0.1811
27035W        W33635  16.491   0.133   5.252  0.0217  0.0438  0.0439
27036W        W33636  10.817   4.336  24.210  0.0993 -0.1653 -0.0349
27037W        W33637  11.703   1.678   6.321  0.1002 -0.3488  0.1809
27038W        W33638   6.868   6.474  23.139  0.0592  0.1052  0.3236
27039W        W33639   3.706   7.144   9.277  0.0238 -0.2717 -0.0541
27040W        W33640   8.249   6.209  10.434  0.1121  0.0649  0.3808
27041W        W33641   7.657   0.519   1.498 -0.0789 -0.0692  0.2304
27042W        W33642  16.484   0.249  15.873 -0.0799 -0.2448 -0.1053
27043W        W33643  19.213   0.850  19.873 -0.1323 -0.2558 -0.1739
27044W        W33644  17.854   3.249  17.777  0.1282 -0.1829 -0.2277
27045W        W33645  24.364   7.422  18.254 -0.1613 -0.1100 -0.1979
27046W        W33646   0.707   1.118   8.527 -0.3822 -0.1432  0.0341
27047W        W33647   6.752   3.711  10.558 -0.0466  0.0004  0.0824
27048W        W33648  29.041   2.232   0.226  0.1293  0.0125  0.1103
27049W        W33649  17.223   5.668  21.704  0.5227 -0.1453 -0.2196
27050W        W33650  29.107   6.425   2.633  0.1527 -0.0077  0.0246
27051W        W33651   7.012   3.874   5.910 -0.1037 -0.2777  0.1792
27052W        W33652  21.499   2.307   8.850  0.4916  0.1060  0.0015
27053W        W33653   2.473   6.496  17.090 -0.3668 -0.0684 -0.3523
27054W        W33654  10.057   3.524  24.354  0.2405  0.2898  0.0587
27055W        W33655  19.794   0.198  21.444 -0.1832  0.0753  0.1943
27056W        W33656  30.951   1.933  18.985 -0.0843 -0.1709 -0.2574
27057W        W33657  15.118   3.947   9.775  0.3116  0.2670  0.3822
27058W        W33658  20.510   4.619  21.240  0.1308 -0.0111  0.1961
27059W        W33659  18.384   1.726  20.670 -0.3652 -0.1602 -0.0922
27060W        W33660  19.035   4.908  16.656 -0.0260 -0.1589  0.2623
27061W        W33661  25.144   1.556  17.911  0.1232 -0.0904 -0.0811
27062W        W33662  10.025   0.519   5.359 -0.3803  0.1615  0.1624
27063W        W33663   9.306   4.730  17.591 -0.0087  0.0035  0.5990
27064W        W33664  23.426   5.507   2.982 -0.0363 -0.1183 -0.0968
27065W        W33665   4.711   2.320  23.404 -0.1630 -0.3039 -0.0938
27066W        W33666  21.955   7.367  24.332  0.0313  0.0526  0.3039
27067W        W33667  13.391   1.716   4.336 -0.2451 -0.1151 -0.1547
27068W        W33668   6.511   4.925  22.981  0.0446 -0.0052 -0.0836
27069W        W33669  14.493   6.145   9.084  0.2044  0.1153  0.2398
27070W        W33670  22.882   5.354  11.689  0.0603  0.0503  0.1775
27071W        W33671  18.118   0.560  16.105  0.0175  0.0831 -0.0964
27072W        W33672   1.899   6.833  16.458  0.6781  0.3104  0.2138
27073W        W33673  30.648   2.601  23.450 -0.1340 -0.1333  0.1952
27074W        W33674  13.705   3.779  10.113 -0.0615  0.0513 -0.0843
27075W        W33675  24.538   2.193  23.057  0.2504  0.0430  0.0681
27076W        W33676  14.559   1.580  20.057 -0.0394 -0.0707  0.3550
27077W        W33677   0.394   5.270  18.607 -0.1317 -0.1926  0.2007
27078W        W33678  20.295   0.940  24.812  0.5416  0.0205  0.0338
27079W        W33679   6.302   5.501  19.133  0.1328 -0.2689 -0.2783
27080W        W33680  10.373   6.773   1.436  0.1904  0.5669 -0.3511
27081W        W33681  31.371   4.346  24.346 -0.3572  0.0416  0.1296
27082W        W33682  13.511   5.118  21.446  0.0275  0.1009 -0.0822
27083W        W33683  25.011   5.242  17.526  0.1578 -0.2335 -0.1785
27084W        W33684  12.497   2.073  21.681 -0.4154  0.2596  0.0963
27085W        W33685   2.103   0.246  15.553 -0.3340  0.2579 -0.2635
27086W        W33686  10.564   2.637   9.214  0.0997 -0.0740 -0.2194
27087W        W33687  18.353   4.473   8.870 -0.1675  0.1506 -0.0690
27088W        W33688  19.099   6.257  17.524 -0.0586 -0.1038  0.1954
27089W        W33689  15.434   4.395  20.439  0.2285  0.0232 -0.2095
27090W        W33690  19.798   4.979  20.116 -0.1469  0.0361 -0.1709
27091W        W33691  29.270   0.178   1.629  0.1441 -0.2074 -0.3441
27092W        W33692   5.716   3.958   8.176 -0.0109 -0.1172  0.1776
27093W        W33693  28.011   1.002   3.828  0.1309  0.0093  0.2443
27094W        W33694  29.044   3.287  16.110 -0.0074 -0.0637 -0.0101
27095W        W33695  30.399   3.868  23.444  0.0316  0.3124  0.0754
27096W        W33696  26.670   0.793   2.030  0.3231 -0.0920 -0.1496
27097W        W33697  20.652   0.710  17.297 -0.1813  0.0838 -0.1519
27098W        W33698  18.778   5.240   0.311  0.2767 -0.0396  0.2213
27099W        W33699  16.414   4.358   3.453  0.0053 -0.0580  0.0635
27100W        W33700  13.377   2.975  20.989  0.1276  0.0220 -0.4661
27101W        W33701   2.770   6.998  25.562  0.0300 -0.1449  0.0861
27102W        W33702  20.114   0.352   0.752 -0.1492 -0.0192 -0.1173
27103W        W33703  30.574   4.624  25.204 -0.1048  0.0606  0.0076
27104W        W33704  25.799   2.178  22.146 -0.4154 -0.0513  0.0640
27105W        W33705   0.829   3.906  20.696  0.1006  0.2388 -0.0762
27106W        W33706   3.269   1.761   5.323 -0.1671 -0.1937 -0.5893
27107W        W33707  11.088   7.561   8.912 -0.2245  0.0406  0.0388
27108W        W33708  19.401   0.998  18.559 -0.0031  0.2045  0.3085
27109W        W33709  28.141   7.339  16.287 -0.0787 -0.1256  0.3074
27110W        W33710  30.099   0.253   4.344  0.0080  0.2202  0.4877
27111W        W33711  14.503   7.832  15.615 -0.1591 -0.3472  0.1767
27112W        W33712  14.784   6.856   5.713  0.0250  0.2112  0.1230
27113W        W33713  21.410   4.905  19.788  0.1579  0.1270 -0.5847
27114W        W33714  20.461   1.987   4.464 -0.1487 -0.1730 -0.1633
27115W        W33715   8.066   6.151   3.368  0.0234 -0.0136 -0.0167
27116W        W33716  24.740   6.487  23.442 -0.0822 -0.3767  0.0964
27117W        W33717  18.065   3.618  16.201 -0.1755  0.2361 -0.2266
27118W        W33718  31.196   6.580   8.985  0.1832 -0.1873 -0.1955
27119W        W33719  29.839   4.677  14.574 -0.2894  0.1245 -0.1090
27120W        W33720  18.956   0.001   8.829  0.1133  0.0659 -0.2968
27121W        W33721  17.880   5.368  22.448  0.1433  0.0540 -0.0757
27122W        W33722  25.423   1.033   0.534 -0.4187  0.0256  0.1988
27123W        W33723  21.704   5.716  25.623 -0.0089  0.1818  0.0050
27124W        W33724  18.382   7.737   2.228 -0.0805 -0.1031  0.0807
27125W        W33725   3.843   5.200  10.586 -0.0382  0.3600 -0.0962
27126W        W33726  25.299   5.658  10.305  0.1551  0.2715  0.0409
27127W        W33727  16.093   0.300   3.386 -0.0102 -0.2880 -0.1793
27128W        W33728  13.541   1.545  19.729 -0.0914 -0.2497  0.1760
27129W        W33729   9.536   0.391  19.653  0.1719  0.1009 -0.0878
27130W        W33730  18.551   2.030  19.804 -0.0241 -0.0558  0.2831
27131W        W33731  16.429   4.400  17.290 -0.1874  0.0573 -0.0698
27132W        W33732  20.313   7.104  15.136  0.1059 -0.1172  0.1659
27133W        W33733   3.924   5.573  24.533  0.1328 -0.1306  0.2569
27134W        W33734   9.896   2.184  22.511  0.0558  0.1267  0.0903
27135W        W33735  15.232   5.498   6.087  0.1294  0.3174  0.0031
27136W        W33736  19.799   1.407   2.948  0.2115  0.1571 -0.1033
27137W        W33737  26.990   1.131  25.126 -0.0943 -0.1729  0.0365
27138W        W33738  10.281   2.835  23.063  0.1059 -0.1223  0.0953
27139W        W33739  31.131   4.835   8.139 -0.3510  0.2782  0.1175
27140W        W33740  16.134   5.335   4.546 -0.0065  0.2276 -0.1889
27141W        W33741   5.978   3.008  19.971  0.0282 -0.2076  0.0230
27142W        W33742   1.791   2.506  18.494  0.2081  0.2694  0.2545
27143W        W33743  27.483   5.589   2.193  0.0000  0.1153  0.0815
27144W        W33744  30.291   1.309  10.503  0.2681  0.0004 -0.0950
27145W        W33745   5.051   6.705  25.078 -0.3563 -0.2678 -0.0907
27146W        W33746   6.606   0.043  15.726  0.2507 -0.0164  0.3448
27147W        W33747  16.154   7.853   0.411  0.2419 -0.0579  0.0342
27148W        W33748   9.079   7.057  16.000 -0.2123  0.1839 -0.2999
27149W        W33749  22.165   2.229   7.464 -0.1555 -0.0382  0.0451
27150W        W33750   7.989   4.739   3.124 -0.1794 -0.1279  0.2120
27151W        W33751   4.908   1.869  23.350  0.0969 -0.0003  0.0758
27152W        W33752   0.019   2.239   8.292 -0.1729 -0.0834 -0.0504
27153W        W33753  19.383   4.492   7.147 -0.2947 -0.1761 -0.0188
27154W        W33754   1.924   3.407   2.287  0.1589 -0.0579  0.2451
27155W        W33755   5.073   3.987  10.687  0.1145  0.1287 -0.0633
27156W        W33756  21.189   2.477  23.913 -0.1665  0.2566  0.1360
27157W        W33757   4.440   2.537   1.208 -0.0707  0.3426  0.1228
27158W        W33758  30.406   1.582  15.478  0.0384 -0.0323  0.1042
27159W        W33759  24.439   1.933  16.493 -0.1783 -0.0193 -0.3099
27160W        W33760   9.539   6.756   3.975  0.0129 -0.3157  0.0171
27161W        W33761  30.013   0.597  16.700  0.0574 -0.1963  0.0025
27162W        W33762  14.594   6.619   9.284 -0.1389  0.1970  0.1854
27163W        W33763   4.523   5.359  21.010  0.0511 -0.0571 -0.0272
27164W        W33764  14.360   1.713  22.238  0.0116 -0.2427 -0.3375
27165W        W33765  24.724   0.247   7.532  0.0453 -0.1463 -0.0505
27166W        W33766  19.528   6.015   4.307  0.2343 -0.3299 -0.1001
27167W        W33767  23.291   2.038  25.036  0.0300  0.3699 -0.1833
27168W        W33768  20.822   4.488  15.750  0.0428 -0.1501  0.1093
27169W        W33769  13.527   4.493   6.346 -0.2134 -0.0700  0.2363
27170W        W33770  16.281   5.482   2.676 -0.2046 -0.1342 -0.2047
27171W        W33771   4.549   6.527   0.671 -0.0257 -0.2707  0.0418
27172W        W33772   1.549   5.519  15.743  0.0035 -0.1552 -0.0060
27173W        W33773  16.542   4.192  17.754  0.1322  0.2321 -0.0177
27174W        W33774   3.369   5.784  15.760  0.3524  0.0462  0.1778
27175W        W33775  19.867   0.742  17.102  0.1177 -0.1675 -0.1847
27176W        W33776  19.070   4.264  20.893 -0.1084 -0.0761  0.2956
27177W        W33777  10.437   2.853   0.709  0.0860 -0.1546 -0.0043
27178W        W33778  30.812   0.007  24.932  0.3044  0.1356 -0.0508
27179W        W33779   1.411   4.138  17.395 -0.0307  0.0897 -0.2222
27180W        W33780   1.703   0.080  25.838  0.0011  0.3326  0.1661
27181W        W33781  16.445   7.119   8.850 -0.1611  0.3270 -0.1488
27182W        W33782   2.824   0.968  19.641 -0.0333 -0.0987 -0.2352
27183W        W33783  30.662   0.157   5.369  0.0567  0.0011 -0.0610
27184W        W33784  25.928   4.034  16.561  0.5191 -0.1553 -0.4990
27185W        W33785  18.338   7.260   1.935  0.0636  0.0918  0.0891
27186W        W33786  29.833   2.771  18.269 -0.0591  0.0046 -0.1802
27187W        W33787  12.738   0.172   2.488  0.2415 -0.1371  0.3228
27188W        W33788  30.206   2.926   1.425 -0.2463  0.1873  0.1537
27189W        W33789  20.381   6.604   1.371  0.0163 -0.2238 -0.0773
27190W        W33790  19.238   5.087  19.961  0.3394 -0.0144 -0.1607
27191W        W33791  23.181   6.091   0.001 -0.1952  0.2255 -0.0379
27192W        W33792   8.993   5.395   2.624  0.1067  0.3864  0.2768
27193W        W33793  25.369   0.297   5.750 -0.0502 -0.0702 -0.2565
27194W        W33794  27.447   6.827  17.680 -0.0912  0.4165 -0.2394
27195W        W33795  21.674   7.824   0.703 -0.1783  0.2699  0.1013
27196W        W33796  29.604   0.087  22.509  0.0438 -0.0288  0.0940
27197W        W33797  30.453   6.517   3.474  0.1171  0.1489 -0.2263
27198W        W33798  16.325   1.447   4.108  0.1175  0.3364  0.2189
27199W        W33799  12.590   1.022   3.440  0.1112  0.3159 -0.1925
27200W        W33800  18.911   2.157  20.100  0.0167 -0.2191 -0.1760
27201W        W33801   0.737   1.899   1.244 -0.3111 -0.1585  0.2230
27202W        W33802  12.839   6.048  11.210 -0.0724  0.2129  0.3927
27203W        W33803  25.303   1.286   1.287  0.1033 -0.0993 -0.0489
27204W        W33804  25.382   2.651  25.673  0.0141 -0.0432 -0.0829
27205W        W33805  27.495   5.082   5.607  0.0195  0.0365  0.1643
27206W        W33806  26.449   2.426  16.253 -0.2533 -0.0503 -0.1240
27207W        W33807  16.608   4.458   0.598 -0.0745  0.1623  0.3791
27208W        W33808   6.233   7.222  19.873 -0.1595  0.2075 -0.0024
27209W        W33809   5.735   1.757  17.864 -0.3341  0.0551 -0.0570
27210W        W33810  16.406   3.975   0.902 -0.0112 -0.3928 -0.3911
27211W        W33811  24.732   3.927   9.635 -0.0076 -0.0968  0.0753
27212W        W33812  29.246   2.203  21.830 -0.0354  0.4226  0.3274
27213W        W33813  24.370   3.309  15.782  0.2454 -0.3133 -0.0216
27214W        W33814  28.834   3.987   1.878  0.2368 -0.0254  0.0791
27215W        W33815  13.339   3.748   1.100  0.3765  0.2315  0.1670
27216W        W33816   9.753   2.165   0.868  0.1459 -0.1710 -0.0221
27217W        W33817  20.887   4.282  10.065  0.2902  0.0646  0.0441
27218W        W33818  24.341   7.434  20.632 -0.0905  0.2767 -0.0459
27219W        W33819   3.512   0.437   5.580 -0.1555  0.0384  0.2217
27220W        W33820  24.818   3.177   3.268 -0.1088 -0.0118  0.1797
27221W        W33821  26.014   6.217  23.844  0.1806 -0.0635  0.0003
27222W        W33822   6.022   2.369  25.117 -0.1951 -0.1835 -0.1552
27223W        W33823  30.147   2.169   4.922 -0.2875 -0.0032  0.1388
27224W        W33824  16.089   1.524  18.101 -0.0875  0.2180  0.1245
27225W        W33825  23.231   5.645   7.121 -0.0631 -0.3452 -0.2250
27226W        W33826  18.852   1.766  22.924 -0.2770 -0.1363 -0.0455
27227W        W33827   7.046   3.634   2.441 -0.0012  0.0125  0.3705
27228W        W33828  21.821   7.698  24.857 -0.3426 -0.1479 -0.1071
27229W        W33829  20.447   2.597   8.981 -0.0043 -0.3693  0.1384
27230W        W33830  21.095   3.568  21.695  0.2795  0.0586 -0.2208
27231W        W33831  10.212   5.445   5.613 -0.1153 -0.0061 -0.2483
27232W        W33832  15.137   1.939   3.266 -0.1040  0.0590 -0.0529
27233W        W33833  27.767   6.772  11.121  0.1876 -0.0890 -0.3287
27234W        W33834   2.240   4.629  21.688 -0.0035  0.3451 -0.1498
27235W        W33835  24.749   4.323  23.308  0.0964  0.1652  0.0836
27236W        W33836  25.005   2.984   2.563  0.0027 -0.0484 -0.4036
27237W        W33837  26.091   1.686   6.108 -0.0815 -0.1403  0.0239
27238W        W33838  17.849   1.526   9.026 -0.0809  0.0118 -0.0350
27239W        W33839   1.184   5.119   0.423 -0.0030 -0.2245 -0.0603
27240W        W33840  16.417   7.134   6.203  0.1943 -0.1408 -0.2355
27241W        W33841   6.531   2.021   5.499  0.1466 -0.0329 -0.0161
27242W        W33842  14.101   3.801  17.074  0.1091 -0.0561  0.3459
27243W        W33843  14.152   7.708   2.653 -0.1534  0.0483 -0.0595
27244W        W33844  28.374   0.055   7.862 -0.0238  0.1961  0.1084
27245W        W33845   3.983   6.462  14.996  0.1348  0.0008  0.0767
27246W        W33846  26.761   0.033   0.681  0.1529 -0.0213  0.0221
27247W        W33847  10.969   4.921  16.039  0.1149 -0.2162 -0.1102
27248W        W33848  16.043   3.054  17.117  0.2254  0.0092  0.1069
27249W        W33849  16.749   0.395  23.648 -0.1160  0.0895  0.0467
27250W        W33850  28.102   1.975  23.430  0.2640  0.0069 -0.0079
27251W        W33851  25.653   5.519  23.984 -0.2677 -0.3542  0.1217
27252W        W33852   8.832   1.390  25.367  0.1689 -0.2366  0.1169
27253W        W33853  12.649   5.832   7.131  0.0018  0.5096 -0.1496
27254W        W33854   7.021   0.467   8.074 -0.1074 -0.2092  0.3287
27255W        W33855   1.168   2.900   5.658  0.1685  0.1004  0.0065
27256W        W33856  25.508   0.694   4.076  0.0157  0.2402 -0.1250
27257W        W33857  30.732   4.265  23.491  0.5024  0.0560 -0.1352
27258W        W33858   6.853   0.693  21.697 -0.1326  0.0818 -0.0143
27259W        W33859  20.405   5.423  22.491  0.0260  0.1390  0.1541
27260W        W33860   8.951   3.451   2.948 -0.1521 -0.1369 -0.0363
27261W        W33861  12.747   0.979   2.992  0.1150 -0.0686  0.1453
27262W        W33862  30.567   2.059  19.912 -0.0214 -0.2351  0.2675
27263W        W33863   2.389   5.864   1.674 -0.1455 -0.1249  0.2145
27264W        W33864  15.236   6.327  23.086  0.0229  0.1061  0.1415
27265W        W33865  17.010   5.391   4.067  0.1491 -0.0845  0.0927
27266W        W33866  26.723   3.917   0.892  0.1389 -0.2102  0.0249
27267W        W33867  30.504   3.904  20.010  0.1729  0.0858 -0.1900
27268W        W33868  30.443   1.521  20.110  0.2694 -0.0994 -0.0559
27269W        W33869   6.050   1.802   5.357 -0.3063  0.2021  0.1803
27270W        W33870  10.005   4.549  21.287  0.0657 -0.0974 -0.3674
27271W        W33871  21.055   3.168   5.139  0.3639 -0.1536 -0.0604
27272W        W33872   0.527   3.335   2.755 -0.2488  0.2044 -0.0475
27273W        W33873   0.666   3.105   7.437  0.0649  0.0085  0.0463
27274W        W33874  29.786   5.184  17.680  0.2285  0.0977  0.3861
27275W        W33875  19.456   4.321  17.212  0.1596 -0.1839 -0.0933
27276W        W33876   3.499   6.581   6.685  0.1207  0.0212 -0.0816
27277W        W33877  26.478   6.169  19.514 -0.1197  0.2223 -0.2029
27278W        W33878  13.742   5.434  10.916 -0.6001 -0.0568  0.0379
27279W        W33879  24.120   3.854  19.396 -0.1150  0.1002  0.1826
27280W        W33880  14.827   3.130   4.954 -0.3075 -0.2594  0.0991
27281W        W33881  29.294   6.631   9.572 -0.1223 -0.3519 -0.1478
27282W        W33882  19.616   0.442  22.544  0.1877  0.0228  0.0378
27283W        W33883  22.634   5.623   3.228 -0.0328 -0.0374 -0.2166
27284W        W33884  10.051   4.727   3.941 -0.2687  0.1296  0.3286
27285W        W33885  27.299   3.192  19.257  0.0520  0.2668  0.1544
27286W        W33886  13.093   7.009  23.265  0.2452  0.1439  0.0925
27287W        W33887  27.135   0.777  19.039 -0.0444 -0.3910  0.0990
27288W        W33888   4.658   6.365   3.452 -0.0592  0.2324  0.0098
27289W        W33889  28.886   6.421   0.639  0.0843 -0.0987 -0.2475
27290W        W33890   8.879   3.089  24.315 -0.0462  0.0279  0.2002
27291W        W33891   9.008   4.153   4.168  0.0334 -0.1199 -0.1168
27292W        W33892  25.512   0.343   6.665  0.1898  0.1199  0.0724
27293W        W33893   4.019   2.320  17.546  0.1344  0.2088 -0.0969
27294W        W33894   8.558   5.235   3.699  0.3073 -0.0953 -0.1023
27295W        W33895  21.032   7.031  20.124  0.2401 -0.2063 -0.2185
27296W        W33896  25.903   1.133  18.094  0.0639  0.2125 -0.0992
27297W        W33897  22.490   3.837  22.398  0.0397  0.2717 -0.2984
27298W        W33898  18.106   5.660  16.104  0.2693  0.1954  0.1730
27299W        W33899   2.772   1.511  24.132  0.3758  0.1901 -0.1425
27300W        W33900  11.715   1.238  19.729 -0.2387  0.1581  0.1890
27301W        W33901  12.890   1.479   8.496 -0.0500 -0.1503  0.1375
27302W        W33902  20.487   0.511  24.716  0.1014  0.0605  0.1972
27303W        W33903  13.870   7.206   0.576  0.1878  0.0788 -0.0855
27304W        W33904  19.487   3.489   9.758  0.1371 -0.0713  0.1539
27305W        W33905  12.517   2.109  16.822  0.0222  0.0829 -0.1766
27306W        W33906  22.306   7.168   9.438  0.4248  0.0344 -0.2010
27307W        W33907  16.165   3.625  10.470  0.0412  0.1179  0.0591
27308W        W33908   8.386   6.004   4.409 -0.5010  0.1922  0.0641
27309W        W33909  21.393   1.303   3.362  0.2652 -0.1884  0.3431
27310W        W33910   9.817   6.771   6.573 -0.4241 -0.0835  0.0119
27311W        W33911  21.877   3.176  21.107  0.0815  0.1548 -0.0532
27312W        W33912  21.710   0.608  19.799  0.0568 -0.1294  0.0868
27313W        W33913  12.773   6.217  18.063  0.0095  0.0665  0.0820
27314W        W33914  27.145   1.133  23.690  0.1249  0.0472  0.1070
27315W        W33915   3.507   4.504  24.108  0.0010 -0.0384  0.0318
27316W        W33916  30.222   4.845   8.655  0.1111  0.1889 -0.0111
27317W        W33917  25.537   1.979  24.503 -0.1423  0.0148  0.0649
27318W        W33918   3.086   2.441  23.130  0.3047  0.1034  0.3318
27319W        W33919   5.419   6.264  19.805  0.0727  0.1389 -0.0576
27320W        W33920  23.174   7.407   6.958 -0.2686 -0.1216 -0.0383
27321W        W33921   9.463   2.358  21.532  0.2599  0.1774  0.1813
27322W        W33922  16.728   3.703  21.042  0.0326 -0.1218  0.1884
27323W        W33923   5.887   5.288  24.268  0.0441  0.1909 -0.1160
27324W        W33924  15.048   7.378   7.556 -0.2400  0.0167  0.1000
27325W        W33925  10.939   7.380  19.493 -0.0353  0.5171 -0.0902
27326W        W33926   7.583   4.515   4.602 -0.0382 -0.2747 -0.2365
27327W        W33927  12.243   0.703  15.790  0.2468  0.0809 -0.1481
27328W        W33928   0.528   2.391  24.925  0.0589  0.0928  0.2507
27329W        W33929  12.550   1.047  20.480  0.0794 -0.3136 -0.0135
27330W        W33930  11.060   3.581   7.253 -0.0896  0.1407 -0.1632
27331W        W33931  14.432   0.191  10.700 -0.0578  0.0879  0.2233
27332W        W33932  29.073   5.275   3.135 -0.0114 -0.0617 -0.1185
27333W        W33933  29.322   3.642   0.717 -0.0158  0.1888  0.0938
27334W        W33934  10.967   2.899   9.761  0.0892 -0.0977 -0.2563
27335W        W33935  16.934   2.291   9.511  0.2269 -0.1992  0.1719
27336W        W33936  16.674   2.938  15.718  0.0518  0.2501  0.0098
27337W        W33937  24.349   6.187   5.969  0.0285  0.1272  0.0205
27338W        W33938   5.400   3.543   7.101 -0.1821 -0.0452 -0.0321
27339W        W33939  13.546   0.758   8.653 -0.0995 -0.0401 -0.1040
27340W        W33940   6.814   5.774  22.551 -0.3062 -0.0569  0.0437
27341W        W33941  18.573   6.697   4.280 -0.0743  0.2467  0.0661
27342W        W33942  11.781   1.164  26.067  0.0513 -0.1175 -0.0777
27343W        W33943  10.140   3.489  24.826 -0.1502 -0.0010 -0.0719
27344W        W33944   8.382   0.957   3.631  0.0323 -0.1248  0.1958
27345W        W33945  27.997   7.603  25.923 -0.2678 -0.0038  0.2343
27346W        W33946  19.321   3.496  24.216  0.0549  0.1073 -0.0577
27347W        W33947   2.539   2.398  21.411  0.0090 -0.2059 -0.1252
27348W        W33948  14.717   4.184   3.872 -0.1123  0.0310  0.1748
27349W        W33949  14.598   6.194   1.819  0.0905  0.1181  0.1730
27350W        W33950  18.192   2.637  24.623 -0.0634  0.2941  0.1263
27351W        W33951   1.241   4.343  24.353  0.0926 -0.2143 -0.2507
27352W        W33952  19.253   6.230   5.206 -0.0760  0.3614 -0.0726
27353W        W33953  30.915   7.418  20.830  0.2346 -0.2729  0.1060
27354W        W33954  29.535   1.164  23.436 -0.0170 -0.0995  0.0060
27355W        W33955  19.298   2.394  24.917 -0.0155  0.1820 -0.0816
27356W        W33956  21.753   5.677   5.168  0.0601 -0.1758 -0.2381
27357W        W33957  11.264   4.277  17.381  0.0611  0.0028 -0.2591
27358W        W33958   1.187   1.896   8.732  0.1605  0.1017 -0.1398
27359W        W33959  15.759   4.599  10.351 -0.4448  0.0996  0.2112
27360W        W33960  28.929   5.909   5.160  0.1928 -0.0577  0.3023
27361W        W33961  16.232   0.101  16.769 -0.3533 -0.1103  0.0634
27362W        W33962  15.902   7.206  24.241  0.0553 -0.0886  0.1172
27363W        W33963   5.968   4.612  18.230 -0.1099  0.2447  0.1497
27364W        W33964   2.763   4.186   3.759  0.0016 -0.0124 -0.0002
27365W        W33965  28.850   0.672  23.388  0.0700 -0.0259  0.1542
27366W        W33966  29.933   7.775  23.327  0.2122  0.0549 -0.2721
27367W        W33967   7.211   0.101  18.334  0.0113 -0.0280 -0.1627
27368W        W33968  26.422   0.314   2.371  0.3582 -0.4195 -0.2009
27369W        W33969  18.927   7.161  15.339 -0.1079  0.3104  0.1143
27370W        W33970   7.935   4.016   2.495  0.0800 -0.4231 -0.3203
27371W        W33971  26.947   0.820  16.696 -0.0940 -0.1125  0.1963
27372W        W33972  19.405   6.721  20.272 -0.0007  0.2299  0.1126
27373W        W33973   9.056   1.742  18.429 -0.0529 -0.1788  0.0062
27374W        W33974   3.936   7.519  17.993 -0.0378 -0.1029 -0.2955
27375W        W33975  17.937   4.762  16.140  0.0104 -0.0326  0.1131
27376W        W33976  20.977   6.272  17.081 -0.0521  0.1177 -0.1075
27377W        W33977  29.889   0.533   5.254 -0.1006  0.0071 -0.1402
27378W        W33978   7.178   5.602  21.485 -0.0915 -0.2092 -0.0255
27379W        W33979   9.972   4.988   6.737  0.0271 -0.1143 -0.1767
27380W        W33980  18.960   5.890  20.471  0.0360  0.0880 -0.2313
27381W        W33981  28.929   2.294   3.316  0.0494 -0.0515 -0.0594
27382W        W33982   1.972   1.862   5.709 -0.0443  0.2358 -0.0433
27383W        W33983  13.503   5.480   1.543 -0.1773  0.2122  0.0544
27384W        W33984  25.516   0.936  16.736 -0.0081 -0.1457  0.3227
27385W        W33985  26.892   2.771  23.180  0.0135  0.1913  0.4865
27386W        W33986   0.131   6.755  24.232  0.0124 -0.1495 -0.1128
27387W        W33987  15.746   0.730   2.485 -0.3101 -0.0460 -0.2228
27388W        W33988  10.832   0.919   2.376 -0.0000  0.2885  0.3217
27389W        W33989  11.074   4.133  17.994  0.2912  0.0552  0.4211
27390W        W33990   1.771   2.085   2.103 -0.0188 -0.3667 -0.0600
27391W        W33991  12.204   0.163   4.001  0.0609 -0.1362 -0.0226
27392W        W33992   4.810   2.942   8.795 -0.2018  0.1522 -0.1679
27393W        W33993  27.195   5.502  25.639 -0.0518  0.4344  0.2429
27394W        W33994  11.442   7.460  24.298  0.1724 -0.2009 -0.2661
27395W        W33995  14.312   2.401  18.809  0.2826  0.0518 -0.1776
27396W        W33996   4.248   4.028   9.991  0.0608 -0.1487  0.1783
27397W        W33997  19.428   6.891  23.001  0.0291 -0.0961  0.2172
27398W        W33998  23.299   5.820  14.808  0.2245  0.1433  0.0889
27399W        W33999  18.794   0.911  21.535  0.0125 -0.0135 -0.1018
27400W        W34000  22.842   6.940  20.744  0.0506 -0.2632 -0.0745
27401W        W34001  16.343   2.366   4.679  0.0845  0.3465  0.3272
27402W        W34002  18.943   2.596   4.364  0.0470  0.1346 -0.1143
27403W        W34003   9.640   0.282   8.577 -0.0046  0.2302  0.0567
27404W        W34004  31.058   2.856   9.658  0.1547  0.2057 -0.0188
27405W        W34005   2.003   5.639  25.180 -0.0935 -0.1087 -0.1789
27406W        W34006  24.459   6.314   9.009 -0.0733 -0.0267 -0.0800
27407W        W34007   5.323   1.003  25.587 -0.2407 -0.3873  0.2261
27408W        W34008  13.268   7.707   7.522  0.3528  0.1998 -0.0190
27409W        W34009  12.718   4.080   7.445  0.1426  0.3347 -0.0327
27410W        W34010  19.302   0.999  25.603  0.2590  0.2192  0.1982
27411W        W34011  28.284   5.184   5.747  0.3307  0.0480 -0.0430
27412W        W34012  21.831   0.478  24.732  0.1631 -0.2555  0.1427
27413W        W34013  17.700   2.742  22.675 -0.2469  0.4890 -0.0059
27414W        W34014   3.759   7.209  23.351  0.2523 -0.1334  0.0722
27415W        W34015  18.642   3.846   7.606  0.0147 -0.0839 -0.1956
27416W        W34016  27.679   1.047  25.377  0.1269  0.1702  0.0566
27417W        W34017  25.091   7.104   4.987 -0.3081 -0.0955  0.1939
27418W        W34018   3.038   0.037  21.079 -0.1476  0.1812  0.1457
27419W        W34019  16.050   5.942   5.642 -0.2131  0.0839 -0.2283
27420W        W34020   2.917   7.133  18.910  0.0769  0.2097 -0.1547
27421W        W34021  21.900   5.475  17.807 -0.0292 -0.0333 -0.1650
27422W        W34022  18.549   7.295   6.020 -0.0858  0.1964 -0.0437
27423W        W34023  18.375   4.532   5.721 -0.1557  0.0077  0.0842
27424W        W34024  24.830   1.942   0.695 -0.3562  0.0899  0.0741
27425W        W34025  26.876   6.608   3.055 -0.1267 -0.0690 -0.0400
27426W        W34026  27.960   4.334  24.594  0.2460 -0.1280 -0.0783
27427W        W34027   0.085   4.861  18.763  0.0350 -0.0567 -0.0843
27428W        W34028  18.692   3.463  19.954  0.1018  0.5947  0.1298
27429W        W34029  27.937   5.293  21.422 -0.0227  0.1366 -0.0720
27430W        W34030   6.251   2.823   3.219 -0.1118  0.2477  0.1036
27431W        W34031  15.187   0.625  26.068 -0.0749 -0.0191 -0.1561
27432W        W34032   5.758   0.485   6.561 -0.0472  0.0500  0.0311
27433W        W34033  31.007   0.693  16.093 -0.1694 -0.1470  0.1397
27434W        W34034  28.778   6.158  19.526  0.0753 -0.1359  0.0548
27435W        W34035  15.603   7.749  24.174 -0.1344  0.0426  0.0793
27436W        W34036  23.368   0.866   2.531 -0.3302  0.1654  0.0445
27437W        W34037   8.562   2.707  22.003  0.0143  0.2487 -0.0069
27438W        W34038  21.171   2.210  22.930 -0.1780 -0.1409 -0.1259
27439W        W34039  12.863   2.923  24.649  0.1563 -0.0966  0.1552
27440W        W34040   4.810   2.683  24.770 -0.0447 -0.1384  0.0201
27441W        W34041  21.007   3.928   5.559  0.0425  0.1715 -0.0690
27442W        W34042   0.553   4.896  22.493  0.0905 -0.0390 -0.0217
27443W        W34043  28.821   4.179  24.717  0.3118 -0.0966 -0.1738
27444W        W34044   5.853   2.734   5.145 -0.2897 -0.2610 -0.2126
27445W        W34045  23.231   7.143   7.760  0.0365 -0.0665  0.0249
27446W        W34046  29.156   3.126  16.842  0.1116  0.0800  0.2567
27447W        W34047   6.012   6.939  22.211  0.0462  0.1075 -0.1377
27448W        W34048   9.255   3.703   4.370  0.3641 -0.0975  0.1637
27449W        W34049  13.027   1.811   5.460 -0.0005 -0.1004  0.0199
27450W        W34050  18.458   5.574  21.047 -0.1290  0.0200  0.0828
27451W        W34051   4.037   4.106  17.920  0.1470 -0.0378  0.3490
27452W        W34052   6.261   7.272   1.353  0.0549  0.1060 -0.1082
27453W        W34053  20.011   4.526  25.446 -0.1568  0.2021  0.2811
27454W        W34054   9.861   1.379   2.070 -0.1818 -0.0284 -0.1482
27455W        W34055   2.677   3.706  18.750  0.2259 -0.3311 -0.0693
27456W        W34056  19.081   7.172  20.068 -0.0974 -0.0980  0.0813
27457W        W34057  21.732   1.882   5.826 -0.0619 -0.1622 -0.3182
27458W        W34058  15.746   7.387  20.258 -0.1334 -0.2235 -0.1076
27459W        W34059   4.442   0.156   4.923  0.2008 -0.1721 -0.0566
27460W        W34060  11.666   5.593   1.768  0.0170 -0.1141 -0.0228
27461W        W34061   1.131   3.784  15.972 -0.0754  0.1723 -0.5566
27462W        W34062  14.407   0.670   2.850 -0.1200  0.1347  0.0357
27463W        W34063  28.180   4.456  21.675  0.0929  0.1925  0.5093
27464W        W34064  25.049   6.616  17.463 -0.1929  0.2180  0.3001
27465W        W34065  29.516   7.859   4.254  0.0817 -0.1425 -0.0434
27466W        W34066   0.785   5.767   9.017  0.2010 -0.0310  0.0738
27467W        W34067   0.722   2.306   3.344  0.0610 -0.0388  0.0750
27468W        W34068  17.966   4.723  17.491  0.4061  0.1429  0.1570
27469W        W34069  24.362   2.921  16.133  0.1255 -0.0598 -0.0148
27470W        W34070   3.123   6.548  20.693 -0.2099  0.1317 -0.3265
27471W        W34071  25.084   5.443   0.534 -0.0581  0.1547  0.1418
27472W        W34072  13.537   4.098  23.147 -0.0967  0.1830 -0.0490
27473W        W34073  21.882   0.131  21.977  0.2141 -0.1809 -0.2218
27474W        W34074  22.400   5.795   4.032  0.1874  0.0214 -0.2087
27475W        W34075   7.376   1.414   9.397 -0.1684  0.1060 -0.3338
27476W        W34076  24.034   5.109  16.584  0.2095  0.1800  0.1144
27477W        W34077  28.110   6.783   9.150  0.4192  0.0516  0.3641
27478W        W34078   4.189   5.853   2.100  0.1486  0.1048 -0.0878
27479W        W34079  19.286   5.494  19.652 -0.2379  0.1402  0.0298
27480W        W34080  16.622   2.190  10.622 -0.1008 -0.0006  0.1611
27481W        W34081  26.225   4.924   1.144 -0.3251 -0.1008 -0.0128
27482W        W34082  14.918   2.131  15.398  0.0431  0.0921  0.1171
27483W        W34083   4.584   7.815  24.621 -0.1900 -0.3666 -0.1049
27484W        W34084   8.870   6.763   2.506  0.0676  0.2287 -0.3627
27485W        W34085  29.698   7.018   7.515 -0.2373 -0.1012 -0.1093
27486W        W34086  21.429   7.380   0.812 -0.2902  0.2247  0.1396
27487W        W34087   2.395   0.878  18.555  0.0183 -0.1701  0.1926
27488W        W34088  13.655   0.882  24.560  0.0408 -0.0113  0.1199
27489W        W34089  12.017   3.485  22.331  0.1270  0.1459 -0.3060
27490W        W34090   5.196   0.478  23.596  0.4146 -0.2443 -0.0230
27491W        W34091  20.826   3.703   5.156  0.1091 -0.1766  0.0448
27492W        W34092   8.380   6.957   0.009 -0.2376 -0.2900 -0.3806
27493W        W34093  21.190   1.088   1.514  0.0028  0.2992  0.0695
27494W        W34094  14.903   4.875  22.511  0.1486  0.0921 -0.0901
27495W        W34095   9.048   3.921   2.939 -0.0549  0.1035 -0.2857
27496W        W34096  17.411   4.160  22.199  0.0498 -0.0869 -0.1208
27497W        W34097  11.672   7.775  22.028  0.0749  0.1394  0.2059
27498W        W34098  27.035   4.467  16.237 -0.0420 -0.1668 -0.1694
27499W        W34099  26.755   6.031  19.941 -0.3099 -0.3411 -0.1949
27500W        W34100  17.274   2.924  19.726 -0.2406  0.0287  0.1005
27501W        W34101  29.188   7.314  16.531 -0.0386  0.0821 -0.1881
27502W        W34102  25.333   6.451  22.486 -0.2480  0.1634 -0.1856
27503W        W34103  29.650   6.398   3.938 -0.0446 -0.2696  0.4767
27504W        W34104  27.186   5.857   4.415  0.0013 -0.0401 -0.0494
27505W        W34105  20.210   5.779  10.633 -0.1837 -0.3839 -0.1065
27506W        W34106  24.181   1.746   8.175 -0.0340  0.1280 -0.2530
27507W        W34107  19.545   5.374   8.729  0.3674  0.3551  0.1084
27508W        W34108  19.708   1.247  25.370 -0.0922  0.2677 -0.1495
27509W        W34109   9.800   5.284  19.585  0.0222  0.1712  0.2073
27510W        W34110  20.689   3.562   4.705 -0.3552  0.1064 -0.1158
27511W        W34111  30.192   1.077   2.602 -0.1666 -0.2475  0.1482
27512W        W34112  18.459   6.943  15.577 -0.0785  0.1388  0.2602
27513W        W34113   4.515   0.705   9.575  0.1172  0.1823  0.0121
27514W        W34114  30.252   5.805   8.843  0.0347 -0.1743  0.0266
27515W        W34115  17.825   3.311  22.010 -0.3144 -0.0987  0.0627
27516W        W34116  31.308   5.082   4.946  0.3575 -0.0691 -0.1520
27517W        W34117  26.927   5.387   4.499 -0.2118  0.0191  0.1863
27518W        W34118  22.256   0.117  23.373 -0.0746 -0.2070  0.1672
27519W        W34119  17.739   6.940   0.125 -0.0312  0.0732  0.1228
27520W        W34120  20.102   4.723   7.887 -0.1678 -0.0668 -0.0754
27521W        W34121  22.268   7.598   0.021  0.1431 -0.0892  0.0236
27522W        W34122  23.790   0.986   6.860 -0.1087 -0.2601  0.2374
27523W        W34123  24.792   3.735  22.477  0.0332  0.0925 -0.2553
27524W        W34124  21.242   5.345  21.186  0.1418 -0.0067 -0.0411
27525W        W34125  20.423   6.449   2.673 -0.1227 -0.0396 -0.2290
27526W        W34126  28.605   3.989  14.963  0.2298  0.0114 -0.0244
27527W        W34127  12.024   7.378  21.124 -0.0194 -0.0819 -0.0975
27528W        W34128   6.220   4.757  20.040  0.5863  0.0692 -0.1607
27529W        W34129  14.382   5.800   2.071  0.0778 -0.0005 -0.2236
27530W        W34130  22.703   3.409  24.131 -0.2002 -0.0101 -0.2633
27531W        W34131  30.913   7.303  24.747 -0.0711  0.0931 -0.0411
27532W        W34132   8.767   5.526  18.420 -0.1770  0.1052 -0.1565
27533W        W34133   1.452   0.460  24.643 -0.0605  0.0004 -0.2251
27534W        W34134  15.226   3.266  11.261 -0.0851 -0.2115  0.1261
27535W        W34135   1.664   6.147  25.863  0.3093 -0.3339 -0.2063
27536W        W34136  27.015   3.913  24.452  0.4141  0.0066  0.1240
27537W        W34137  26.625   2.317   0.519 -0.1913  0.1205  0.0441
27538W        W34138  10.776   1.197  19.507 -0.0728  0.0764  0.1964
27539W        W34139  19.085   1.491   7.574  0.2141 -0.2146 -0.5776
27540W        W34140  29.694   2.861   9.841 -0.1640  0.1517  0.1885
27541W        W34141  15.201   5.958  22.689 -0.0367 -0.1561  0.2109
27542W        W34142  19.292   3.568   6.302 -0.2928 -0.0228 -0.1453
27543W        W34143  22.691   4.326  22.304  0.0034  0.1146 -0.3741
27544W        W34144   3.795   3.890   7.660  0.3889  0.1459 -0.0758
27545W        W34145  28.102   7.575  24.982  0.2606  0.0005  0.2051
27546W        W34146  21.106   5.615  11.160  0.0948  0.1277 -0.0794
27547W        W34147  10.480   4.269  11.418  0.0530  0.2278 -0.2740
27548W        W34148  24.646   5.320   5.621  0.1456  0.2050  0.0314
27549W        W34149   9.802   2.296   9.058  0.2770 -0.0889 -0.0396
27550W        W34150   2.859   0.025   9.547  0.2840 -0.1135  0.0087
27551W        W34151   7.660   7.672  21.696 -0.0530 -0.0882  0.0941
27552W        W34152  19.957   3.845  18.170 -0.0417 -0.2312  0.0652
27553W        W34153   8.495   3.992  15.921 -0.3087  0.1232 -0.1333
27554W        W34154   6.059   6.433  15.809 -0.0407  0.2119  0.1235
27555W        W34155  21.742   0.301   3.515 -0.3122  0.4635 -0.1056
27556W        W34156  15.207   1.518  22.622  0.3260 -0.1104  0.4425
27557W        W34157   8.140   6.964  21.941  0.0686  0.2496  0.2678
27558W        W34158  23.311   6.222  19.138 -0.0107  0.0848 -0.0052
27559W        W34159  23.511   3.202  24.679 -0.1098  0.0090 -0.2693
27560W        W34160   6.134   7.570  22.763  0.1458 -0.0571  0.1324
27561W        W34161  29.706   4.105  20.002  0.0230  0.0720  0.2007
27562W        W34162   6.757   5.206  22.635 -0.1477 -0.1588  0.2433
27563W        W34163   6.535   3.039  21.631 -0.2242  0.0364 -0.1494
27564W        W34164   8.432   4.035  15.431 -0.2445  0.1390 -0.0528
27565W        W34165   5.865   0.441  18.569  0.2040  0.0511  0.0470
27566W        W34166   0.323   1.597   9.579  0.0159 -0.0633 -0.0973
27567W        W34167   3.079   0.496   1.847 -0.1962 -0.0943 -0.1275
27568W        W34168  26.354   3.407  24.740 -0.3395 -0.0986 -0.1372
27569W        W34169  24.808   3.524  10.695 -0.1899 -0.0587  0.0921
27570W        W34170  17.154   2.725  16.048 -0.0492  0.0267  0.0315
27571W        W34171  31.049   2.258   4.471  0.0191 -0.1503 -0.0385
27572W        W34172  15.279   6.674   9.918 -0.0071  0.1792 -0.3939
27573W        W34173  29.811   3.905   5.263  0.0758  0.4225 -0.0118
27574W        W34174  10.898   1.183   0.054  0.0254  0.0104 -0.1975
27575W        W34175   1.675   5.924   6.185  0.1104 -0.0330 -0.0754
27576W        W34176   5.636   1.002  24.165 -0.0821  0.0863  0.1156
27577W        W34177  10.859   5.113   2.752  0.3188 -0.0612 -0.2311
27578W        W34178  25.591   4.718   7.325 -0.2659  0.1564  0.3169
27579W        W34179  26.987   5.060  21.202 -0.3700 -0.1306 -0.1446
27580W        W34180   1.202   3.512  23.445 -0.0208  0.0850  0.2078
27581W        W34181  25.074   5.002   7.976 -0.0516 -0.0293 -0.3732
27582W        W34182  10.620   5.360   1.289 -0.0366 -0.0482  0.0829
27583W        W34183  11.236   3.071  24.751 -0.0872 -0.0084  0.0146
27584W        W34184  18.745   1.890  24.927 -0.0670  0.0041  0.0961
27585W        W34185   6.167   0.411  16.190  0.0713  0.0576 -0.1413
27586W        W34186  21.652   2.715  25.066 -0.1087 -0.1155 -0.0202
27587W        W34187   8.187   2.111   7.038  0.2036  0.2553  0.1981
27588W        W34188   9.267   5.068  10.651  0.1221  0.0737 -0.0522
27589W        W34189  11.873   0.456   4.187  0.2913 -0.1623  0.1333
27590W        W34190   6.197   6.006   2.337 -0.0345 -0.2772 -0.0024
27591W        W34191  15.318   7.285   9.165  0.1992 -0.1580  0.1651
27592W        W34192   9.063   2.400   8.286  0.1917  0.1823 -0.0809
27593W        W34193  12.836   0.750  24.261 -0.0094 -0.0836  0.1055
27594W        W34194  13.984   5.540   2.430  0.1393  0.1598 -0.1751
27595W        W34195  10.666   4.315   3.364  0.2836  0.0259 -0.2481
27596W        W34196   1.202   2.598  25.388  0.3020  0.0660  0.0588
27597W        W34197   3.377   5.982  16.722  0.1051  0.0521  0.1498
27598W        W34198   5.414   5.030  24.880 -0.0805  0.0397  0.0115
27599W        W34199  18.486   4.534  16.051  0.0927  0.3501 -0.0567
27600W        W34200  12.522   1.909  10.420 -0.2476  0.0077 -0.1148
27601W        W34201  21.664   0.057   5.249  0.3541 -0.2852  0.0360
27602W        W34202   3.733   1.245  10.634  0.1681 -0.0647  0.0198
27603W        W34203  14.652   0.471   8.348  0.3930 -0.2555 -0.2691
27604W        W34204  21.622   1.799   1.551  0.0588  0.0807  0.1027
27605W        W34205  11.084   1.039   1.606 -0.1737  0.0651  0.3147
27606W        W34206  15.182   7.387  21.736  0.4117  0.0791  0.1201
27607W        W34207  13.772   7.837  18.725  0.2021  0.1294  0.2200
27608W        W34208  27.210   2.515  19.111 -0.0154 -0.0387 -0.1055
27609W        W34209  25.027   2.687   5.473  0.0798 -0.1517 -0.1490
27610W        W34210  29.405   1.429  16.218  0.0479 -0.1113  0.0658
27611W        W34211  13.618   7.691  16.428 -0.3237  0.1273 -0.0740
27612W        W34212  28.315   1.037   2.818  0.2165  0.0986 -0.0758
27613W        W34213  26.005   6.639   3.359 -0.0921 -0.1859 -0.2612
27614W        W34214  27.582   7.406  25.169  0.2136 -0.0554  0.1885
27615W        W34215  16.380   3.271  16.361  0.0844  0.1526  0.1721
27616W        W34216  28.466   5.218  20.075  0.2772 -0.0851  0.2106
27617W        W34217  31.071   7.018   8.209  0.0165 -0.0640  0.2494
27618W        W34218  31.435   0.234  16.691  0.1518  0.1857  0.1277
27619W        W34219  14.787   5.732  21.536 -0.5082 -0.1619  0.0490
27620W        W34220   0.628   3.468  21.905 -0.1674  0.1960 -0.0878
27621W        W34221   2.201   0.702   0.397 -0.1686  0.2785 -0.1292
27622W        W34222  29.663   7.234  16.868  0.0502  0.2993  0.1768
27623W        W34223  23.456   2.355   2.686 -0.0071  0.1634  0.1082
27624W        W34224   2.674   7.311  16.681  0.0146  0.1974  0.1058
27625W        W34225  13.532   0.760   0.193 -0.3028 -0.0447 -0.3136
27626W        W34226   1.798   7.078   3.025 -0.0408 -0.1658 -0.0799
27627W        W34227  14.800   2.629  16.467  0.1483 -0.1786 -0.0534
27628W        W34228  28.697   5.925  16.247 -0.0505  0.1171 -0.0906
27629W        W34229   7.304   4.311  15.732  0.0403 -0.1664 -0.0710
27630W        W34230  17.437   0.040  20.662  0.1922  0.2128  0.3098
27631W        W34231  26.987   0.909  21.734  0.1637 -0.1995  0.2107
27632W        W34232  28.613   6.896  18.877 -0.2228 -0.0838 -0.0024
27633W        W34233  27.693   4.862   8.843 -0.3761 -0.2362  0.0168
27634W        W34234   2.338   6.667  15.340  0.0145  0.1461 -0.0197
27635W        W34235  21.810   7.042  22.909 -0.1418 -0.1122 -0.1924
27636W        W34236  23.895   5.130   1.226 -0.2798 -0.0798  0.0699
27637W        W34237   7.490   4.229   0.405 -0.2457  0.0484  0.0361
27638W        W34238   9.246   0.055   7.108 -0.2039 -0.1796  0.1060
27639W        W34239  11.999   5.661  21.326 -0.1186 -0.0751  0.1792
27640W        W34240  10.638   5.435  25.793  0.1646 -0.1620  0.0857
27641W        W34241  25.202   6.626  16.269  0.0674 -0.1566  0.0127
27642W        W34242  29.990   4.541   0.686 -0.0112  0.0222  0.1054
27643W        W34243  15.300   2.286  11.294 -0.0841  0.1878  0.2219
27644W        W34244  15.776   1.445   9.501  0.0297  0.0825 -0.1892
27645W        W34245   7.301   1.878   7.898  0.0648 -0.2859 -0.1117
27646W        W34246  16.309   4.129   2.550  0.0757 -0.5150  0.0720
27647W        W34247  12.479   6.150   1.777 -0.3322  0.0700 -0.0356
27648W        W34248  21.571   0.431   2.153  0.0187 -0.2003 -0.2137
27649W        W34249   5.286   0.800  15.173  0.0663 -0.2275 -0.2839
27650W        W34250  21.960   1.151   6.807 -0.2217  0.1680  0.0006
27651W        W34251  19.056   1.555   5.186 -0.3067 -0.0192  0.0263
27652W        W34252  11.692   0.628  22.598 -0.0509 -0.1239  0.2008
27653W        W34253  27.339   7.491   5.879 -0.1438 -0.0560 -0.0372
27654W        W34254   5.111   5.706  16.020  0.1012 -0.1265 -0.1691
27655W        W34255  17.267   1.854  18.171  0.0802 -0.1163 -0.3691
27656W        W34256  11.579   6.434   6.971  0.1016 -0.3890 -0.0787
27657W        W34257  20.513   7.195  22.229  0.0028 -0.1769 -0.1009
27658W        W34258   4.503   7.010  20.203  0.1248  0.1920  0.2471
27659W        W34259  30.954   5.695  10.082 -0.0664 -0.0267 -0.0789
27660W        W34260  22.051   2.311  22.424 -0.0307  0.0600 -0.1556
27661W        W34261   4.975   1.835  21.500  0.0683  0.0973 -0.0308
27662W        W34262  14.434   5.689   8.810  0.2722  0.1975  0.0963
27663W        W34263  20.116   3.462  21.854  0.3634  0.0278  0.2147
27664W        W34264  23.489   0.249  18.934  0.1977 -0.0732  0.1233
27665W        W34265  12.166   0.258  18.348  0.0998 -0.2465  0.0345
27666W        W34266   7.778   1.907  24.761  0.1480 -0.0327 -0.2287
27667W        W34267  12.704   5.595   0.552  0.1375 -0.1530 -0.1782
27668W        W34268   0.390   2.163  19.659  0.3801 -0.4146  0.1303
27669W        W34269  27.747   7.587   5.037  0.0385 -0.4352  0.3659
27670W        W34270  18.816   6.793  23.566  0.2609 -0.0370 -0.0394
27671W        W34271  23.595   7.706   8.240 -0.0823  0.1530  0.1081
27672W        W34272  27.376   1.591  17.147  0.2134 -0.0820 -0.2085
27673W        W34273  11.516   3.321   6.924  0.0183 -0.0267 -0.0548
27674W        W34274  24.358   1.392  18.105 -0.0940 -0.0852  0.0276
27675W        W34275  26.192   2.251   6.830 -0.1816 -0.1432  0.0928
27676W        W34276   7.090   2.134   7.507 -0.0999 -0.1546  0.3292
27677W        W34277  31.285   1.751   5.534  0.1869 -0.0498  0.0957
27678W        W34278  24.541   1.969  25.807  0.0722 -0.0054 -0.0126
27679W        W34279  24.970   5.879  19.254  0.0611  0.1265 -0.1380
27680W        W34280  18.084   3.403  21.025 -0.0170  0.2617  0.1276
27681W        W34281  31.106   4.662  23.477  0.0550  0.0709  0.0268
27682W        W34282  20.597   0.124   4.110 -0.1102 -0.2630  0.4641
27683W        W34283   1.029   3.665   8.027  0.0060 -0.1755 -0.2323
27684W        W34284   0.943   0.713  24.697  0.1189  0.1201  0.0371
27685W        W34285  11.049   0.179  25.884  0.0547 -0.1682  0.0458
27686W        W34286  20.124   6.226   1.157  0.1605 -0.0340 -0.0643
27687W        W34287  22.636   3.198  25.977  0.1400  0.0252  0.0706
27688W        W34288   9.982   1.163  23.633 -0.0287  0.0850  0.3903
27689W        W34289  15.554   0.293  20.905  0.1788  0.1174  0.0142
27690W        W34290   9.631   0.291  24.622  0.0671  0.0263  0.0639
27691W        W34291  26.441   1.066  22.923 -0.0775  0.0465  0.1852
27692W        W34292  24.363   4.085   4.117  0.2996  0.0412 -0.0745
27693W        W34293   3.871   0.535  24.515 -0.1681  0.1129 -0.0439
27694W        W34294   6.993   4.964   9.986  0.3544 -0.3039 -0.1261
27695W        W34295  28.712   3.434  18.074 -0.2473 -0.3322  0.1051
27696W        W34296  11.288   7.217   1.662 -0.2788 -0.5269  0.1481
27697W        W34297  19.429   2.615   8.659  0.0236  0.1310  0.0787
27698W        W34298  19.438   2.711   1.283 -0.2536 -0.0850 -0.0476
27699W        W34299   4.590   0.043   1.153 -0.4470  0.0467  0.2839
27700W        W34300  19.169   0.415   4.254  0.2167  0.1121 -0.0062
27701W        W34301  25.057   5.633  11.158  0.0746 -0.2239  0.1347
27702W        W34302  31.291   4.258  25.844  0.3357  0.2779 -0.1616
27703W        W34303  26.153   2.370   2.416 -0.0526  0.2397 -0.3083
27704W        W34304  28.241   2.057  17.067 -0.0490 -0.0390  0.0779
27705W        W34305  24.172   1.720   5.224 -0.0426 -0.0337 -0.1707
27706W        W34306  26.626   3.324   1.888 -0.1347  0.4845  0.0712
27707W        W34307   5.951   1.190  10.252  0.3371 -0.3066 -0.2278
27708W        W34308  19.851   1.452   1.706 -0.0986 -0.0163 -0.0720
27709W        W34309  11.882   0.663   6.266 -0.1978 -0.2405 -0.0037
27710W        W34310  13.868   7.616  21.564  0.1241  0.0421 -0.0154
27711W        W34311  14.415   7.800   9.120 -0.0969 -0.1369 -0.0461
27712W        W34312  31.100   2.120   3.956 -0.0098 -0.2826 -0.0668
27713W        W34313  17.069   4.027   5.285 -0.2799  0.0668  0.2377
27714W        W34314   8.479   5.103   6.984  0.0846 -0.1281 -0.2603
27715W        W34315  26.848   1.265  19.331  0.0189 -0.2023  0.1022
27716W        W34316  31.016   0.374   4.573 -0.1964 -0.2215 -0.0366
27717W        W34317  29.620   6.102  24.366  0.0858  0.0490  0.0327
27718W        W34318  28.733   4.363  19.670  0.1354 -0.0197  0.1021
27719W        W34319   9.717   3.433   9.106 -0.0678  0.2934 -0.0452
27720W        W34320   9.367   1.920  16.879  0.2497 -0.1939 -0.2483
27721W        W34321   2.584   3.576   1.100  0.1239  0.0389 -0.3449
27722W        W34322  22.846   3.059   3.690 -0.1576  0.0106  0.2644
27723W        W34323  30.958   6.969  17.380 -0.1233 -0.0073 -0.0272
27724W        W34324   2.414   5.084  25.594  0.0479 -0.0380  0.3340
27725W        W34325  15.302   0.205   6.471 -0.0133  0.0264  0.0042
27726W        W34326  20.151   7.194  19.507  0.2342 -0.2304 -0.4667
27727W        W34327  15.091   7.337   4.460  0.1386  0.4991 -0.0323
27728W        W34328  16.428   7.600   7.074  0.1219 -0.1243  0.1657
27729W        W34329  24.459   7.490   8.692  0.0048 -0.2714 -0.1714
27730W        W34330  28.522   3.547  16.213  0.1182  0.2434 -0.0235
27731W        W34331  24.029   4.611   5.915 -0.1481 -0.4245  0.0971
27732W        W34332  21.999   0.347   0.548  0.1207 -0.1225  0.2882
27733W        W34333  15.702   5.288  25.572 -0.1325 -0.1004 -0.2664
27734W        W34334  10.401   0.466   3.120  0.1418  0.1256  0.1782
27735W        W34335   2.135   1.767  20.319 -0.0658 -0.2114 -0.4097
27736W        W34336  13.923   6.757   1.032 -0.0189 -0.0730 -0.3389
27737W        W34337  21.358   6.889  22.697  0.0464  0.1436  0.2347
27738W        W34338  29.758   5.084   6.821  0.0143  0.1414 -0.2390
27739W        W34339  19.600   1.137  20.034  0.1875  0.1250 -0.0533
27740W        W34340  25.338   6.156  17.742  0.0924  0.0746  0.0269
27741W        W34341  16.293   3.148  11.425 -0.0099  0.1970  0.0479
27742W        W34342  17.898   1.099   4.394  0.0939 -0.2179  0.2035
27743W        W34343  21.453   3.214   6.833  0.1535  0.2533 -0.0391
27744W        W34344  12.412   1.310  10.965 -0.0431 -0.0522  0.0958
27745W        W34345   1.747   6.519   0.112  0.2642 -0.0089 -0.1103
27746W        W34346  27.511   3.111   6.565  0.1624 -0.0113 -0.2403
27747W        W34347  18.634   6.713   5.381 -0.1859  0.0721 -0.1416
27748W        W34348   6.694   4.200   9.186  0.1957 -0.1333 -0.0737
27749W        W34349  15.890   2.830   5.247 -0.2740  0.1000  0.0295
27750W        W34350  22.189   2.645  20.272 -0.2427  0.3041  0.0290
27751W        W34351   8.525   5.443  18.846  0.2610 -0.2605  0.0246
27752W        W34352  24.431   7.599   4.075 -0.3839  0.0656 -0.1323
27753W        W34353  25.295   4.924   4.370 -0.1431  0.0396  0.0511
27754W        W34354  24.149   5.063   8.581  0.0708  0.0930  0.2207
27755W        W34355   2.523   6.012   3.587 -0.0075 -0.1293  0.1364
27756W        W34356  25.061   5.464   2.238 -0.3136  0.0164 -0.1045
27757W        W34357   6.847   0.100  23.888  0.3849  0.0657 -0.0096
27758W        W34358   6.741   0.021  17.080  0.2271 -0.1964 -0.1046
27759W        W34359  28.939   7.727   9.823  0.1297  0.1241  0.1190
27760W        W34360  24.678   6.069  23.685 -0.1101 -0.2809 -0.0807
27761W        W34361  21.054   5.225  20.165  0.1832 -0.0744 -0.0952
27762W        W34362  22.475   6.800  25.964  0.1511  0.1217  0.0458
27763W        W34363  23.524   6.811   9.545  0.2078  0.1907  0.0127
27764W        W34364  26.731   7.697   6.520  0.0982  0.2068  0.1191
27765W        W34365  27.929   4.518  20.049 -0.0010  0.1462 -0.2368
27766W        W34366   3.924   2.865  25.949 -0.1973 -0.5131 -0.1888
27767W        W34367   4.247   0.490   6.806  0.2322  0.0496 -0.2022
27768W        W34368  22.217   0.628  10.692 -0.0032  0.0253 -0.2958
27769W        W34369  16.363   6.384   4.517  0.3688 -0.1654  0.0308
27770W        W34370  14.545   7.282  19.839  0.0833  0.2935 -0.3404
27771W        W34371  11.965   6.451  15.911 -0.0724  0.1227 -0.1052
27772W        W34372   0.821   6.524  25.080 -0.1532  0.0048 -0.1324
27773W        W34373  22.294   2.313  23.397 -0.0576 -0.1526 -0.0366
27774W        W34374  30.879   5.714  21.736  0.0800 -0.0579  0.2675
27775W        W34375   5.402   6.695  10.737 -0.0642 -0.1459  0.1271
27776W        W34376  28.521   7.381   0.907  0.0889  0.0704 -0.0482
27777W        W34377  29.130   3.163  25.452  0.2169  0.0229  0.1591
27778W        W34378  11.929   5.769  10.788 -0.2205 -0.0732 -0.0212
27779W        W34379   8.238   3.923   3.361 -0.0107  0.0359  0.2110
27780W        W34380  29.788   3.656   1.039  0.2246  0.0530  0.2577
27781W        W34381  22.626   6.151   0.378  0.0760 -0.0330 -0.0230
27782W        W34382  25.235   6.345  15.879  0.3518 -0.0288 -0.0877
27783W        W34383  25.929   0.885  18.569  0.2437 -0.0495  0.0423
27784W        W34384  10.160   4.632  10.002  0.3366 -0.3663 -0.0851
27785W        W34385  20.200   6.746   4.541  0.3954  0.2479  0.1471
27786W        W34386  29.510   2.228  17.406  0.1878 -0.1827  0.0182
27787W        W34387  21.573   3.734   1.059 -0.1415 -0.1345 -0.1715
27788W        W34388  13.401   3.795   4.056 -0.1426 -0.3081  0.1411
27789W        W34389  12.706   5.266  22.450  0.3404 -0.3070  0.2088
27790W        W34390  17.513   5.598   0.533 -0.1018 -0.2549 -0.0932
27791W        W34391   0.551   6.155  24.805  0.3154 -0.0202  0.1933
27792W        W34392   7.306   2.837   2.174  0.1498  0.0083 -0.2854
27793W        W34393  18.697   3.769   3.295  0.4001 -0.3086  0.0266
27794W        W34394  14.180   7.722  24.906  0.0285 -0.1202  0.2988
27795W        W34395  30.126   1.566  15.068  0.0915  0.0294 -0.2202
27796W        W34396  28.822   0.016   2.767 -0.2773  0.1435  0.2393
27797W        W34397   2.779   2.782  23.365  0.1619 -0.1610 -0.1544
27798W        W34398   2.650   4.662   4.450 -0.1109  0.0378  0.2488
27799W        W34399  27.291   1.094   3.674  0.0616  0.0772 -0.0212
27800W        W34400   7.422   5.003  14.915  0.1889  0.0206 -0.0225
27801W        W34401  14.592   4.195  17.531  0.0513  0.0560 -0.0193
27802W        W34402   5.656   6.774  25.438  0.2836 -0.0230  0.1068
27803W        W34403   6.640   0.762   6.666  0.1770 -0.1476 -0.1768
27804W        W34404   5.025   1.182  25.948 -0.1910  0.3374  0.1017
27805W        W34405  25.698   0.635  14.829 -0.0234 -0.0886 -0.1044
27806W        W34406  10.613   0.934  16.582  0.0299  0.1761  0.4983
27807W        W34407   0.951   3.050  22.184 -0.0214  0.0831 -0.2010
27808W        W34408   9.227   5.331  23.072  0.0370 -0.1839 -0.2674
27809W        W34409  17.581   3.463  10.069 -0.0096 -0.0136  0.1364
27810W        W34410  26.260   1.441  10.095 -0.1682  0.0898  0.3445
27811W        W34411   8.987   2.218   7.283 -0.1061 -0.0264 -0.2064
27812W        W34412  30.959   6.992  16.383 -0.0759  0.0094 -0.2550
27813W        W34413  27.781   6.007  16.432  0.0392  0.1978  0.3634
27814W        W34414  25.785   7.825  25.617  0.0794 -0.2932 -0.2601
27815W        W34415   3.874   5.110  22.630  0.1544 -0.2068 -0.1396
27816W        W34416   7.746   0.906   2.601 -0.0285  0.1392 -0.0382
27817W        W34417  29.884   1.461   6.551 -0.1605  0.0665 -0.0043
27818W        W34418  18.079   4.621   2.271 -0.0624  0.0261  0.0289
27819W        W34419  12.135   4.359  15.746 -0.1610 -0.3192  0.3392
27820W        W34420  30.988   3.780   6.812 -0.0605 -0.2466  0.2513
27821W        W34421  24.431   0.954  15.577 -0.2361 -0.0102 -0.2526
27822W        W34422  14.554   0.647  17.781  0.0817  0.1753 -0.1072
27823W        W34423  22.398   7.009   8.967 -0.2694 -0.1248  0.0278
27824W        W34424   1.940   7.518   9.741 -0.0574  0.1723  0.1008
27825W        W34425   5.291   6.778   2.952  0.2990  0.1125  0.4542
27826W        W34426   2.682   1.905   2.317  0.3038  0.2987  0.0187
27827W        W34427  24.720   4.284  10.189  0.1230 -0.0456 -0.0776
27828W        W34428   5.301   6.382  18.403  0.0742 -0.3803  0.0091
27829W        W34429  25.468   1.503   7.754  0.1234 -0.0617 -0.0492
27830W        W34430  14.063   7.608  17.496 -0.1802 -0.1645  0.0611
27831W        W34431  29.494   3.156  18.134 -0.0286  0.2767  0.1220
27832W        W34432  19.279   6.743   8.909  0.0143  0.4818  0.1031
27833W        W34433   2.281   3.321   2.625 -0.2107 -0.1514 -0.2259
27834W        W34434  14.350   0.540   0.048  0.0008 -0.1667 -0.0090
27835W        W34435   9.652   0.343  17.720  0.2195 -0.3176  0.0030
27836W        W34436  23.667   0.688  15.967  0.0032  0.2512  0.1237
27837W        W34437  11.070   0.728  19.148  0.2534 -0.0377 -0.1040
27838W        W34438  17.892   0.004  18.900  0.0603 -0.0368 -0.0990
27839W        W34439  28.828   0.872  21.690  0.1715  0.0001  0.1198
27840W        W34440  28.477   0.877  22.477 -0.1092 -0.0373  0.2029
27841W        W34441  28.862   0.841   8.361  0.2870 -0.1991  0.2223
27842W        W34442   3.481   2.363  19.819  0.0371  0.5562  0.1789
27843W        W34443   4.780   1.180  22.565 -0.0456  0.0422  0.2055
27844W        W34444  13.216   1.910   7.743 -0.2083 -0.2611 -0.3118
27845W        W34445  15.133   7.238   5.748  0.1256  0.0860  0.0217
27846W        W34446   3.780   3.339   2.297  0.0936 -0.0702 -0.1323
27847W        W34447   3.569   7.218   9.766 -0.1181  0.0132  0.0889
27848W        W34448  20.199   0.396  22.711  0.0604 -0.1560 -0.1756
27849W        W34449  31.228   5.255   4.483  0.0637 -0.1368 -0.1444
27850W        W34450   5.619   3.419   9.879  0.0343  0.0790 -0.1057
27851W        W34451   6.333   2.171   7.690  0.1669 -0.0087 -0.2239
27852W        W34452  21.114   2.357  19.299 -0.1675 -0.0688  0.0390
27853W        W34453   9.495   6.248   9.807  0.2583 -0.1313  0.0475
27854W        W34454  28.218   3.023  25.640  0.4238 -0.3794 -0.4142
27855W        W34455   3.441   3.508  19.992  0.0208 -0.3116 -0.0958
27856W        W34456  15.388   3.648  18.758 -0.0764  0.0132  0.1289
27857W        W34457   9.697   2.722  21.247 -0.0669 -0.1879 -0.1016
27858W        W34458  26.011   3.027  21.643  0.0683 -0.2274  0.0349
27859W        W34459  16.682   7.275  20.667  0.2321 -0.0774  0.1721
27860W        W34460  10.571   4.744  16.435  0.1235  0.1449  0.0342
27861W        W34461  10.096   2.568  15.974  0.1644  0.2205  0.0228
27862W        W34462  16.634   2.209   3.408 -0.0910 -0.2402  0.0851
27863W        W34463  23.791   6.899  16.083 -0.0416  0.0863 -0.1778
27864W        W34464  13.081   3.503  19.792  0.1517  0.4483  0.0359
27865W        W34465  22.558   3.654   7.930  0.0348  0.0694  0.2997
27866W        W34466  11.410   0.977  22.082 -0.0048  0.2867  0.0946
27867W        W34467  26.449   7.708   2.562 -0.1552  0.0499  0.0829
27868W        W34468  13.641   7.252   9.272  0.2385  0.0249 -0.0818
27869W        W34469  15.149   1.784  15.793 -0.0327 -0.0555 -0.1016
27870W        W34470  23.151   2.517  21.497  0.0231  0.1507  0.2456
27871W        W34471  29.065   0.187   3.294  0.0101 -0.1324 -0.1152
27872W        W34472  30.355   0.104  17.423 -0.0243  0.3382  0.1725
27873W        W34473   5.006   5.932   3.970 -0.1592  0.1687 -0.2786
27874W        W34474   8.538   3.026  18.249 -0.1162  0.0486 -0.1590
27875W        W34475   4.038   1.780  25.245  0.1621  0.0499 -0.2057
27876W        W34476  19.929   3.434   9.372 -0.3581 -0.2059 -0.0533
27877W        W34477  17.255   0.615  24.778 -0.1842 -0.0432  0.0685
27878W        W34478  17.923   3.722   9.270  0.6406  0.3052 -0.2907
27879W        W34479   1.839   7.748  23.184 -0.1050 -0.0447 -0.2887
27880W        W34480  11.921   7.346  18.279 -0.1468  0.2781 -0.3124
27881W        W34481  21.902   3.839  25.282 -0.1455  0.0311 -0.0402
27882W        W34482  26.577   6.483  21.231 -0.1818 -0.0131  0.2293
27883W        W34483  27.003   7.368  25.086 -0.1787  0.0280 -0.1555
27884W        W34484  27.109   6.666  15.405  0.1781  0.0235  0.1968
27885W        W34485  12.274   5.844  18.682  0.1235  0.0402 -0.3263
27886W        W34486   7.363   2.106  25.040  0.2874 -0.2737 -0.2030
27887W        W34487  22.389   4.924  21.035  0.1891 -0.0643 -0.2056
27888W        W34488  22.571   3.217  10.520 -0.0183  0.1989  0.0572
27889W        W34489   5.709   4.169  17.577  0.0452  0.0741 -0.0109
27890W        W34490  10.368   6.825  16.336 -0.0371 -0.1870 -0.1468
27891W        W34491  16.724   0.126  22.817  0.2251  0.2615 -0.1052
27892W        W34492  14.526   5.318  24.692  0.0641 -0.0506 -0.4103
27893W        W34493   9.300   3.660  21.862 -0.0064 -0.3251 -0.1240
27894W        W34494  15.911   2.686  20.509 -0.0582 -0.1613 -0.0215
27895W        W34495  16.785   5.886  18.009 -0.0149 -0.0552 -0.0990
27896W        W34496  29.361   1.769  17.516  0.0513  0.4389  0.2421
27897W        W34497  10.502   4.996   9.706  0.1924 -0.4178  0.0067
27898W        W34498  10.917   4.490   7.809 -0.0910 -0.1037 -0.1859
27899W        W34499  13.576   6.199  18.601 -0.1201 -0.0354 -0.0202
27900W        W34500  25.487   5.045   9.290 -0.4179 -0.3072  0.1537
27901W        W34501  13.669   7.216   4.120 -0.0784 -0.3656  0.0132
27902W        W34502  24.263   1.404  16.255 -0.2546  0.0779 -0.0194
27903W        W34503  17.784   0.719   4.765 -0.0180 -0.2936 -0.0056
27904W        W34504  24.399   5.504   8.505 -0.0118  0.2431 -0.0213
27905W        W34505  14.084   1.964  10.896 -0.1573 -0.0494  0.1771
27906W        W34506   6.578   6.409  19.591 -0.2042 -0.2471 -0.1239
27907W        W34507  24.521   0.959   1.090  0.1253 -0.3506 -0.1881
27908W        W34508  18.383   6.684  22.519  0.0580 -0.0837 -0.1345
27909W        W34509  12.789   3.291   3.249 -0.1568 -0.0169 -0.0362
27910W        W34510   1.748   5.614   9.150 -0.1203 -0.1311  0.0109
27911W        W34511  13.188   7.822  17.244 -0.2733  0.1417  0.1549
27912W        W34512  29.750   2.566   5.515 -0.0719 -0.1238 -0.1111
27913W        W34513  14.570   6.356   4.026  0.0115  0.2828  0.0111
27914W        W34514   5.754   5.829   2.399 -0.3104  0.1290 -0.0040
27915W        W34515  11.774   0.350   3.672  0.0834 -0.2702  0.1792
27916W        W34516  21.895   2.962   5.630 -0.0162  0.2702 -0.3700
27917W        W34517   6.406   5.473  18.320  0.0432 -0.1875  0.2476
27918W        W34518  28.741   0.954   1.945  0.4188 -0.1432 -0.0749
27919W        W34519   2.574   2.710  21.816 -0.1006  0.0266  0.0992
27920W        W34520  24.805   5.029  25.206  0.1815 -0.1047 -0.2125
27921W        W34521  22.811   4.770   0.743  0.2042  0.0824 -0.2263
27922W        W34522  14.029   2.054   9.591  0.1646  0.0062  0.1611
27923W        W34523  22.014   1.561  11.291 -0.1307  0.1039 -0.1058
27924W        W34524   0.745   7.147  23.520  0.0263 -0.0053  0.0248
27925W        W34525   1.058   0.270  24.867  0.2263  0.0243  0.0649
27926W        W34526   2.906   3.864   7.596 -0.0980  0.1934  0.0321
27927W        W34527  25.995   5.173  25.162 -0.1413 -0.2830 -0.0389
27928W        W34528  30.191   4.021   8.165  0.0825  0.1447 -0.2341
27929W        W34529   3.874   6.581   9.322 -0.1002  0.0394  0.3979
27930W        W34530  19.207   7.259   1.710  0.0447  0.3325  0.1219
27931W        W34531  20.442   5.457   3.456 -0.1855 -0.3803  0.0742
27932W        W34532  11.175   6.602   1.998  0.2173  0.0134 -0.0869
27933W        W34533  14.609   5.886  17.982  0.2151 -0.0788 -0.0215
27934W        W34534  20.999   5.194  19.649  0.0489 -0.0717  0.2155
27935W        W34535  30.909   3.588  20.786 -0.3353  0.0816  0.3868
27936W        W34536  15.309   7.099   7.160 -0.1884  0.2184  0.2788
27937W        W34537  14.031   0.911   9.186  0.1349 -0.4356 -0.0790
27938W        W34538  28.850   2.703  10.196  0.3273 -0.1439  0.2824
27939W        W34539  10.335   5.996  22.444 -0.1095  0.2544  0.2274
27940W        W34540   1.883   6.221  25.324  0.2968 -0.0335 -0.0347
27941W        W34541  22.562   2.127   4.801 -0.2162  0.0527  0.0632
27942W        W34542  12.407   1.468  24.287  0.2273  0.2602  0.2097
27943W        W34543  16.118   0.356   2.850 -0.3619  0.1036  0.0195
27944W        W34544  20.020   0.012  16.541 -0.0160 -0.2691  0.1095
27945W        W34545  22.110   7.653  21.560  0.1867  0.1586 -0.1665
27946W        W34546   2.119   6.226   0.468  0.0960 -0.2165  0.1246
27947W        W34547  11.929   0.325   0.136 -0.0666  0.0500 -0.0582
27948W        W34548   5.750   7.748   9.618  0.2601  0.2597  0.1869
27949W        W34549  25.088   5.123  20.450  0.0895 -0.0406  0.1662
27950W        W34550  10.255   4.948  25.161  0.3512 -0.1642 -0.0643
27951W        W34551   3.139   5.218   3.293  0.2107  0.1288 -0.0600
27952W        W34552   5.637   7.158   7.892  0.0495 -0.2930  0.0300
27953W        W34553  16.761   6.112   9.021  0.4451 -0.1481 -0.1722
27954W        W34554   7.413   1.184   2.174  0.0033  0.0692 -0.0958
27955W        W34555  20.745   0.469  23.266  0.4264  0.0065 -0.2435
27956W        W34556   3.779   7.675   1.872 -0.0551  0.1320 -0.1804
27957W        W34557  28.426   2.561   4.559 -0.0338  0.2725 -0.2507
27958W        W34558  25.248   3.559   4.658  0.0351 -0.1094 -0.1763
27959W        W34559  18.850   1.164  17.914  0.2062 -0.2932  0.1017
27960W        W34560   2.484   6.417  24.626 -0.4458  0.2012  0.0580
27961W        W34561  21.215   0.813  20.871  0.0616  0.3389  0.1655
27962W        W34562  24.311   1.680   7.269  0.2995  0.1029 -0.2457
27963W        W34563  31.347   7.511   6.694 -0.0062 -0.1823  0.0160
27964W        W34564  23.913   6.175  15.996 -0.1378 -0.1970 -0.0227
27965W        W34565   2.379   0.992   5.946 -0.2405 -0.1119 -0.1589
27966W        W34566   2.197   7.070  20.709 -0.1577 -0.1796 -0.1614
27967W        W34567   2.436   5.045  24.000 -0.1663 -0.1355  0.2699
27968W        W34568  30.431   1.190  18.487  0.0258  0.1456 -0.0239
27969W        W34569  12.063   3.918   9.424 -0.0753  0.0579  0.0066
27970W        W34570  14.468   2.666   8.805 -0.0790 -0.0348  0.2510
27971W        W34571  25.005   0.890   6.222 -0.0226 -0.1116 -0.2910
27972W        W34572  10.855   3.960   0.265  0.1803  0.1154 -0.0969
27973W        W34573   2.655   3.845  20.657 -0.0038  0.1023 -0.0819
27974W        W34574   8.840   5.092  18.628  0.0505  0.1731 -0.1189
27975W        W34575  29.661   5.240  20.934  0.5025 -0.0661  0.0585
27976W        W34576  27.499   2.468  10.317 -0.1567  0.1582 -0.0914
27977W        W34577   8.840   1.413   9.580  0.4014  0.0829 -0.0780
27978W        W34578  12.122   3.038   5.169 -0.3462 -0.1557  0.2098
27979W        W34579   1.069   0.960  17.709  0.1204 -0.1385  0.1606
27980W        W34580   2.921   1.111  24.687  0.0449 -0.0298  0.0889
27981W        W34581  14.253   3.410   9.532  0.0809 -0.1603 -0.0154
27982W        W34582   4.791   1.871  16.760  0.1410  0.0469  0.0973
27983W        W34583   0.244   5.275  17.370  0.0295  0.0608 -0.0303
27984W        W34584  10.220   5.649   1.475  0.2188  0.1571 -0.1201
27985W        W34585   1.298   2.085  20.020  0.0532 -0.1081  0.0449
27986W        W34586   1.779   6.894  24.943 -0.2305  0.1226 -0.0252
27987W        W34587   6.989   4.152   0.286 -0.0977  0.2002  0.0132
27988W        W34588   4.538   6.143   6.811  0.2015  0.0598  0.3196
27989W        W34589  12.813   5.288  15.246 -0.0836  0.0657 -0.2295
27990W        W34590  23.633   0.811   1.282  0.1727  0.0291 -0.0780
27991W        W34591   8.333   7.786   9.226 -0.0830  0.0447 -0.2074
27992W        W34592  16.204   0.114   8.622 -0.0768 -0.0622 -0.0351
27993W        W34593  27.008   7.168  10.402 -0.2770  0.2491 -0.1055
27994W        W34594   9.988   4.345   1.823  0.1387  0.0117  0.0616
27995W        W34595  23.966   0.125   6.663  0.1484 -0.1436 -0.3768
27996W        W34596  31.230   1.426  17.299 -0.4421  0.1773  0.0605
27997W        W34597  23.840   7.454   1.648  0.1995  0.3986 -0.0570
27998W        W34598   1.322   6.541   9.165  0.1202 -0.0213  0.0109
27999W        W34599  14.052   2.715  20.150 -0.2721 -0.0667 -0.0626
28000W        W34600  20.167   0.362   8.472  0.1612  0.0418  0.2725
28001W        W34601  17.473   4.622   6.268  0.0157  0.1324  0.0954
28002W        W34602  20.659   7.249  11.560  0.0854  0.0337  0.1168
28003W        W34603   8.296   7.138  19.569 -0.1865  0.2485  0.1428
28004W        W34604  13.761   3.945   9.169 -0.2703 -0.0584 -0.1086
28005W        W34605  18.644   5.237  11.885 -0.1855  0.0407  0.0411
28006W        W34606   8.266   5.087   8.561 -0.0447  0.4010  0.0466
28007W        W34607  20.030   0.532  22.212  0.1092 -0.0854 -0.1649
28008W        W34608  10.439   5.265  19.063 -0.2911 -0.1974 -0.0712
28009W        W34609  11.893   0.081  20.016 -0.0377  0.0474 -0.1630
28010W        W34610  28.420   1.137  21.479  0.1296 -0.0506 -0.1861
28011W        W34611  22.526   1.923  17.285  0.2523 -0.0807  0.0920
28012W        W34612  19.530   5.429   3.121 -0.2198  0.1640 -0.4485
28013W        W34613  20.797   1.733   0.235  0.1256 -0.0567 -0.5878
28014W        W34614   7.252   4.972   9.587  0.3418  0.0423  0.2244
28015W        W34615  14.484   2.103  24.333 -0.0934  0.0016 -0.1101
28016W        W34616   9.901   5.295  20.107 -0.1931 -0.0067 -0.0639
28017W        W34617   7.723   3.994  20.301  0.0776  0.0962  0.2039
28018W        W34618  21.076   2.054  10.767 -0.1564  0.2357  0.0227
28019W        W34619   5.266   0.140   7.562  0.1792  0.1341  0.1621
28020W        W34620   7.035   6.892   2.602 -0.0244 -0.1023 -0.0452
28021W        W34621  30.284   6.697   8.755 -0.2542  0.2512  0.0868
28022W        W34622  25.405   2.930  17.547 -0.0370  0.0235  0.1337
28023W        W34623  15.525   4.913  15.514 -0.3259 -0.1083  0.2055
28024W        W34624   8.308   4.199   9.708 -0.1884 -0.1086  0.0631
28025W        W34625  26.021   5.322  21.401  0.1469  0.0194  0.3084
28026W        W34626  28.864   2.367   7.492  0.2518  0.0004 -0.0316
28027W        W34627   8.602   6.083  15.987 -0.1609  0.0306 -0.0801
28028W        W34628  27.172   6.247   9.382  0.0422 -0.0880  0.1925
28029W        W34629  19.618   4.540   7.632  0.0130 -0.0488 -0.0365
28030W        W34630   3.800   7.173  15.695 -0.0377 -0.0567  0.0798
28031W        W34631  12.101   7.161  15.418  0.0152  0.1108  0.1473
28032W        W34632   6.124   0.958  15.436 -0.0384  0.5349 -0.1078
28033W        W34633  20.032   1.488   5.574 -0.3216  0.1484  0.1814
28034W        W34634   8.019   5.648   7.386 -0.1474  0.1231 -0.2329
28035W        W34635  18.030   5.333   5.546 -0.0136 -0.2270  0.0091
28036W        W34636  28.399   0.493  10.600  0.0380  0.2838  0.3425
28037W        W34637  27.257   0.175  17.728  0.1546 -0.1009  0.0214
28038W        W34638  15.061   5.675  19.411  0.1311  0.2179  0.3197
28039W        W34639   4.137   0.060  10.210 -0.0342  0.0436 -0.1366
28040W        W34640  20.919   2.868   4.712  0.0664 -0.3260 -0.1193
28041W        W34641   8.684   2.710   8.230  0.2257  0.2820 -0.2071
28042W        W34642  17.358   2.779   3.282  0.1599 -0.1088 -0.0671
28043W        W34643   5.870   5.536  21.549 -0.0630  0.0272 -0.1392
28044W        W34644   2.485   2.348  24.224  0.0725 -0.3537 -0.0306
28045W        W34645  11.340   3.774   6.822 -0.0647 -0.0091 -0.2469
28046W        W34646   1.918   0.415   4.840 -0.1338 -0.0956 -0.0810
28047W        W34647  20.599   4.747   2.154 -0.0383  0.1617 -0.2098
28048W        W34648   1.641   1.909  18.558  0.0053 -0.0615 -0.0747
28049W        W34649   8.791   7.184  24.633 -0.1800  0.3001  0.2218
28050W        W34650  23.141   3.729   4.502 -0.0438 -0.0750 -0.2483
28051W        W34651  29.398   2.547   9.049  0.2770  0.0529 -0.1203
28052W        W34652  24.125   4.603   1.138  0.0523 -0.1214 -0.2355
28053W        W34653   1.979   5.188   9.897 -0.0068  0.1225 -0.2132
28054W        W34654   9.577   2.425  20.259 -0.2215  0.1654 -0.1240
28055W        W34655   2.005   7.659   0.170  0.1927  0.1005  0.2840
28056W        W34656  16.435   2.213  22.999 -0.2397  0.0939 -0.2783
28057W        W34657  22.393   3.827   0.608  0.1636  0.1595 -0.3293
28058W        W34658  10.203   6.294   4.109 -0.0506 -0.0374 -0.0512
28059W        W34659  10.580   5.171  21.723  0.2316 -0.2201  0.1588
28060W        W34660   9.295   4.578  17.075  0.0536 -0.2547 -0.1483
28061W        W34661   2.633   5.330  14.374  0.0030  0.4918 -0.2183
28062W        W34662  16.920   0.877   4.894  0.3322  0.0476  0.1688
28063W        W34663  24.196   0.320  24.514 -0.2168 -0.0680 -0.2233
28064W        W34664  17.345   4.751  17.228 -0.0131 -0.2656  0.0578
28065W        W34665   1.981   5.267  21.959 -0.0015 -0.0993 -0.0651
28066W        W34666  13.828   4.549   3.078  0.0350 -0.4852 -0.0474
28067W        W34667  29.004   0.553   4.173 -0.0769  0.2149 -0.2969
28068W        W34668  20.793   4.387  19.251 -0.3100 -0.0432  0.1292
28069W        W34669  26.153   7.578  16.048 -0.2835  0.3308 -0.0657
28070W        W34670   7.034   1.728  21.811  0.0264 -0.0330  0.1867
28071W        W34671  11.664   7.380   4.313 -0.0839  0.4001  0.1322
28072W        W34672  29.174   7.084  21.514 -0.2216 -0.0003 -0.1858
28073W        W34673  25.297   4.286  19.597 -0.0264 -0.0869  0.1211
28074W        W34674  13.792   0.000  24.586  0.3050 -0.0791 -0.0996
28075W        W34675   4.104   5.935  19.415 -0.2047 -0.0063  0.2116
28076W        W34676  14.967   7.407  19.654 -0.1126 -0.2123  0.0287
28077W        W34677   3.163   2.146  17.270  0.1254 -0.0214  0.1396
28078W        W34678  29.411   0.541   8.723  0.2745  0.0219 -0.0650
28079W        W34679  18.371   1.271  24.166 -0.2450  0.1907  0.1720
28080W        W34680   6.208   5.244  20.125  0.5732 -0.2342  0.0595
28081W        W34681  26.932   7.823  10.549 -0.1323 -0.1264  0.0610
28082W        W34682  18.113   3.058  10.533  0.0669  0.0906  0.0027
28083W        W34683   6.054   0.811  15.006  0.1345 -0.2146  0.1169
28084W        W34684  19.115   7.424  10.114 -0.2422 -0.3048 -0.1566
28085W        W34685  12.575   7.476   2.811 -0.1199 -0.1692 -0.1331
28086W        W34686  31.307   4.039   7.551  0.1074  0.1595 -0.3266
28087W        W34687  15.337   0.972  21.217 -0.0427 -0.0556 -0.0251
28088W        W34688   0.139   7.558  10.369  0.1926 -0.1982 -0.0112
28089W        W34689  17.372   5.480   9.374  0.0086 -0.1845 -0.0636
28090W        W34690  20.346   1.606   8.105 -0.0806  0.0791 -0.1957
28091W        W34691  14.647   1.602   4.231  0.0264 -0.0720  0.0432
28092W        W34692   7.192   6.613   5.765  0.1365  0.0376  0.0040
28093W        W34693   4.678   1.847   3.695  0.0398  0.1836 -0.3910
28094W        W34694  26.399   5.848  16.450  0.1560  0.2907 -0.0359
28095W        W34695   0.508   5.271   5.996 -0.0174  0.1373  0.2372
28096W        W34696  24.981   2.682  21.882  0.0162  0.1659 -0.1951
28097W        W34697  17.878   7.751   4.925  0.2838 -0.1239 -0.2033
28098W        W34698   4.182   6.750   8.394  0.0565 -0.1495 -0.1380
28099W        W34699   9.275   6.953  25.195  0.0925  0.2782 -0.2381
28100W        W34700   3.660   6.507  22.067 -0.3052 -0.2672 -0.2862
28101W        W34701  17.121   7.682   0.402 -0.0238 -0.0911  0.3268
28102W        W34702  22.589   0.406  21.589  0.1742 -0.0241 -0.1549
28103W        W34703   9.833   7.850  24.279  0.1096  0.2799  0.0419
28104W        W34704  10.268   3.050  23.674 -0.4114 -0.0703 -0.3382
28105W        W34705  30.311   1.724  17.796  0.1781  0.1084  0.0284
28106W        W34706  25.599   1.590   5.186 -0.0462 -0.3712  0.0971
28107W        W34707  25.543   4.026  21.418 -0.2206  0.1615  0.1580
28108W        W34708  13.274   2.371   2.457 -0.3974 -0.1185 -0.0826
28109W        W34709  23.733   6.750   8.664 -0.0670 -0.0793  0.0146
28110W        W34710   1.773   3.689  16.744  0.0330  0.1977  0.1465
28111W        W34711  30.187   7.315   9.216 -0.1019 -0.1234  0.1926
28112W        W34712   0.162   2.530  14.160  0.1126  0.1953  0.0055
28113W        W34713  12.657   0.228  23.658  0.0939  0.0215  0.0546
28114W        W34714  22.413   2.589  18.419  0.0475 -0.0577  0.2345
28115W        W34715  26.920   0.751   9.584 -0.3370 -0.2369  0.0283
28116W        W34716  23.394   4.309   4.875 -0.2865  0.0531 -0.1924
28117W        W34717  22.882   1.288   5.269  0.1647 -0.3473  0.0553
28118W        W34718  21.990   1.455   0.289  0.2152 -0.3635  0.1432
28119W        W34719   7.111   3.959  17.981  0.3935  0.0781 -0.0248
28120W        W34720  31.182   6.456  20.417 -0.0662 -0.2013 -0.2358
28121W        W34721  24.250   6.717  21.077 -0.1346 -0.2878 -0.2823
28122W        W34722  20.844   7.380  25.565  0.3632 -0.1485  0.0425
28123W        W34723   4.660   5.890  25.074 -0.0488 -0.0878  0.3217
28124W        W34724   2.314   1.938  23.647  0.0079 -0.0861 -0.1984
28125W        W34725   3.912   3.419  23.115 -0.4134 -0.0601  0.0875
28126W        W34726   2.035   4.606   0.551 -0.0885 -0.3163 -0.1474
28127W        W34727  19.678   3.613   5.039 -0.3911  0.1203 -0.4763
28128W        W34728  28.377   1.614   2.696 -0.0065 -0.2610 -0.1908
28129W        W34729  29.713   2.242   1.335 -0.0589  0.0280  0.2049
28130W        W34730   7.558   0.067   6.485  0.0691 -0.4710 -0.0230
28131W        W34731  28.980   0.585   2.798  0.0445 -0.1339  0.1323
28132W        W34732  14.510   3.238  18.787  0.1887 -0.3882 -0.1545
28133W        W34733  14.393   3.546   6.258 -0.0711 -0.0606 -0.2034
28134W        W34734  23.680   2.239  24.127  0.1582  0.0447  0.1739
28135W        W34735  25.916   3.171   4.783 -0.0384 -0.0159  0.1742
28136W        W34736  29.448   1.335  16.712 -0.0463  0.2861  0.0405
28137W        W34737  29.659   3.189   3.879 -0.3541  0.1179 -0.0143
28138W        W34738   5.948   0.825  18.233  0.2593 -0.1828 -0.0594
28139W        W34739  28.887   3.830  24.291  0.0185  0.2531 -0.0238
28140W        W34740   6.035   3.405  25.084  0.0938  0.1811 -0.0141
28141W        W34741  24.802   6.859  22.222 -0.2767  0.2367  0.0276
28142W        W34742   5.693   1.775   4.807  0.3760  0.1123  0.0847
28143W        W34743   3.217   5.514   3.904 -0.2345  0.0487  0.0456
28144W        W34744   5.005   4.744   5.867 -0.0894 -0.3777  0.0127
28145W        W34745   0.120   4.537  14.603 -0.0694  0.0457  0.1121
28146W        W34746  21.978   3.727   1.483 -0.1623 -0.0424 -0.0520
28147W        W34747  17.465   3.442  23.364 -0.0948  0.0801  0.1919
28148W        W34748  22.047   7.826   5.633  0.0524 -0.1057  0.1547
28149W        W34749   8.411   1.607  24.215  0.1064  0.4290 -0.0251
28150W        W34750  23.664   5.902  16.523  0.0617  0.0338 -0.1272
28151W        W34751  15.041   3.715   7.983  0.1607 -0.2694 -0.3116
28152W        W34752  26.780   6.362  25.351 -0.2079  0.0400 -0.1461
28153W        W34753  22.646   4.975  23.012  0.2118  0.1928  0.2088
28154W        W34754  26.275   6.459   6.831 -0.1014 -0.1596 -0.2186
28155W        W34755  27.620   0.847  22.841 -0.3179  0.1238  0.0488
28156W        W34756  27.368   5.286   3.138  0.1233  0.0366 -0.1220
28157W        W34757  10.135   5.370  21.863  0.0756 -0.2764  0.0470
28158W        W34758  20.500   2.378   1.319 -0.1402 -0.2260  0.0780
28159W        W34759   4.703   1.548  19.184  0.0783  0.0174  0.0078
28160W        W34760  27.604   5.184  21.801 -0.2345 -0.0535  0.0772
28161W        W34761   4.378   3.867   5.034 -0.0748  0.3131  0.0838
28162W        W34762  12.299   6.361   1.305 -0.2229 -0.1614  0.3023
28163W        W34763  25.317   6.243  21.986 -0.1429 -0.1496  0.0598
28164W        W34764   5.073   6.732  15.821  0.1552 -0.2589 -0.1854
28165W        W34765  21.371   5.257  17.947  0.1264 -0.0575 -0.0861
28166W        W34766  14.244   1.988   4.965  0.3512  0.1874  0.1321
28167W        W34767  11.793   1.525  20.216  0.1528 -0.0554  0.1917
28168W        W34768  18.320   2.056   6.777  0.1167 -0.0316  0.3187
28169W        W34769  19.378   5.317  17.374  0.3089  0.1090 -0.1112
28170W        W34770   3.611   1.626  16.382  0.0491 -0.0441 -0.0874
28171W        W34771   4.604   4.390   7.655 -0.0948 -0.3488 -0.2628
28172W        W34772  14.449   5.445   1.147  0.1080 -0.0007  0.2174
28173W        W34773   0.319   3.881  15.630 -0.1695  0.0218  0.2594
28174W        W34774  30.302   4.597  18.851  0.0798  0.1703  0.0480
28175W        W34775  11.402   0.282   2.093  0.2451  0.1131 -0.0451
28176W        W34776   4.426   2.221  21.613  0.2768  0.0568  0.3670
28177W        W34777  14.345   2.371  23.051 -0.4235  0.1700  0.1419
28178W        W34778  11.904   0.961   5.116 -0.1089 -0.0476  0.1523
28179W        W34779  22.721   5.763  22.517  0.0064 -0.2360 -0.2460
28180W        W34780  27.413   2.944  15.637 -0.3296 -0.0368 -0.2291
28181W        W34781   5.159   0.661   7.585  0.2069 -0.1123 -0.0441
28182W        W34782  16.698   1.944   9.771 -0.2541  0.0991  0.1457
28183W        W34783   8.323   3.538  10.209  0.1921 -0.3965 -0.0369
28184W        W34784  16.356   5.748   4.387 -0.1790 -0.1348  0.0331
28185W        W34785  13.356   3.158  15.286  0.1252 -0.3389 -0.2225
28186W        W34786  25.102   2.548   2.473  0.1032 -0.0919  0.1181
28187W        W34787  30.809   5.589   3.744 -0.0309 -0.0839 -0.2625
28188W        W34788   1.303   0.697  15.432 -0.0509  0.1256  0.0784
28189W        W34789  20.885   7.425   6.508 -0.0946 -0.1580 -0.0656
28190W        W34790  17.634   5.357  25.746  0.0266  0.0768  0.2630
28191W        W34791   2.678   5.047   8.590 -0.0736  0.1517  0.1126
28192W        W34792  23.269   2.336  17.649  0.1232  0.0398  0.2090
28193W        W34793  13.332   5.231   5.135  0.0467 -0.0958  0.0851
28194W        W34794   7.573   5.626   4.709 -0.3356 -0.0599  0.2734
28195W        W34795  25.260   6.191  23.425 -0.2861  0.0426  0.0738
28196W        W34796  10.527   0.084   2.767  0.1099  0.0951 -0.2573
28197W        W34797  19.825   0.458   4.440  0.1097 -0.1505 -0.0439
28198W        W34798  14.975   0.597  18.764  0.2834  0.1033  0.1665
28199W        W34799  21.651   1.290   1.314 -0.2169  0.0744  0.4990
28200W        W34800  15.629   1.206  16.568  0.1034 -0.0611 -0.2482
28201W        W34801  25.879   5.277  17.005 -0.0063  0.2391  0.0328
28202W        W34802  29.186   0.491  25.823  0.0085  0.1007  0.0906
28203W        W34803  28.449   2.369  21.513 -0.0205  0.0706  0.2387
28204W        W34804  30.124   0.011   1.210 -0.2386 -0.2956  0.1030
28205W        W34805  20.315   5.229   4.764  0.0458 -0.2921  0.0003
28206W        W34806  23.071   0.569  18.882 -0.1248  0.0265 -0.0355
28207W        W34807  29.171   3.556  18.268  0.0469  0.1705  0.3729
28208W        W34808   5.870   2.655  21.737 -0.2477  0.3289  0.1649
28209W        W34809  30.447   7.381   6.958 -0.0411 -0.3710  0.0285
28210W        W34810  11.683   3.941   2.405 -0.2105 -0.1586  0.1340
28211W        W34811  27.983   2.499   4.390 -0.0984 -0.0746 -0.1025
28212W        W34812  10.982   1.674   2.881  0.0842 -0.2315  0.0764
28213W        W34813  10.414   1.832  20.100 -0.2142 -0.0751 -0.1289
28214W        W34814  22.797   6.356   4.980  0.0263  0.0139 -0.0878
28215W        W34815  28.450   5.354   7.960  0.3275  0.0580 -0.1601
28216W        W34816  24.205   1.634   6.671  0.0817  0.1999 -0.2424
28217W        W34817   8.712   5.901  20.751 -0.0895  0.2961  0.2847
28218W        W34818  15.086   5.786  10.311 -0.0243 -0.2784 -0.0584
28219W        W34819  17.874   7.221  19.480 -0.0281 -0.0165 -0.0515
28220W        W34820   4.701   2.335   8.163  0.1693 -0.1157  0.1927
28221W        W34821  11.010   2.407  20.142  0.2981 -0.1619 -0.0425
28222W        W34822  26.212   6.329  22.594 -0.0825 -0.0692  0.0152
28223W        W34823  11.090   3.153  25.357  0.4158  0.0571  0.0780
28224W        W34824  27.527   2.721   2.094  0.1988  0.0081  0.1820
28225W        W34825   4.847   2.690  23.757 -0.1226  0.2703 -0.1160
28226W        W34826  27.615   5.551   7.703  0.1359  0.1920 -0.0632
28227W        W34827  16.179   3.759  19.878 -0.0330  0.0527 -0.1806
28228W        W34828  30.556   5.103  25.442  0.1628  0.0347  0.0620
28229W        W34829   7.010   6.928  10.406  0.1839 -0.1329 -0.0337
28230W        W34830  30.938   0.746  20.885  0.1225 -0.3713  0.0555
28231W        W34831  26.741   4.330   4.431 -0.1303  0.0532  0.1975
28232W        W34832  23.285   3.556  16.499  0.1463  0.1640  0.1033
28233W        W34833  14.477   2.130   0.942  0.1859  0.2607  0.2436
28234W        W34834  30.758   5.740   4.270 -0.2420 -0.1486 -0.1180
28235W        W34835   9.278   0.093  25.589 -0.0141 -0.0479 -0.0253
28236W        W34836  31.122   3.646  19.373 -0.1712 -0.2590 -0.1810
28237W        W34837   0.429   4.793   2.709 -0.0517 -0.1040 -0.1173
28238W        W34838  15.976   6.832  21.898 -0.1209 -0.1213  0.1300
28239W        W34839  14.972   6.918  11.801  0.2688 -0.0225  0.2417
28240W        W34840   4.456   0.338   1.621 -0.0227  0.0216  0.0338
28241W        W34841  29.583   2.842   1.205 -0.0861  0.1846 -0.2094
28242W        W34842  16.563   7.187   5.108  0.1118  0.1507 -0.1713
28243W        W34843   1.850   2.708   3.885 -0.2006  0.0216  0.0098
28244W        W34844   7.608   5.850  21.380  0.1664  0.1015  0.0668
28245W        W34845   6.753   5.815  21.227  0.2470 -0.0572 -0.2984
28246W        W34846   0.242   1.269  15.580 -0.2138 -0.2132 -0.1829
28247W        W34847  29.726   1.656   0.875 -0.2252  0.0910 -0.0435
28248W        W34848  19.713   2.332   0.928 -0.1286  0.2821  0.1970
28249W        W34849   9.874   3.150  11.475  0.3766 -0.0975 -0.1017
28250W        W34850  28.627   1.419   9.488 -0.0472 -0.0291 -0.2004
28251W        W34851   9.722   1.451  23.264 -0.3384  0.0887  0.1618
28252W        W34852  17.691   3.205  18.423 -0.2116  0.1505 -0.1192
28253W        W34853   4.693   5.618   5.817  0.0406 -0.0367 -0.0271
28254W        W34854  26.095   5.572   9.445 -0.0221  0.0554 -0.0012
28255W        W34855   6.760   6.401  17.718 -0.1000  0.2318 -0.1102
28256W        W34856  17.712   5.106  21.419 -0.0741 -0.1600 -0.0734
28257W        W34857  22.368   0.581  17.813  0.2588  0.0074 -0.2505
28258W        W34858  21.973   0.037   7.912  0.0295  0.3393  0.2123
28259W        W34859  30.232   6.062  25.578 -0.1505  0.0250 -0.1384
28260W        W34860  12.683   1.396  20.097  0.2045 -0.0119 -0.0821
28261W        W34861  23.121   4.389   7.905  0.3629  0.4719  0.0334
28262W        W34862  18.435   0.778  24.756  0.1516  0.1115 -0.3522
28263W        W34863   3.379   2.961   2.154  0.0389  0.4603 -0.0439
28264W        W34864  17.392   3.559  20.435  0.2979  0.0524 -0.1182
28265W        W34865  21.035   7.339  24.196  0.1514 -0.0447 -0.0771
28266W        W34866  20.116   1.170   7.299  0.1633 -0.1181  0.0577
28267W        W34867   5.323   7.009   8.940 -0.1433  0.1018 -0.2672
28268W        W34868  27.974   4.905  17.713 -0.1476  0.0129  0.3076
28269W        W34869  22.676   3.360  25.274 -0.0928 -0.2939  0.2056
28270W        W34870  29.103   6.564   3.088 -0.1216 -0.0714 -0.0671
28271W        W34871  26.877   6.445   5.519 -0.2697  0.0903  0.0162
28272W        W34872  17.230   7.702  11.230 -0.0809 -0.2281  0.2607
28273W        W34873  11.313   1.291  25.828  0.0403 -0.0555  0.0519
28274W        W34874  14.886   0.122  18.084  0.1336 -0.2450 -0.1896
28275W        W34875  21.641   3.248   9.930  0.0167  0.3924 -0.1594
28276W        W34876   8.916   1.945  19.219 -0.1380 -0.3385 -0.1741
28277W        W34877  12.397   3.037  11.093  0.2362  0.2012 -0.1134
28278W        W34878  15.797   2.393   3.078  0.0055  0.0380  0.1826
28279W        W34879   8.276   6.139  23.813 -0.0028  0.2904 -0.2331
28280W        W34880  23.089   7.142  17.021 -0.0456 -0.0137 -0.3334
28281W        W34881   1.728   7.535   7.032  0.2910  0.1583 -0.7351
28282W        W34882  25.525   7.102  20.108 -0.0424  0.0673 -0.0094
28283W        W34883  16.775   7.730  26.051  0.2586  0.0920 -0.2238
28284W        W34884  22.715   2.678  24.177  0.2940 -0.1637 -0.0255
28285W        W34885  18.171   4.281  18.863 -0.1347  0.2323 -0.1576
28286W        W34886   3.618   2.429  17.153  0.2149  0.1421 -0.1801
28287W        W34887  27.233   1.918  21.829 -0.1938 -0.2293 -0.2257
28288W        W34888  14.897   5.272   4.618 -0.0122 -0.2734 -0.0425
28289W        W34889  16.506   0.874  19.396  0.0008 -0.1359  0.1240
28290W        W34890   9.872   4.144   4.104  0.1229 -0.2917 -0.0220
28291W        W34891   5.228   6.255  15.731  0.3193 -0.2842 -0.0700
28292W        W34892  23.592   7.145  17.066  0.0554 -0.2037  0.1147
28293W        W34893  11.161   6.343   6.644  0.0350 -0.1256 -0.0368
28294W        W34894  16.184   1.153   6.684 -0.1713 -0.1834  0.1403
28295W        W34895   3.725   6.227   5.493  0.0316 -0.2372  0.4621
28296W        W34896   8.700   2.039  18.646  0.0357  0.2276  0.1454
28297W        W34897  15.472   1.972   8.058  0.1806 -0.0449 -0.4722
28298W        W34898   2.584   6.852  23.306  0.0328  0.0528  0.1504
28299W        W34899  10.081   2.580  23.645  0.0451  0.0759 -0.0480
28300W        W34900   2.138   3.813  18.518 -0.1881 -0.2633  0.2402
28301W        W34901   4.986   2.227   1.247  0.0259 -0.0018  0.0970
28302W        W34902   3.342   0.790   7.344  0.1829 -0.0182  0.0836
28303W        W34903  18.800   7.130   2.859 -0.0346 -0.0597  0.0913
28304W        W34904  16.937   7.703   7.685 -0.0269 -0.0008 -0.1289
28305W        W34905   1.520   5.047  23.627  0.1082  0.0082  0.1394
28306W        W34906  28.564   3.607  10.625 -0.3072 -0.1625  0.3214
28307W        W34907  16.958   6.964   4.749 -0.0575  0.1698 -0.1217
28308W        W34908  22.833   6.711  25.011 -0.0564 -0.2298  0.3240
28309W        W34909  11.984   3.782   5.809 -0.3620  0.1511  0.2077
28310W        W34910   0.722   1.301  20.526  0.1449  0.0415  0.0265
28311W        W34911  22.991   3.875   7.048 -0.3890  0.0328  0.0074
28312W        W34912  11.110   0.650   1.991  0.1086 -0.0488  0.1134
28313W        W34913  21.784   7.057   9.506 -0.0505 -0.1476 -0.0455
28314W        W34914   5.949   0.306  20.137 -0.1071  0.1532  0.1053
28315W        W34915  13.618   6.789  16.149 -0.1740  0.1689  0.3203
28316W        W34916  20.172   5.505   4.384 -0.0637 -0.0903 -0.0227
28317W        W34917   0.918   2.781  19.035 -0.2262 -0.0498 -0.0881
28318W        W34918  13.021   3.288  23.514  0.3109 -0.0685 -0.1837
28319W        W34919  18.097   0.861  10.924 -0.2562 -0.2606 -0.2010
28320W        W34920  16.600   7.606   8.782  0.2476 -0.1518 -0.2626
28321W        W34921  21.241   1.113   6.141  0.0294 -0.1089  0.0710
28322W        W34922  18.918   0.969  25.245  0.0157 -0.0550 -0.1955
28323W        W34923  10.345   5.202  10.194 -0.0367 -0.0970 -0.1742
28324W        W34924  24.974   7.848   5.643 -0.2063 -0.0521  0.1785
28325W        W34925  12.088   6.227   5.057  0.0998 -0.0500  0.1934
28326W        W34926   3.444   1.417   9.516  0.0032  0.1608  0.1188
28327W        W34927  28.517   0.238   4.287 -0.0331 -0.0539  0.0753
28328W        W34928  29.710   7.703   8.198 -0.0055  0.2305 -0.7463
28329W        W34929  18.472   3.481  21.330  0.3404 -0.0943 -0.3302
28330W        W34930   4.061   6.064  25.324  0.0060 -0.2170 -0.1484
28331W        W34931  28.214   6.601   5.313  0.1902 -0.0147 -0.0253
28332W        W34932   2.764   3.451   2.460  0.3476 -0.0140  0.3384
28333W        W34933   4.087   1.273   0.445  0.0286 -0.0837 -0.1562
28334W        W34934  21.037   2.973   5.699 -0.1320  0.0886  0.0331
28335W        W34935  15.195   4.008   6.698 -0.0644 -0.0158  0.1453
28336W        W34936   0.516   3.555   8.826 -0.0182 -0.1590  0.2946
28337W        W34937  11.570   6.551   6.447  0.1190 -0.1936 -0.2585
28338W        W34938   9.113   5.578   8.578 -0.0799 -0.0773  0.1770
28339W        W34939  12.083   0.804   0.878  0.0352  0.2766  0.0178
28340W        W34940   6.757   2.373   7.214 -0.1297  0.2881 -0.0576
28341W        W34941  24.889   6.418   4.751  0.5923 -0.1595 -0.1375
28342W        W34942  26.846   0.241  21.902  0.1138  0.0465  0.0530
28343W        W34943  10.804   2.321  21.418 -0.0838 -0.0183  0.1152
28344W        W34944  19.549   6.144  21.337 -0.2496  0.0489 -0.0521
28345W        W34945  16.694   0.883  16.763  0.0648 -0.0551  0.3057
28346W        W34946  30.852   7.795   2.396  0.1075 -0.4604 -0.1973
28347W        W34947   3.308   5.672  20.060 -0.0489 -0.0261 -0.0091
28348W        W34948  20.615   5.862  21.961  0.1948  0.1824 -0.0743
28349W        W34949   6.855   1.277  24.315 -0.1777 -0.2564  0.2631
28350W        W34950  21.884   1.749  25.292  0.1073  0.1635 -0.2016
28351W        W34951  27.932   0.440   5.959 -0.1631 -0.2667 -0.0299
28352W        W34952   1.821   1.896  25.140 -0.0425  0.1599  0.2950
28353W        W34953  29.736   0.384  20.769 -0.0017 -0.0592 -0.1041
28354W        W34954   7.949   5.102  21.912 -0.2532  0.2028  0.0999
28355W        W34955  30.814   0.389  24.165 -0.1558 -0.4087  0.1266
28356W        W34956   8.536   7.276  22.113 -0.2143  0.2529  0.2408
28357W        W34957   5.105   4.980  21.320  0.0512  0.2396  0.2771
28358W        W34958   7.092   1.123  10.755 -0.0974  0.0942  0.0929
28359W        W34959   3.165   3.057  19.154  0.0960  0.0734  0.0057
28360W        W34960   0.571   7.053  14.733  0.4264  0.1167  0.0048
28361W        W34961  31.360   7.301   0.868  0.1274 -0.1372  0.0910
28362W        W34962   8.905   1.326   0.163 -0.0623  0.1996 -0.0137
28363W        W34963  15.437   7.266  21.327 -0.0896  0.0063 -0.1362
28364W        W34964  14.384   3.120  24.820 -0.1973  0.1182  0.2380
28365W        W34965  13.078   4.184  21.544 -0.2084  0.0375 -0.1763
28366W        W34966  16.279   2.290  10.200  0.3690 -0.0215  0.1269
28367W        W34967   7.480   5.807  17.202 -0.0623 -0.4181  0.1812
28368W        W34968   8.669   6.824   4.487  0.2888  0.0500 -0.3144
28369W        W34969   8.185   3.363  16.295 -0.0893 -0.3367  0.1408
28370W        W34970  16.729   2.064  24.233  0.1798  0.1896  0.3369
28371W        W34971   6.770   0.806  24.378 -0.1536 -0.2680 -0.2865
28372W        W34972  12.527   4.231  21.320  0.2529  0.0235  0.0127
28373W        W34973  26.687   1.399   2.869  0.1616 -0.3430  0.3567
28374W        W34974  10.405   6.133  23.390 -0.0599  0.3153 -0.2081
28375W        W34975  17.571   1.573   1.860  0.0672  0.1621 -0.0077
28376W        W34976   2.652   5.145  10.009 -0.0262  0.2542 -0.0583
28377W        W34977  23.407   4.637  19.464  0.0595  0.0024  0.2181
28378W        W34978   4.963   1.124  17.743  0.2440 -0.1894 -0.1043
28379W        W34979   7.522   4.058  19.797  0.2193 -0.0450  0.0368
28380W        W34980  20.006   7.641  25.084  0.0067 -0.2315  0.0086
28381W        W34981  18.646   7.500   6.474  0.0883  0.1857 -0.3725
28382W        W34982  29.703   4.823   6.328  0.0451  0.1440 -0.1143
28383W        W34983   1.288   1.974  20.499  0.3018  0.0616 -0.2554
28384W        W34984  13.089   4.156  22.904  0.1590  0.1654 -0.1181
28385W        W34985   2.103   3.795  22.427 -0.1283 -0.1456  0.2186
28386W        W34986   1.224   7.524  22.018  0.2334  0.1803  0.0230
28387W        W34987  22.012   5.382  20.019  0.2168 -0.0257  0.2389
28388W        W34988  16.202   3.671   2.200  0.1814  0.3273  0.0223
28389W        W34989   8.439   5.444   3.238  0.1128  0.0829  0.3534
28390W        W34990  23.564   0.107  16.663  0.2016 -0.1871  0.0122
28391W        W34991  26.747   6.455   4.834 -0.3295  0.1679  0.1080
28392W        W34992  17.395   1.593   1.382  0.0370  0.1258  0.1016
28393W        W34993  24.000   7.403  19.680  0.0388 -0.1329  0.2324
28394W        W34994   0.908   3.768  15.096  0.0215  0.3975  0.0734
28395W        W34995  15.131   5.437  16.879 -0.0597  0.1424 -0.0099
28396W        W34996  27.223   4.835  21.618 -0.1054  0.0117 -0.5238
28397W        W34997  26.137   7.406  10.743  0.3575 -0.2940  0.1854
28398W        W34998  11.451   1.854  10.152 -0.1436 -0.0693 -0.1217
28399W        W34999  20.974   7.774   3.892  0.1571 -0.3874 -0.2202
28400W        W35000  22.159   2.700   2.923 -0.2225  0.1479 -0.2782
28401W        W35001  10.934   0.049  16.324 -0.1073  0.0022 -0.1155
28402W        W35002   2.976   0.055   2.365 -0.2647 -0.1826  0.0874
28403W        W35003  17.868   4.841   6.117  0.1170  0.3847  0.0082
28404W        W35004  22.810   5.919   7.337  0.4805  0.0490  0.0201
28405W        W35005  12.995   4.972   3.200  0.1679  0.1560  0.2260
28406W        W35006  30.568   7.017  22.563  0.0008  0.0425  0.0271
28407W        W35007   7.794   4.238   1.334  0.1451 -0.1351  0.3457
28408W        W35008   7.328   0.289  20.076 -0.4207  0.2223 -0.1975
28409W        W35009  31.120   1.832   4.678  0.0461 -0.2685 -0.0414
28410W        W35010  17.047   0.845  22.085  0.0501  0.1733 -0.0148
28411W        W35011  18.903   0.400  10.820  0.4789  0.0412  0.1149
28412W        W35012  19.784   0.501   1.514 -0.2940 -0.5837 -0.0514
28413W        W35013   9.580   1.955  24.084 -0.0556  0.0813  0.1896
28414W        W35014  24.314   0.132  15.375 -0.0750 -0.2564  0.0068
28415W        W35015  16.576   2.668   9.258 -0.2840 -0.1037 -0.1060
28416W        W35016  19.769   6.433   9.738 -0.2211 -0.1151 -0.1690
28417W        W35017  15.228   6.118  19.110  0.3075 -0.1966 -0.0958
28418W        W35018   1.043   4.610  18.519  0.1244  0.2089  0.1920
28419W        W35019  31.139   3.970  24.058  0.2909 -0.0531  0.0094
28420W        W35020   6.612   6.408  25.569 -0.0955  0.0357 -0.2645
28421W        W35021  23.485   1.527   9.330 -0.1662 -0.0034  0.1710
28422W        W35022  17.319   5.619  22.553 -0.3156 -0.2280  0.2190
28423W        W35023  20.570   5.730  24.439  0.0673  0.1514  0.1042
28424W        W35024  31.021   2.013   1.891 -0.1006 -0.0230 -0.1775
28425W        W35025  22.204   4.910  23.244  0.1059 -0.3684 -0.0078
28426W        W35026   1.625   5.559   3.579  0.0720  0.0159  0.0813
28427W        W35027   8.599   5.962   0.576 -0.3226 -0.2967  0.0864
28428W        W35028  28.245   4.347  22.649  0.2005 -0.1725 -0.1163
28429W        W35029  15.968   5.496   5.865  0.3712  0.6224  0.1290
28430W        W35030  24.041   6.163   4.544  0.1418  0.3380 -0.0192
28431W        W35031   2.186   6.726   2.935 -0.1597  0.0434 -0.1302
28432W        W35032   3.836   1.222  16.624  0.2416 -0.0944 -0.0744
28433W        W35033  23.276   6.174  19.640  0.0965 -0.2155  0.0713
28434W        W35034   0.319   0.649  10.856  0.0944  0.1530 -0.2715
28435W        W35035   2.963   1.309   3.487 -0.2496 -0.2054  0.0613
28436W        W35036  11.489   2.803  18.023  0.1402  0.1649  0.0784
28437W        W35037   2.595   2.864   5.641 -0.0305 -0.2987  0.1256
28438W        W35038  11.814   6.274   0.597 -0.0215  0.0532 -0.0674
28439W        W35039   3.191   2.238  23.773  0.1138 -0.1351  0.1320
28440W        W35040  11.077   6.186  19.868  0.1827 -0.1326  0.2879
28441W        W35041   4.402   1.192  21.879 -0.2992  0.2959 -0.4382
28442W        W35042  30.981   1.680   5.121  0.1338  0.1090 -0.0286
28443W        W35043   5.658   7.660  24.265  0.1097 -0.2477  0.0016
28444W        W35044   7.900   7.583   4.064 -0.1462 -0.0617  0.1563
28445W        W35045   4.950   0.136   1.561  0.2555 -0.0201 -0.2641
28446W        W35046  11.676   3.674  20.664  0.0580 -0.5695 -0.1711
28447W        W35047   3.723   2.515  19.395 -0.0243 -0.0176 -0.0465
28448W        W35048  17.934   6.561  25.824 -0.2372 -0.1637  0.0296
28449W        W35049  16.895   0.904  17.487  0.1814  0.0159  0.0163
28450W        W35050  25.550   6.648   2.638 -0.1403  0.0682  0.0588
28451W        W35051   5.164   5.361   4.774  0.2268 -0.0553 -0.0257
28452W        W35052  18.560   2.263  25.234  0.0004 -0.1880  0.0592
28453W        W35053  10.905   1.772   4.901  0.0059 -0.2395  0.0978
28454W        W35054  11.545   6.436  22.903  0.1635 -0.2043  0.1767
28455W        W35055   6.094   0.082  22.342 -0.0243  0.0178 -0.1523
28456W        W35056  22.507   4.953   5.793  0.0609  0.0263  0.1022
28457W        W35057  20.516   2.009  17.010  0.0184 -0.2452  0.0661
28458W        W35058  17.527   6.442  20.893  0.4466  0.1948  0.0411
28459W        W35059   0.469   1.558   0.563 -0.1982  0.1704 -0.1159
28460W        W35060  10.870   4.530  17.187 -0.1760 -0.1573 -0.0358
28461W        W35061  21.227   2.114   0.813 -0.1540  0.0060  0.0087
28462W        W35062  29.327   3.574  22.501 -0.4055 -0.0258  0.0047
28463W        W35063   0.899   0.544  23.439  0.0556 -0.1533 -0.1282
28464W        W35064  20.875   4.451  22.590  0.1114 -0.0843  0.1766
28465W        W35065  10.827   5.365  18.795  0.1547  0.2309  0.1162
28466W        W35066   2.118   7.629  15.846 -0.2394 -0.0159 -0.0238
28467W        W35067   3.828   4.947  14.746  0.0850  0.1579 -0.0027
28468W        W35068  21.747   4.360  10.360 -0.1761 -0.1821 -0.1137
28469W        W35069  19.467   7.206   7.955 -0.0101 -0.2955  0.2934
28470W        W35070   3.673   6.580  24.245  0.0323  0.0091  0.1377
28471W        W35071   4.584   6.873   9.732 -0.1042  0.2702  0.2377
28472W        W35072  25.232   0.991   0.021 -0.1089 -0.2360 -0.1557
28473W        W35073   6.966   4.327  17.665 -0.1556 -0.0770 -0.0500
28474W        W35074  31.346   5.085   2.898  0.0851 -0.1061  0.1129
28475W        W35075  11.003   2.834  20.553 -0.2671  0.5180  0.1518
28476W        W35076   3.876   7.749  21.012  0.3089 -0.0333  0.3316
28477W        W35077  14.476   4.594  21.547 -0.3932  0.2202  0.0630
28478W        W35078  13.127   4.983  19.960 -0.3640 -0.2681 -0.2680
28479W        W35079   3.236   7.545  24.224  0.0531 -0.1904  0.1595
28480W        W35080  13.854   0.576   9.608 -0.0420  0.1403  0.3174
28481W        W35081  30.564   6.871  23.040  0.1451  0.3223 -0.0429
28482W        W35082   5.532   6.987  20.310 -0.1365 -0.2534 -0.1141
28483W        W35083  27.128   3.877   3.013 -0.1454  0.2894  0.1439
28484W        W35084   1.223   6.154   9.588 -0.2006  0.1629 -0.0014
28485W        W35085  21.206   1.365  20.905 -0.0611  0.0796 -0.2172
28486W        W35086  19.404   4.757  18.591  0.0088 -0.1627  0.1176
28487W        W35087   4.920   6.673  22.842 -0.0274 -0.0175 -0.0348
28488W        W35088   1.418   6.110  14.236 -0.0247  0.2583  0.2008
28489W        W35089  17.039   5.734  24.757  0.1631  0.4161  0.1690
28490W        W35090   8.777   3.881   7.866  0.1983 -0.1546  0.0533
28491W        W35091  16.494   5.595   3.432  0.1448  0.1792 -0.1217
28492W        W35092  16.506   3.274  16.851 -0.0738 -0.1245  0.0520
28493W        W35093  17.082   1.478  25.360 -0.1279  0.0316  0.0593
28494W        W35094   9.222   1.394   1.888  0.1682  0.0091 -0.1605
28495W        W35095  26.347   6.856   3.864  0.0713 -0.2386 -0.0279
28496W        W35096  31.199   0.673   7.932 -0.0256 -0.1925 -0.0509
28497W        W35097  22.635   4.804  25.220 -0.2213 -0.3096  0.1167
28498W        W35098  15.570   7.524   2.636 -0.0223 -0.2087  0.2212
28499W        W35099  15.560   1.319  23.556  0.1188 -0.0648 -0.1187
28500W        W35100   7.928   6.333  14.711  0.1285  0.1124 -0.0163
28501W        W35101  13.131   0.254   9.435 -0.2514  0.1062 -0.1847
28502W        W35102  15.415   3.140  25.198 -0.0055  0.1311  0.1328
28503W        W35103  25.437   1.246   5.491 -0.2134 -0.0940  0.0164
28504W        W35104   3.300   7.230  10.325 -0.3225  0.2490  0.2116
28505W        W35105  15.003   5.790   4.670 -0.0910 -0.3590  0.0213
28506W        W35106  18.345   0.388   2.906  0.0225 -0.3178  0.1678
28507W        W35107   0.174   1.265   4.089 -0.1492 -0.3029 -0.0967
28508W        W35108  10.008   2.093   5.851  0.0440  0.0866 -0.0633
28509W        W35109  17.570   6.573   2.355  0.1442 -0.0631  0.1491
28510W        W35110   4.825   0.231   2.797 -0.0644 -0.1570  0.0269
28511W        W35111  22.747   0.853  21.377  0.1796 -0.1034 -0.1185
28512W        W35112  21.428   6.357   6.332  0.0817  0.2179 -0.2168
28513W        W35113  14.189   5.375   2.831  0.1867  0.1525  0.3801
28514W        W35114   1.892   1.966  25.692  0.2556  0.2940  0.1403
28515W        W35115   8.037   0.387  14.757  0.1090 -0.0826  0.4730
28516W        W35116   3.462   3.066   0.371 -0.3335 -0.1892 -0.1823
28517W        W35117  22.438   1.600   0.006  0.2750  0.1184  0.0655
28518W        W35118   2.519   3.557  19.563 -0.0458  0.0290  0.1354
28519W        W35119  10.404   2.514   1.516 -0.2055 -0.0360 -0.0735
28520W        W35120  15.305   4.606  15.856 -0.1310 -0.0161 -0.3006
28521W        W35121  27.815   5.926  15.900 -0.0957 -0.0043 -0.2090
28522W        W35122  16.488   6.987   4.597  0.1315 -0.2438  0.0834
28523W        W35123  27.110   7.278  16.424  0.0782  0.1970 -0.2408
28524W        W35124  20.760   6.080   4.508 -0.1498  0.0146 -0.0955
28525W        W35125   2.612   0.031   8.005  0.1122 -0.1902 -0.2462
28526W        W35126  29.865   3.842   9.396 -0.0611  0.1519  0.0524
28527W        W35127  14.921   1.623   8.077 -0.0191 -0.1423  0.2939
28528W        W35128  11.932   4.676  24.780  0.0243 -0.0710 -0.0111
28529W        W35129   9.049   5.958   5.804  0.0424 -0.0022 -0.0603
28530W        W35130   4.741   0.368  18.433 -0.0964  0.1275 -0.2379
28531W        W35131   8.709   2.101  24.775 -0.0096 -0.1011  0.4402
28532W        W35132  25.350   4.393   9.783 -0.1230 -0.2277  0.1775
28533W        W35133   9.929   0.495   3.272  0.1476 -0.1904  0.1834
28534W        W35134  20.912   7.148  17.045  0.0101 -0.1505  0.1761
28535W        W35135   1.805   4.635  10.057 -0.0296 -0.0889  0.1228
28536W        W35136  15.311   3.500  25.548  0.0755  0.1726  0.0020
28537W        W35137   4.300   0.598  20.775  0.1158  0.2357 -0.0793
28538W        W35138  21.858   2.634  23.529  0.0829  0.0121 -0.3927
28539W        W35139  13.382   5.007   0.139 -0.0378  0.1944  0.0965
28540W        W35140  21.095   3.230  23.930 -0.0846 -0.1351 -0.0366
28541W        W35141  23.283   6.807   8.986 -0.0560 -0.0450 -0.2164
28542W        W35142  26.170   5.717   5.828  0.1578  0.2437 -0.2127
28543W        W35143  26.674   1.672   2.458  0.3454  0.0626  0.0874
28544W        W35144  13.291   7.738  24.288 -0.3085 -0.2743  0.3388
28545W        W35145  20.209   5.487   0.626 -0.3605  0.0154 -0.2787
28546W        W35146   1.697   5.689  24.409 -0.1746 -0.0936 -0.0405
28547W        W35147   1.686   6.298  21.154  0.1783  0.4949  0.0785
28548W        W35148  18.619   3.871   8.639 -0.0654 -0.0001  0.1325
28549W        W35149  21.675   1.792  24.281  0.1720  0.0481  0.1031
28550W        W35150  27.523   7.450   0.188  0.1990 -0.2662 -0.1167
28551W        W35151  22.071   6.660  21.569  0.2077  0.0616  0.2264
28552W        W35152  17.437   7.109   3.594 -0.0540 -0.0493 -0.1496
28553W        W35153  12.473   1.627  10.022  0.1032 -0.2058  0.0341
28554W        W35154  14.942   7.773  22.325 -0.0008  0.1418 -0.3741
28555W        W35155  21.636   0.796  16.147  0.1406  0.0536 -0.1845
28556W        W35156  26.902   6.819   6.231 -0.1608  0.1477 -0.1506
28557W        W35157  14.986   2.503  22.305 -0.1449  0.1244  0.0711
28558W        W35158  10.891   4.976   8.839  0.0313 -0.2955  0.2193
28559W        W35159  27.773   7.498  23.437 -0.1182 -0.0558 -0.2888
28560W        W35160  18.842   6.050   3.621  0.2200 -0.0149  0.0889
28561W        W35161   8.480   4.659  22.754  0.2004  0.0379  0.0265
28562W        W35162   6.819   4.093  24.581  0.4304 -0.1357  0.0554
28563W        W35163   1.125   5.529  20.128 -0.3139  0.1906  0.0222
28564W        W35164   5.505   2.404  21.958 -0.2784 -0.1292  0.0834
28565W        W35165  15.073   6.892  11.265  0.1513  0.4313  0.0126
28566W        W35166   9.682   2.237   4.994 -0.1273 -0.0420  0.1365
28567W        W35167  11.067   1.714  24.840 -0.3729  0.0709 -0.0499
28568W        W35168   8.603   0.964  20.930  0.1696  0.2257 -0.0002
28569W        W35169  29.992   4.249   7.816  0.3310 -0.0120 -0.1123
28570W        W35170   9.436   5.232   9.811  0.0393 -0.1149  0.0697
28571W        W35171  20.245   6.165  10.280  0.1296  0.1486  0.0038
28572W        W35172  18.983   3.854   5.924  0.0743 -0.1575  0.3336
28573W        W35173  19.834   6.303   7.917  0.1613 -0.0504 -0.1524
28574W        W35174  19.842   6.928   8.278  0.0143  0.0817 -0.0014
28575W        W35175  19.729   6.283   1.691  0.2067 -0.1856 -0.2493
28576W        W35176   3.742   2.139  15.653 -0.0530  0.0005 -0.1248
28577W        W35177   6.566   6.182   3.552  0.0194  0.0531 -0.4354
28578W        W35178   7.211   5.049  15.995 -0.0522 -0.4178 -0.1630
28579W        W35179  19.431   6.898   3.977 -0.2967 -0.3427 -0.0292
28580W        W35180  30.067   6.561   6.081 -0.0676  0.0946  0.0182
28581W        W35181  17.072   3.252   3.288  0.1220  0.0567  0.0939
28582W        W35182  25.944   3.060   8.690  0.1941  0.3158  0.0195
28583W        W35183  14.271   0.364  19.275 -0.2446 -0.2133  0.1949
28584W        W35184  11.364   7.694   8.050 -0.2260  0.1251  0.0428
28585W        W35185  22.532   2.288   5.856 -0.2816  0.0982 -0.1485
28586W        W35186  28.668   7.103  20.545  0.2968 -0.0664  0.3149
28587W        W35187  25.912   3.728  10.944 -0.1240 -0.2946 -0.1279
28588W        W35188   4.573   1.260   0.692  0.0144 -0.0596  0.1637
28589W        W35189   0.834   4.816   1.840 -0.1817 -0.0184 -0.1085
28590W        W35190   3.770   4.598   1.584  0.1229 -0.2156 -0.0352
28591W        W35191   7.415   2.794  16.527 -0.1683 -0.0715  0.0952
28592W        W35192  30.335   6.846   2.511  0.0433  0.0374 -0.1089
28593W        W35193  26.960   7.364  15.570  0.0034  0.0811  0.6138
28594W        W35194  14.920   7.692  16.833  0.1266  0.0522  0.1021
28595W        W35195  21.654   0.580  10.151 -0.3048  0.1888  0.1454
28596W        W35196  14.598   6.219   0.684 -0.1345  0.0814 -0.0552
28597W        W35197  30.040   4.312  15.539  0.0618 -0.0945 -0.0021
28598W        W35198   2.673   2.899  18.935 -0.0523  0.1975 -0.1900
28599W        W35199   8.205   4.248  23.797 -0.1321  0.0540 -0.1264
28600W        W35200   8.996   5.419   9.960 -0.1939 -0.0162  0.2802
28601W        W35201  18.144   2.823   8.273  0.0406  0.2741 -0.1918
28602W        W35202  17.662   4.258   6.682 -0.2001 -0.0019  0.3713
28603W        W35203  19.126   5.828  24.821  0.2156 -0.2368  0.2806
28604W        W35204  25.259   5.078  23.374  0.1032  0.1805 -0.1292
28605W        W35205   9.273   1.735   6.531 -0.3608  0.0640  0.1067
28606W        W35206   3.199   1.152   1.127  0.0111 -0.0931  0.0932
28607W        W35207  17.412   3.151   2.977  0.3285 -0.0068  0.2360
28608W        W35208   1.582   1.084  21.825 -0.0878  0.3185 -0.0177
28609W        W35209   0.965   1.255   3.041  0.0886  0.1591 -0.1995
28610W        W35210  11.273   4.875  10.138  0.0081 -0.1433  0.2187
28611W        W35211  11.173   5.750   8.479  0.0095  0.1210  0.0137
28612W        W35212   7.121   0.052   6.979  0.1422  0.2531  0.0613
28613W        W35213   3.396   5.859  10.074 -0.4556 -0.0883 -0.0505
28614W        W35214   7.801   1.003  19.668  0.2010  0.3299  0.2599
28615W        W35215   0.144   6.950  21.286  0.1673 -0.0751 -0.1937
28616W        W35216  12.745   5.305  24.539  0.1021  0.2508 -0.1480
28617W        W35217   9.707   0.630  15.548  0.0672  0.1891  0.1241
28618W        W35218  11.935   1.424  16.990  0.1132 -0.0486  0.0218
28619W        W35219   5.892   5.576  19.793  0.0391 -0.1874  0.1536
28620W        W35220   2.060   1.604  23.357 -0.0039  0.1232 -0.2021
28621W        W35221  20.061   5.306   3.118 -0.0204 -0.0098  0.1787
28622W        W35222  19.603   3.397  21.993  0.1145 -0.2480  0.0433
28623W        W35223  22.683   7.449   8.396  0.3475  0.0372  0.2271
28624W        W35224   5.442   7.041   9.948  0.0341  0.2952  0.1547
28625W        W35225  24.082   0.604   6.782  0.0763  0.2056 -0.1798
28626W        W35226  22.748   7.526  24.981  0.3686 -0.1290 -0.0029
28627W        W35227  24.036   6.262   6.625 -0.0366  0.3804  0.1555
28628W        W35228  14.216   7.111   5.561  0.1614 -0.0672  0.2904
28629W        W35229   1.026   1.418  10.128  0.1394  0.0678 -0.4062
28630W        W35230  15.420   3.342   2.914  0.2317  0.0085 -0.2893
28631W        W35231  28.103   0.779  23.826  0.0583  0.2706 -0.0847
28632W        W35232   8.266   6.013  25.344  0.1695  0.2868  0.0095
28633W        W35233  19.097   5.251  21.464  0.0749  0.0955  0.0258
28634W        W35234  14.821   4.403   4.538  0.0114  0.0636 -0.2127
28635W        W35235  22.455   6.227  19.731  0.0396  0.1633  0.1770
28636W        W35236   2.676   1.183  14.447  0.1508  0.0857  0.1069
28637W        W35237  17.541   0.656  11.800 -0.1709  0.0710  0.1461
28638W        W35238  24.427   2.382  25.486 -0.1838 -0.0510  0.1995
28639W        W35239  25.479   3.820   5.156 -0.2165 -0.0775 -0.1856
28640W        W35240  26.580   5.071  23.132  0.1564 -0.0952  0.1212
28641W        W35241  18.852   6.009   1.342  0.0282 -0.1606 -0.0689
28642W        W35242  25.998   3.901  21.701  0.2032  0.0353  0.1371
28643W        W35243  24.329   0.773  10.294  0.1733 -0.0751 -0.0174
28644W        W35244  27.201   5.151  20.333 -0.0387  0.2661 -0.1439
28645W        W35245  27.682   4.157  16.273 -0.3118  0.0426 -0.0827
28646W        W35246  13.671   5.595   9.467  0.2312  0.0391  0.2027
28647W        W35247  11.033   4.922   2.129 -0.1842  0.1027 -0.2156
28648W        W35248  17.663   4.246   3.654  0.0620 -0.2756  0.0083
28649W        W35249  12.132   2.362  19.024 -0.4019 -0.2353 -0.3447
28650W        W35250  23.677   1.929   2.618 -0.6869 -0.2522  0.1924
28651W        W35251  22.097   4.706  15.169 -0.2979 -0.0820 -0.0878
28652W        W35252   1.124   3.568  22.204  0.0445  0.1157  0.1751
28653W        W35253  11.439   0.017  18.781  0.0068  0.0227  0.0605
28654W        W35254  24.082   4.151   4.530  0.1285  0.0260  0.0406
28655W        W35255   6.761   5.428  21.663  0.1250  0.0319 -0.0605
28656W        W35256  27.522   2.884   3.382 -0.0438 -0.0998 -0.0274
28657W        W35257  29.810   6.653  16.041  0.0154  0.0045  0.2201
28658W        W35258  20.909   6.346  16.499  0.0024  0.4245 -0.1913
28659W        W35259   9.020   3.784   0.690 -0.1304 -0.1518 -0.1529
28660W        W35260  10.521   4.138   8.444 -0.0260  0.0726  0.2095
28661W        W35261  30.822   2.585   6.054  0.0176 -0.0698 -0.0253
28662W        W35262  27.221   6.428   3.462  0.0940  0.0027  0.3139
28663W        W35263  15.535   0.879  25.644  0.0819  0.1385  0.0301
28664W        W35264  18.341   7.155   7.250  0.2063  0.2372 -0.3698
28665W        W35265   0.582   1.984   7.497 -0.0687  0.3467 -0.1404
28666W        W35266   0.645   1.416   1.073  0.1941  0.1796 -0.0646
28667W        W35267  17.959   5.507  21.169  0.3166 -0.1258 -0.0347
28668W        W35268  25.671   3.087   9.340  0.0807 -0.1218  0.0508
28669W        W35269  11.348   1.953   5.343 -0.4160  0.4301  0.0769
28670W        W35270  25.591   5.553   9.361  0.3100  0.0828  0.1962
28671W        W35271  28.306   6.867  20.882 -0.0950 -0.1741  0.1283
28672W        W35272   3.690   4.032   0.252 -0.0288  0.0855  0.2128
28673W        W35273  30.238   4.696  17.850 -0.0036  0.1016  0.0770
28674W        W35274   6.597   2.913   4.603 -0.0199 -0.1652 -0.1952
28675W        W35275  21.470   4.123   0.707  0.0366  0.1586  0.3339
28676W        W35276  19.896   6.438  16.833  0.1972 -0.0673  0.1135
28677W        W35277  24.789   6.567  11.062  0.2443 -0.1369  0.1054
28678W        W35278   8.327   3.215  24.371 -0.0373 -0.1633 -0.1129
28679W        W35279  27.224   7.584  17.989 -0.0109  0.0324  0.2883
28680W        W35280  20.429   6.757   4.967 -0.0944 -0.1992  0.1226
28681W        W35281  21.137   2.792   3.823  0.2973  0.0351  0.0659
28682W        W35282  10.822   5.574   5.728  0.0520  0.1202  0.2305
28683W        W35283  27.240   4.718  24.812 -0.1196 -0.1659  0.1089
28684W        W35284   9.219   4.739  22.699  0.0080  0.2664 -0.0483
28685W        W35285   6.139   4.526  23.190  0.1659 -0.0820  0.1203
28686W        W35286  29.726   3.739  19.458 -0.0948 -0.1228 -0.3630
28687W        W35287  23.862   6.211   5.606  0.2007 -0.0862  0.3017
28688W        W35288  16.515   3.623   0.559  0.1635  0.0138  0.0472
28689W        W35289  25.472   4.124   9.233  0.0228  0.3218 -0.1522
28690W        W35290  28.706   2.275  24.348 -0.1248 -0.2421  0.2090
28691W        W35291  26.329   3.910  24.971  0.0655  0.0626  0.1340
28692W        W35292  25.316   7.398  23.112  0.2566 -0.0075  0.2986
28693W        W35293  17.120   0.735  23.337 -0.2997  0.1228  0.1007
28694W        W35294   6.713   1.364   8.958  0.1601 -0.0328  0.1520
28695W        W35295  17.194   5.185  17.436  0.1027  0.2128  0.1258
28696W        W35296   8.004   6.726   8.769  0.0384  0.0301 -0.2514
28697W        W35297   4.959   6.059  19.888  0.5547 -0.1235  0.1395
28698W        W35298  10.921   5.036   3.856  0.1482  0.0353  0.3902
28699W        W35299   1.504   4.975   5.761  0.1819 -0.0353  0.0016
28700W        W35300  11.294   2.464   3.130 -0.1209  0.5309 -0.1332
28701W        W35301   0.074   3.139  23.753 -0.0313  0.1108 -0.0113
28702W        W35302  30.629   0.331  21.402  0.0079 -0.0349 -0.4698
28703W        W35303  21.363   5.788  25.304 -0.1024  0.1158  0.2632
28704W        W35304   6.731   2.335  25.952  0.0529  0.1785  0.0348
28705W        W35305  27.708   3.114   5.869  0.1229 -0.0068  0.0908
28706W        W35306   9.620   1.782   3.423 -0.1894 -0.2475  0.2436
28707W        W35307   9.056   0.252   9.524 -0.0857  0.4183 -0.5299
28708W        W35308   5.304   3.666  14.512 -0.1327 -0.1957  0.1376
28709W        W35309  25.518   2.425  18.458  0.1547 -0.0787 -0.0971
28710W        W35310   1.111   3.723  17.283  0.0727  0.0877 -0.1511
28711W        W35311  31.007   2.568  16.472 -0.2572 -0.3953 -0.2458
28712W        W35312  13.934   3.157  16.731 -0.1835 -0.2870 -0.0488
28713W        W35313   4.360   3.210   8.534 -0.3873 -0.0555 -0.1166
28714W        W35314  25.010   6.225   0.308  0.2021 -0.0349  0.1529
28715W        W35315  22.975   3.328  19.269 -0.2740 -0.1110 -0.4033
28716W        W35316  10.359   5.050   2.641 -0.0343  0.0106  0.4704
28717W        W35317  28.626   7.407   2.606 -0.1952 -0.0609  0.0112
28718W        W35318  28.164   0.796  19.898 -0.2875 -0.3188 -0.0115
28719W        W35319  20.263   3.606  24.091 -0.0053  0.0108  0.2922
28720W        W35320   6.406   5.246   4.736  0.3594 -0.0765 -0.1511
28721W        W35321  15.988   4.845  16.567  0.1677 -0.2217  0.2911
28722W        W35322  31.153   6.834  17.951  0.3031  0.0938  0.0203
28723W        W35323  30.083   7.439  11.136  0.1313 -0.2140  0.1162
28724W        W35324  28.336   3.383  17.583 -0.0600  0.0253  0.0019
28725W        W35325   1.572   2.271  14.843  0.0277 -0.2055  0.2581
28726W        W35326  27.778   5.976   5.384 -0.0768  0.1206  0.1294
28727W        W35327  15.349   5.408   0.175 -0.0685  0.0064  0.0549
28728W        W35328   4.019   1.088   4.542  0.0293  0.2230  0.0061
28729W        W35329  10.942   5.840   1.092 -0.0275  0.1469 -0.2764
28730W        W35330   6.893   1.332   9.450 -0.0186 -0.2880 -0.1268
28731W        W35331  24.573   6.680  19.799 -0.1923 -0.1307  0.1789
28732W        W35332  18.183   0.557   9.076  0.0751  0.0633  0.2252
28733W        W35333   8.737   5.310   6.427 -0.1523  0.0108  0.1489
28734W        W35334   5.863   5.142   2.714 -0.0957 -0.1932  0.1485
28735W        W35335   7.078   2.559  20.960  0.2591 -0.2338  0.1915
28736W        W35336  12.077   7.242  17.814  0.0987 -0.0170 -0.1392
28737W        W35337  30.306   0.132   1.652  0.2246  0.1883  0.0068
28738W        W35338  26.007   0.503   9.644  0.0329 -0.1523  0.0864
28739W        W35339  16.921   4.008  10.508 -0.0829 -0.0952  0.0001
28740W        W35340  20.821   5.545  24.805  0.0165  0.0724 -0.1273
28741W        W35341   0.249   1.239  22.617 -0.2152  0.0513  0.1813
28742W        W35342   1.289   7.572   7.833 -0.2185  0.2097 -0.2366
28743W        W35343   4.994   2.654  22.650  0.1232 -0.0954 -0.2987
28744W        W35344   3.897   1.682  15.488 -0.1051 -0.0433  0.3470
28745W        W35345  15.237   4.821   4.483  0.1970  0.0163  0.1332
28746W        W35346   4.714   1.795  20.509 -0.1520 -0.0709 -0.0830
28747W        W35347   0.302   2.693  20.879  0.1240 -0.1479 -0.0071
28748W        W35348  13.581   5.003   9.911 -0.2975  0.0274 -0.0346
28749W        W35349   1.146   5.587  16.033  0.0021 -0.1349  0.1697
28750W        W35350  18.076   2.166  10.171 -0.1130 -0.3426  0.0468
28751W        W35351  24.272   1.575   5.842  0.1300 -0.1645  0.1891
28752W        W35352  25.384   0.017   0.386 -0.0301 -0.1859  0.0746
28753W        W35353  20.442   5.471  24.013  0.1155 -0.2626  0.0672
28754W        W35354   4.934   0.059  14.310 -0.1170 -0.0488  0.2626
28755W        W35355  12.730   5.704  25.570  0.0592  0.2403 -0.2264
28756W        W35356  27.321   7.623  10.650 -0.3341 -0.0067 -0.0419
28757W        W35357   9.739   0.606   3.669  0.1809  0.0064 -0.2081
28758W        W35358  15.284   1.979  18.261  0.2316 -0.0661 -0.2758
28759W        W35359  17.884   3.677  18.820 -0.1816  0.0970 -0.0324
28760W        W35360   2.227   6.868  22.432  0.0688 -0.1282  0.3989
28761W        W35361   9.504   0.017   5.836  0.2382  0.0153 -0.0724
28762W        W35362  13.338   2.572   3.753 -0.0507  0.0438  0.0650
28763W        W35363   3.705   5.385   1.243  0.0884  0.1784  0.0174
28764W        W35364  16.732   1.909  10.261  0.1076 -0.0002  0.0510
28765W        W35365  29.895   7.571  19.921 -0.1592  0.0170 -0.0475
28766W        W35366  12.295   5.279  23.273 -0.0967 -0.1444 -0.2195
28767W        W35367  26.873   1.414   7.818  0.0977  0.1793 -0.3183
28768W        W35368   0.914   3.166   7.932 -0.2334  0.0427 -0.3864
28769W        W35369  24.828   3.836  15.549  0.1522 -0.0948  0.1162
28770W        W35370  30.005   5.078  23.862 -0.0130  0.0563  0.2511
28771W        W35371  22.506   5.843  21.617  0.0895 -0.0422  0.0541
28772W        W35372  27.647   6.720  23.393  0.0543 -0.1513 -0.1264
28773W        W35373  22.363   5.699  16.921 -0.3121 -0.1548  0.0475
28774W        W35374   5.399   3.673   2.261 -0.1037 -0.1451 -0.0921
28775W        W35375   6.299   6.869  19.440  0.2784 -0.1571 -0.1271
28776W        W35376   4.970   5.740   2.892 -0.0219  0.0925  0.1261
28777W        W35377  20.225   0.028   9.463 -0.0595 -0.3079  0.2813
28778W        W35378  19.463   4.602  20.149 -0.0926  0.1584  0.2143
28779W        W35379  22.420   2.781  19.421  0.2751  0.0432 -0.0718
28780W        W35380   5.014   7.731  25.938  0.3284 -0.1448 -0.0839
28781W        W35381  10.162   5.216   9.316  0.2862 -0.0810 -0.0437
28782W        W35382  24.199   7.297   7.801 -0.1021 -0.4189 -0.0416
28783W        W35383   7.085   5.672  18.312  0.0926 -0.1676  0.2439
28784W        W35384  28.958   1.419  15.957 -0.3576  0.3464 -0.2103
28785W        W35385  11.532   3.244   4.218  0.1689  0.2799 -0.0651
28786W        W35386  28.401   7.443   3.337 -0.0329 -0.0069  0.0570
28787W        W35387  29.598   5.219  20.083 -0.1497 -0.0827  0.0908
28788W        W35388  22.035   4.700   2.562 -0.1516  0.0503  0.1064
28789W        W35389  13.758   3.060  18.065  0.0966 -0.0904  0.0391
28790W        W35390   9.912   6.449  20.877 -0.0466  0.1110 -0.1432
28791W        W35391  29.361   3.963  25.509  0.2325  0.1418 -0.0237
28792W        W35392  27.809   2.900  10.513 -0.1183  0.0057  0.1347
28793W        W35393  14.081   2.905   8.193  0.1479  0.0507  0.0830
28794W        W35394  10.388   2.006  22.980  0.1011 -0.1318  0.1291
28795W        W35395  18.604   6.825   7.968  0.1082 -0.1665  0.0248
28796W        W35396  15.248   6.348  20.907  0.0286 -0.0488  0.1349
28797W        W35397   3.980   7.011  20.243  0.0820 -0.1080 -0.0655
28798W        W35398  10.136   0.367  24.261  0.0928 -0.2216 -0.1577
28799W        W35399  16.712   2.120  15.489  0.0355 -0.0335  0.0098
28800W        W35400   6.144   0.405  14.732 -0.1033  0.1336  0.5009
28801W        W35401   2.976   0.347   3.089 -0.2439  0.1381  0.2079
28802W        W35402   4.797   6.484  15.430  0.0084 -0.1987  0.1170
28803W        W35403  27.433   2.990   0.183  0.0198 -0.0596 -0.0390
28804W        W35404  24.394   5.298   1.369 -0.1449 -0.1406  0.0576
28805W        W35405   7.514   6.697  23.553  0.0143  0.0071  0.2499
28806W        W35406   6.606   0.652  19.552  0.4213 -0.2048 -0.0598
28807W        W35407  15.927   4.154   3.360  0.2711 -0.1265  0.1347
28808W        W35408  25.261   6.136   5.529  0.1879 -0.1688  0.2230
28809W        W35409  24.170   3.243  22.009  0.1215 -0.0468  0.3752
28810W        W35410  15.484   5.580  21.597  0.0561  0.1737 -0.1623
28811W        W35411  22.527   4.579  19.085 -0.0466 -0.1929  0.1675
28812W        W35412   3.452   2.383  16.000 -0.0129 -0.0311 -0.1082
28813W        W35413  21.747   4.514   0.826  0.1407  0.0636 -0.0135
28814W        W35414  19.818   6.527   7.009  0.2305  0.0218 -0.1408
28815W        W35415  17.252   2.812   6.799  0.0132 -0.0002  0.0697
28816W        W35416  16.364   0.602  25.553 -0.0207 -0.2794  0.2631
28817W        W35417   3.218   3.264   5.939  0.2615  0.0080  0.2952
28818W        W35418  25.698   3.138   4.081 -0.1650 -0.0582 -0.1773
28819W        W35419   9.363   0.218  16.861 -0.0153  0.1044  0.1596
28820W        W35420   0.669   4.982   4.574  0.3532  0.3565  0.2478
28821W        W35421  30.617   1.705   3.739  0.1560  0.2801 -0.0750
28822W        W35422  17.648   2.444  25.323 -0.2017  0.1957  0.2898
28823W        W35423  20.787   0.018   0.325 -0.0286  0.2042 -0.3005
28824W        W35424  11.620   6.034   0.117 -0.1478 -0.2710 -0.0722
28825W        W35425   4.989   4.601  20.359  0.0011  0.1472 -0.0997
28826W        W35426  17.694   5.149  17.346  0.2100 -0.2923  0.1344
28827W        W35427  23.127   6.581   7.896 -0.3918 -0.0760 -0.0287
28828W        W35428   4.190   1.332   2.095  0.1188  0.0283  0.4595
28829W        W35429  17.049   2.715  22.083  0.1723 -0.4010  0.0517
28830W        W35430  21.359   6.680  17.192 -0.0377 -0.1807  0.2871
28831W        W35431   9.053   1.516  24.857 -0.0879 -0.1841  0.0296
28832W        W35432  13.185   0.258   7.863  0.4308 -0.2375 -0.1830
28833W        W35433   5.409   3.872  21.953  0.1598 -0.1061  0.0341
28834W        W35434   2.108   0.149   7.983 -0.0829  0.0315 -0.2043
28835W        W35435   1.062   2.373   4.615 -0.2338  0.0952 -0.1696
28836W        W35436   5.715   4.132   3.009  0.1811 -0.0629 -0.0729
28837W        W35437  19.089   0.924   4.517  0.1428  0.0998  0.0154
28838W        W35438  13.180   6.891   0.252 -0.1263  0.0644 -0.1125
28839W        W35439  28.083   2.931  24.217  0.0675 -0.0630 -0.1053
28840W        W35440  24.330   0.728  17.396 -0.0944 -0.0235 -0.2536
28841W        W35441  23.831   0.513  20.230  0.0108  0.0208  0.0809
28842W        W35442  27.875   1.664  24.672 -0.0732  0.0122 -0.3173
28843W        W35443   9.069   3.402   7.500  0.2514 -0.0437 -0.2111
28844W        W35444  14.191   3.243   5.654 -0.3138  0.0412  0.1191
28845W        W35445  29.338   6.319   1.773  0.0041  0.3149  0.0994
28846W        W35446  19.869   5.919  11.253 -0.1100 -0.2292  0.2601
28847W        W35447  17.420   1.025  20.524  0.0743 -0.0153 -0.2293
28848W        W35448   5.057   0.638   4.449  0.1361  0.2632  0.4365
28849W        W35449  30.366   3.476   7.482  0.1404  0.0084 -0.3724
28850W        W35450  13.164   5.792   1.297  0.0275  0.0493 -0.0962
28851W        W35451  23.707   0.705   4.655  0.2566  0.0724  0.1348
28852W        W35452  19.671   7.568   5.416 -0.1517 -0.1873  0.1710
28853W        W35453   4.599   6.404  24.241  0.0906 -0.1198 -0.1891
28854W        W35454  25.570   5.360  18.296  0.1629  0.0825  0.1041
28855W        W35455   0.380   7.255  25.454  0.1568  0.1250 -0.0921
28856W        W35456  28.051   4.990   3.130  0.1364 -0.0865  0.2248
28857W        W35457  26.864   0.715  25.478  0.2329  0.3774 -0.0368
28858W        W35458   0.802   6.620  17.370  0.3301 -0.1544 -0.1735
28859W        W35459   2.156   4.139   6.250 -0.0649  0.0993  0.1043
28860W        W35460   8.728   4.258  10.665  0.0894  0.0219 -0.0002
28861W        W35461  11.164   4.845   4.744 -0.1687  0.0469 -0.2262
28862W        W35462  19.806   1.930  16.204  0.0450  0.1176  0.0094
28863W        W35463   6.713   5.662   9.287  0.0722 -0.0817  0.0335
28864W        W35464  28.891   5.131   1.336  0.1201  0.2370  0.1390
28865W        W35465  14.269   1.396  20.846 -0.3555  0.4551  0.0536
28866W        W35466  28.691   0.255  25.989 -0.2884 -0.1662  0.0160
28867W        W35467  26.682   6.803   6.732 -0.2438 -0.1164 -0.0319
28868W        W35468  20.925   5.216  25.915  0.1560  0.0234  0.1110
28869W        W35469  17.512   6.469  25.177 -0.0872 -0.0534 -0.1535
28870W        W35470   6.973   5.643   6.087 -0.1030 -0.1049 -0.0440
28871W        W35471  16.701   4.239  19.638 -0.1497 -0.2417  0.2322
28872W        W35472  14.580   0.633  17.242  0.0960 -0.2610 -0.1721
28873W        W35473  12.165   1.644   1.800 -0.2671 -0.2619  0.0616
28874W        W35474  16.875   1.765  22.138 -0.0557  0.1445  0.0905
28875W        W35475  10.202   2.364  17.823 -0.3335 -0.1031 -0.1470
28876W        W35476  26.948   5.142  25.355 -0.2326  0.0323 -0.2266
28877W        W35477  17.780   4.781   5.073 -0.1782  0.0601 -0.2958
28878W        W35478  15.601   0.310   3.460  0.2274  0.0654  0.1763
28879W        W35479  24.680   5.624   9.339  0.0394 -0.1051 -0.2659
28880W        W35480   8.775   6.730  25.326 -0.1437 -0.1265 -0.0917
28881W        W35481  30.617   0.652  19.096 -0.4373  0.1393 -0.3775
28882W        W35482  19.347   7.381   4.606 -0.0288 -0.0874 -0.0605
28883W        W35483   8.001   4.154   0.480  0.0029  0.0348  0.1895
28884W        W35484  20.010   2.588  18.253  0.0885  0.1020 -0.1383
28885W        W35485   5.225   4.199  21.124 -0.1427  0.0773 -0.0012
28886W        W35486  10.712   4.009  21.793  0.1028 -0.0624  0.0383
28887W        W35487  30.125   0.462   6.566  0.1541 -0.0916 -0.0325
28888W        W35488   7.316   1.771   4.071  0.0010 -0.1504 -0.0251
28889W        W35489  26.690   3.546   8.784 -0.1944 -0.2831 -0.0625
28890W        W35490  20.805   6.869  25.676 -0.3517  0.0510 -0.1475
28891W        W35491   3.454   6.677   7.803 -0.2074  0.0792  0.1620
28892W        W35492  26.956   1.941   2.081  0.0958 -0.0651 -0.2440
28893W        W35493  13.960   4.268   1.539 -0.0376  0.0375  0.0749
28894W        W35494  25.771   7.020   7.252 -0.2325  0.0779  0.2345
28895W        W35495  19.493   2.378  18.326  0.1531 -0.1536 -0.1558
28896W        W35496  10.097   5.912  18.068  0.0294 -0.0429 -0.0969
28897W        W35497   0.377   6.547  20.992  0.0223  0.1639  0.3416
28898W        W35498  26.603   5.499   9.381  0.4919  0.1755  0.0845
28899W        W35499   5.977   5.385   3.764  0.1259  0.4168  0.0661
28900W        W35500  16.327   0.564   6.524  0.1200  0.0524  0.1460
28901W        W35501   1.278   7.259  23.429 -0.2807 -0.2916 -0.0391
28902W        W35502  15.707   5.211  15.147  0.1378 -0.1439 -0.0014
28903W        W35503  13.380   2.028  17.295  0.2183  0.0008  0.0657
28904W        W35504   1.187   0.492  14.972 -0.1215 -0.0886  0.3111
28905W        W35505  23.846   1.990   5.014 -0.2739  0.0279 -0.4358
28906W        W35506  27.571   5.329  25.282 -0.0854 -0.0071  0.0408
28907W        W35507  20.025   1.186   7.976 -0.0467 -0.4655 -0.1099
28908W        W35508   0.494   6.295  24.131  0.2228  0.1363 -0.0946
28909W        W35509   8.279   1.339   4.628  0.0410  0.2201  0.3769
28910W        W35510   9.199   6.003  20.987 -0.0929 -0.1379  0.0900
28911W        W35511  19.150   0.825  21.170  0.3405  0.2268  0.1071
28912W        W35512  27.325   6.452   6.278  0.0525  0.2687 -0.1260
28913W        W35513  18.176   4.232  21.855  0.2619 -0.0236 -0.0167
28914W        W35514  10.108   1.275  20.950  0.0381  0.3135  0.1221
28915W        W35515  18.522   0.210   3.922  0.2722  0.0396 -0.1084
28916W        W35516  25.089   4.798  24.854 -0.2910 -0.4038  0.1329
28917W        W35517  10.930   5.180  24.132 -0.0489 -0.0221  0.0773
28918W        W35518  20.594   0.989  23.414  0.1748  0.1006  0.0204
28919W        W35519  12.936   2.043  26.001  0.1038 -0.0076  0.0723
28920W        W35520   3.364   2.496   2.369  0.1329 -0.0461 -0.0342
28921W        W35521   8.497   2.099  23.011 -0.2325  0.0010  0.2045
28922W        W35522   2.802   3.693   2.053 -0.0013 -0.1960 -0.3307
28923W        W35523   3.579   7.103  19.905 -0.0940 -0.1361 -0.0501
28924W        W35524  25.485   2.454   5.306  0.3230  0.2745 -0.2926
28925W        W35525  16.553   0.022  25.168  0.1152  0.1335 -0.0850
28926W        W35526  15.974   6.847  18.277  0.1168  0.1347  0.2625
28927W        W35527  17.068   3.582  22.945 -0.1344 -0.1978  0.0579
28928W        W35528   5.461   1.400  20.754  0.1472 -0.0618  0.0455
28929W        W35529  15.700   4.326  16.607 -0.1443  0.2988  0.0836
28930W        W35530  22.999   1.651   9.453  0.1878  0.0377  0.3862
28931W        W35531   2.308   6.209   3.044 -0.2122  0.2139  0.1235
28932W        W35532  17.219   7.284  25.709 -0.1622  0.0189  0.3663
28933W        W35533  11.572   4.904   5.485 -0.0867  0.3314  0.1033
28934W        W35534   1.457   0.463   3.959  0.1275  0.0927 -0.0817
28935W        W35535  14.315   0.839  15.858  0.1674  0.0915  0.0072
28936W        W35536  28.666   7.166   6.473  0.1526  0.0958  0.1883
28937W        W35537  10.032   1.282   8.407  0.0215 -0.1857 -0.0659
28938W        W35538   7.822   7.450  17.675  0.0651  0.1905 -0.1526
28939W        W35539  15.853   6.378   7.016  0.1545  0.4870  0.0397
28940W        W35540   8.198   4.197  22.178 -0.0278  0.0331 -0.0914
28941W        W35541   9.740   2.260  21.002  0.0269 -0.1805  0.0891
28942W        W35542  11.264   6.738  22.575  0.0022 -0.0869 -0.1721
28943W        W35543  19.146   6.114   6.719 -0.3458  0.0248  0.0549
28944W        W35544  20.131   3.667   4.638 -0.3237  0.1020 -0.1120
28945W        W35545  30.069   4.058  16.843 -0.1690  0.2166 -0.2372
28946W        W35546  16.889   4.426  24.275  0.3641  0.2278 -0.2181
28947W        W35547  31.049   2.467  24.932  0.0415  0.0506 -0.2425
28948W        W35548  29.723   1.227   2.626  0.0205  0.0180 -0.3733
28949W        W35549  18.422   6.009  25.019  0.1469 -0.0755 -0.1102
28950W        W35550  11.587   5.143   9.250 -0.1466  0.1870 -0.0482
28951W        W35551  12.198   6.964  15.853  0.3280  0.0445 -0.1965
28952W        W35552  20.676   3.024   2.473 -0.3286  0.0974  0.2463
28953W        W35553  21.766   2.114   3.630 -0.1614 -0.2647  0.1681
28954W        W35554  11.325   0.732   4.857  0.2316 -0.2845 -0.1002
28955W        W35555   0.947   0.517  15.780 -0.2741  0.2842  0.1649
28956W        W35556  17.465   2.631   2.839  0.2070 -0.0600  0.1100
28957W        W35557   1.461   2.307  19.593  0.1625 -0.1162  0.0953
28958W        W35558  12.619   2.408  24.553  0.0780  0.0232 -0.1781
28959W        W35559  19.784   7.076  20.466 -0.0826  0.0949  0.0703
28960W        W35560  30.738   2.788   4.239 -0.2200  0.1352  0.0343
28961W        W35561  16.764   4.418  25.074  0.0629  0.1588 -0.0429
28962W        W35562  30.543   6.406   2.287 -0.0269  0.0459 -0.0738
28963W        W35563  19.140   6.282   0.668  0.0143  0.0839 -0.0993
28964W        W35564   1.580   1.273  22.345 -0.0728 -0.1256 -0.1217
28965W        W35565  26.409   7.653  25.254  0.3175  0.1320  0.1945
28966W        W35566  11.854   4.266  20.189 -0.1255  0.0449 -0.0258
28967W        W35567   3.961   2.770  23.698  0.2170 -0.0350  0.1698
28968W        W35568  11.016   5.128   1.601 -0.0483 -0.0335  0.0738
28969W        W35569   6.307   3.256   0.795  0.0333  0.3763  0.1058
28970W        W35570  29.601   6.358   2.688 -0.1668 -0.0983 -0.1698
28971W        W35571   2.960   6.463  25.346  0.0967  0.0608  0.0490
28972W        W35572   1.816   7.036  21.139 -0.1965 -0.1103  0.1611
28973W        W35573  13.139   5.126   6.797  0.0718  0.0717  0.2652
28974W        W35574  24.344   5.974  21.101  0.0592  0.1440  0.1266
28975W        W35575  17.661   7.232  20.384  0.0900 -0.0382  0.0870
28976W        W35576  20.125   4.186  25.784  0.0420  0.3168 -0.0291
28977W        W35577   4.260   0.967  25.437  0.0793  0.2009  0.0338
28978W        W35578   9.710   3.572  10.100  0.1369  0.0377 -0.0320
28979W        W35579   3.913   5.826  23.740  0.2119  0.1614  0.2277
28980W        W35580   1.412   4.518   5.118 -0.0923  0.2873  0.1719
28981W        W35581  13.289   4.169   5.681  0.2503  0.2550  0.2455
28982W        W35582   3.875   4.148  14.426  0.1043  0.1313 -0.3228
28983W        W35583   4.359   0.395   3.917  0.1912 -0.0667 -0.0850
28984W        W35584   6.022   5.565  24.712 -0.0927 -0.0080  0.0337
28985W        W35585  27.500   3.267  15.968  0.1499 -0.1522 -0.0678
28986W        W35586  18.109   1.725  25.862 -0.0424  0.0070  0.1896
28987W        W35587  11.845   0.037  22.857 -0.0869 -0.1769 -0.0059
28988W        W35588  29.282   4.986  25.185 -0.2704 -0.0479 -0.0009
28989W        W35589   1.497   3.595   8.229  0.0058 -0.0078 -0.1009
28990W        W35590  29.000   1.513  23.924  0.2397 -0.4344 -0.0137
28991W        W35591  22.369   7.831   7.452  0.4267 -0.2008 -0.4090
28992W        W35592   3.572   1.213  16.108 -0.0742 -0.2458  0.1654
28993W        W35593  22.063   7.680  10.393  0.0610  0.1797 -0.0320
28994W        W35594   9.391   6.281  24.099  0.0766  0.1393  0.2281
28995W        W35595  31.090   6.482  18.482 -0.1440  0.1904  0.1891
28996W        W35596  11.060   7.084  22.342  0.2086 -0.1963  0.2078
28997W        W35597  22.659   1.259  18.279 -0.0051 -0.0468  0.1369
28998W        W35598  16.284   4.025   3.082 -0.1333  0.1591  0.1577
28999W        W35599  20.772   4.926   0.499  0.0850  0.0701  0.2029
29000W        W35600  27.308   7.546   5.325 -0.1280 -0.2554 -0.0955
29001W        W35601  10.912   4.058   8.052  0.2801  0.0623  0.0530
29002W        W35602  11.008   4.264   8.549 -0.1239 -0.0406 -0.0512
29003W        W35603  12.708   6.377   4.265 -0.3356  0.2429  0.0735
29004W        W35604   4.765   1.865  15.682  0.0817  0.0421 -0.3242
29005W        W35605   0.443   3.571  24.641 -0.2187  0.0991 -0.1125
29006W        W35606  20.817   4.491  20.575  0.2544  0.1091 -0.0855
29007W        W35607  30.683   0.524  22.279  0.2221 -0.1135 -0.2982
29008W        W35608  20.482   4.488   8.815  0.2669  0.0331  0.0421
29009W        W35609  30.954   1.546  23.159  0.0028  0.3086  0.0522
29010W        W35610  28.604   2.225   0.010 -0.1753 -0.1142 -0.0340
29011W        W35611  21.168   1.370   5.116 -0.0301 -0.0321 -0.0350
29012W        W35612  28.334   2.593  23.979 -0.0394 -0.0770  0.1010
29013W        W35613   0.151   3.735  25.017  0.1443  0.0558  0.0609
29014W        W35614  18.316   2.935  17.704 -0.1976  0.2062 -0.2280
29015W        W35615   5.726   5.495  20.269 -0.3460  0.1312  0.0053
29016W        W35616  31.294   6.982   1.255  0.1228  0.1455 -0.1326
29017W        W35617  19.369   4.241  22.431  0.0816  0.1710  0.1596
29018W        W35618   1.823   4.392  17.358  0.1197  0.2385  0.0722
29019W        W35619  28.711   7.056  25.582 -0.2003  0.0328 -0.0833
29020W        W35620  15.983   7.059   5.248 -0.0027 -0.0294 -0.0477
29021W        W35621  25.125   0.892   9.739  0.1334  0.0273  0.3043
29022W        W35622   7.744   0.843  18.184  0.0426 -0.3687 -0.4766
29023W        W35623   2.939   5.810  18.200  0.0398  0.2048 -0.1523
29024W        W35624  21.676   6.674  22.436 -0.0668 -0.0650  0.0074
29025W        W35625  13.896   2.580  16.117  0.0029 -0.0078  0.0658
29026W        W35626   1.436   5.577   2.190 -0.1773  0.0668 -0.2069
29027W        W35627  25.732   5.293  20.938  0.0790 -0.3187  0.0772
29028W        W35628  26.295   1.775   8.685 -0.3876 -0.3463  0.3673
29029W        W35629  22.383   7.367   5.223 -0.0402 -0.1279  0.0456
29030W        W35630  11.424   4.290   6.877 -0.0577 -0.1428 -0.2733
29031W        W35631  23.365   3.270  18.505  0.2508  0.0989  0.1671
29032W        W35632  17.976   1.469   7.264  0.1009  0.4045 -0.0206
29033W        W35633  21.990   1.393  10.343  0.1010 -0.0983  0.0743
29034W        W35634   4.654   3.755  20.802 -0.0354  0.3066  0.0271
29035W        W35635   3.323   7.647   2.072 -0.2086 -0.3358  0.0206
29036W        W35636  14.454   5.305  16.002 -0.0855  0.0414 -0.2195
29037W        W35637  13.055   6.353  20.290  0.1678 -0.0377  0.0905
29038W        W35638  25.358   3.477   0.372 -0.0649 -0.0013  0.0401
29039W        W35639  29.091   3.055  18.959 -0.2584 -0.3204  0.2493
29040W        W35640   1.712   3.694  10.311 -0.0492 -0.1522 -0.2336
29041W        W35641  11.503   2.763  20.594 -0.1957 -0.0176  0.0744
29042W        W35642  29.534   5.832  20.793  0.1103  0.2989  0.2513
29043W        W35643   6.783   5.334   2.583  0.2876  0.0057  0.2090
29044W        W35644  11.128   4.569  20.610  0.1441  0.1348  0.0048
29045W        W35645   4.737   4.232  10.345 -0.1139  0.1514  0.1635
29046W        W35646   9.764   1.167   0.645 -0.2754 -0.1266  0.3634
29047W        W35647  24.025   3.115  25.468 -0.0668  0.0109  0.1740
29048W        W35648  16.047   1.092   4.347  0.1393 -0.2581 -0.0821
29049W        W35649  23.833   0.280  22.142 -0.1649  0.1918 -0.0196
29050W        W35650  29.120   4.381  17.834 -0.1149  0.1157 -0.2355
29051W        W35651  29.905   3.026   6.669  0.2454  0.0238  0.2458
29052W        W35652  14.004   7.446  21.051 -0.2656 -0.1407 -0.0701
29053W        W35653  19.485   7.820  25.593 -0.1670  0.0973  0.0153
29054W        W35654   6.548   5.870  17.455 -0.0164 -0.2843  0.1172
29055W        W35655  27.799   6.504  18.934  0.2022  0.2689  0.1224
29056W        W35656  29.068   4.111  21.621 -0.0803 -0.0764 -0.1423
29057W        W35657  25.897   4.640   3.635 -0.2308 -0.0087  0.1563
29058W        W35658  29.048   2.430  24.666  0.2138  0.0820  0.2176
29059W        W35659  24.829   1.965   2.505 -0.2330  0.1444 -0.0374
29060W        W35660  14.999   2.892  23.551  0.1260 -0.1078 -0.1746
29061W        W35661  17.820   0.336   8.760  0.0740  0.2339 -0.2405
29062W        W35662  25.183   0.763   1.398 -0.0393 -0.1728  0.1221
29063W        W35663  25.342   2.049  19.723  0.0069  0.1046 -0.0290
29064W        W35664  26.899   1.061  15.797  0.1323 -0.1892 -0.2263
29065W        W35665  23.370   0.294  15.611 -0.0217 -0.0285  0.0880
29066W        W35666   9.062   1.074   7.167  0.0343 -0.3427 -0.1042
29067W        W35667   7.288   0.413   9.764 -0.2940 -0.4238 -0.0008
29068W        W35668  11.647   0.594  15.878  0.1099  0.1889  0.1818
29069W        W35669  23.345   5.380  24.118  0.1669  0.1331  0.0842
29070W        W35670   0.670   1.171  24.572 -0.2643 -0.2744  0.0393
29071W        W35671  14.290   0.143  21.318  0.2570  0.0690 -0.1857
29072W        W35672  26.444   5.938  15.928 -0.0793  0.3217  0.1504
29073W        W35673   7.128   5.565   2.320  0.1947  0.2303 -0.0341
29074W        W35674  28.873   3.624   8.040 -0.0960  0.1891 -0.1250
29075W        W35675  22.820   0.721  25.678 -0.0542  0.2102 -0.2409
29076W        W35676  11.676   1.486  25.235 -0.0900 -0.1080 -0.1592
29077W        W35677   7.144   5.380   3.518 -0.1879 -0.0331  0.1719
29078W        W35678  18.675   2.879   9.387  0.1678 -0.4874 -0.2012
29079W        W35679   4.872   3.926   4.191  0.1144 -0.0925 -0.1216
29080W        W35680  29.745   6.454  19.951  0.1286 -0.1065  0.1154
29081W        W35681   6.742   5.259   9.654 -0.1755  0.0823 -0.1815
29082W        W35682  10.904   4.989  22.154  0.2225  0.0268  0.1404
29083W        W35683  28.534   0.804   4.704  0.1146  0.0225  0.0162
29084W        W35684  12.386   7.625   4.336  0.0187 -0.2095  0.0860
29085W        W35685   3.048   0.510   9.927  0.0405  0.1117  0.0078
29086W        W35686   7.206   3.036   2.632  0.3085 -0.1614  0.0085
29087W        W35687   6.345   1.540  22.692  0.1250 -0.0688  0.0044
29088W        W35688   7.032   2.149  10.332  0.1089 -0.1233 -0.0344
29089W        W35689  22.612   4.047  16.417  0.0500  0.2077 -0.0826
29090W        W35690  28.553   2.252  23.541 -0.2266  0.3571  0.0264
29091W        W35691   4.759   0.146  19.322 -0.2325  0.1069  0.1685
29092W        W35692  17.480   0.093   2.662 -0.0385  0.1204 -0.0131
29093W        W35693   0.609   4.402  21.562 -0.5336 -0.3683  0.1060
29094W        W35694  30.300   6.571  20.726 -0.1073 -0.0594 -0.0489
29095W        W35695   1.752   7.399  20.635  0.1861  0.4299  0.0241
29096W        W35696   6.827   6.380   4.362 -0.2585 -0.0402  0.0051
29097W        W35697  10.335   5.555  23.759  0.1217  0.2763 -0.1029
29098W        W35698   5.267   4.744  16.580 -0.0021 -0.3367 -0.0539
29099W        W35699   7.199   0.999   8.022 -0.0646  0.0859 -0.0803
29100W        W35700   8.671   3.524   2.176 -0.0832  0.0589  0.2898
29101W        W35701  13.303   3.952  15.313  0.0789  0.4131  0.0631
29102W        W35702  16.471   3.556   6.058 -0.5163  0.1595  0.2361
29103W        W35703  27.561   6.426  10.869 -0.0196 -0.1145 -0.5624
29104W        W35704  22.256   7.745   9.959 -0.0565 -0.2011  0.1411
29105W        W35705  11.276   1.083   2.143  0.3581  0.2017 -0.0748
29106W        W35706   3.209   2.019  11.028  0.1474 -0.0021 -0.0191
29107W        W35707   5.188   6.335  21.041  0.0982  0.0696 -0.0811
29108W        W35708   3.728   6.678   6.262  0.1564  0.0318  0.1983
29109W        W35709   1.978   0.596   2.577  0.1412 -0.0988 -0.2783
29110W        W35710  14.631   4.728   8.652  0.1031 -0.0046  0.0178
29111W        W35711  23.262   4.118   0.862  0.1412  0.0422  0.0987
29112W        W35712  25.561   5.908   3.105 -0.0139  0.0799  0.2129
29113W        W35713   4.186   1.038   8.977  0.0226 -0.0738  0.0033
29114W        W35714  23.472   2.086   5.299  0.2208 -0.0145 -0.0494
29115W        W35715  31.089   2.390  18.757  0.0290  0.3525  0.1397
29116W        W35716  21.402   0.080  22.112 -0.0920 -0.3511  0.0136
29117W        W35717   4.827   2.520   9.017 -0.0111  0.0140  0.1704
29118W        W35718   1.960   1.474  15.296 -0.4061  0.1794 -0.4376
29119W        W35719  11.243   2.552   1.381 -0.0716 -0.0662 -0.0505
29120W        W35720  12.703   1.903   5.841  0.0023 -0.0167  0.1385
29121W        W35721  29.895   6.109   4.365  0.0991 -0.1099 -0.0758
29122W        W35722   7.335   1.662  15.565  0.1016  0.0136 -0.2083
29123W        W35723   6.661   0.045  22.955 -0.1787  0.0011  0.1613
29124W        W35724  18.124   7.122  21.773 -0.0348  0.1461  0.0326
29125W        W35725  23.124   6.623  23.656 -0.1550 -0.0060  0.1491
29126W        W35726  28.694   1.717   0.139 -0.0202  0.2139 -0.3295
29127W        W35727  28.612   0.236   2.314  0.0627  0.1611 -0.0324
29128W        W35728  19.141   6.267  18.975  0.3211  0.3037  0.0872
29129W        W35729  11.020   5.907   6.514 -0.0307 -0.0295 -0.0574
29130W        W35730  11.786   3.705   3.050 -0.2938  0.0367 -0.2518
29131W        W35731   2.307   2.883  20.741  0.1775 -0.0725  0.0636
29132W        W35732  16.997   3.498  24.238 -0.0682  0.0593  0.1782
29133W        W35733   9.282   4.107  16.194 -0.1213 -0.1778  0.0775
29134W        W35734   6.845   0.578   4.486 -0.0625 -0.1650 -0.2242
29135W        W35735   8.105   3.318   9.235  0.0224 -0.0353 -0.1177
29136W        W35736  29.012   3.195  25.960  0.3059  0.1265 -0.2012
29137W        W35737   6.979   0.691  17.374 -0.0165  0.1468  0.3585
29138W        W35738  11.935   4.467   4.448 -0.2005  0.2305  0.1700
29139W        W35739  23.441   6.549  22.802  0.1905  0.2611  0.0888
29140W        W35740  15.473   0.685  22.156 -0.1876  0.2300 -0.3115
29141W        W35741  24.470   3.543   4.121  0.2592  0.0359  0.1276
29142W        W35742  23.301   4.541   9.694  0.2204 -0.0010 -0.1420
29143W        W35743   0.547   5.378  22.300  0.0350 -0.0774 -0.1322
29144W        W35744   4.426   2.406  19.486  0.0371 -0.0717  0.2333
29145W        W35745  22.527   2.651  24.680  0.0207  0.2157  0.1752
29146W        W35746  10.808   4.611   9.548  0.1364 -0.0344  0.2397
29147W        W35747   8.142   6.143   9.483 -0.0415  0.2655 -0.0786
29148W        W35748   2.776   5.582   4.388 -0.0100 -0.6235  0.2210
29149W        W35749   5.491   6.141   1.449 -0.2194 -0.1311  0.1603
29150W        W35750  30.907   1.029  19.189  0.0086 -0.0792  0.1153
29151W        W35751  24.326   1.972  17.859  0.1286  0.1687 -0.0407
29152W        W35752   6.126   5.007  19.089  0.1139 -0.0127 -0.1466
29153W        W35753   0.512   2.406   5.959  0.1692  0.2267  0.0538
29154W        W35754   6.273   5.181   1.706  0.0957 -0.0337  0.0337
29155W        W35755  14.730   3.363   9.227 -0.1510 -0.0299  0.1410
29156W        W35756  15.995   3.890   9.219 -0.0450  0.2242 -0.1940
29157W        W35757  14.212   6.809  10.296 -0.3221  0.2121 -0.0296
29158W        W35758  31.009   0.577   1.792  0.4187  0.1806 -0.1290
29159W        W35759   8.171   0.871  22.385 -0.1719  0.1941 -0.4291
29160W        W35760   5.756   6.755   8.990 -0.1878  0.0724  0.0285
29161W        W35761   9.817   4.044  10.389 -0.0126 -0.1380 -0.1330
29162W        W35762   6.629   0.251  14.726 -0.0777 -0.1755  0.3271
29163W        W35763  24.842   4.445  21.924 -0.1533 -0.0336 -0.0992
29164W        W35764  22.547   1.441  20.218 -0.1426  0.2986 -0.1920
29165W        W35765  13.123   2.647  18.408  0.0487 -0.2855  0.3097
29166W        W35766  29.147   1.255   8.294  0.1263  0.0703 -0.0678
29167W        W35767  15.025   2.017   7.798 -0.0236  0.2030  0.2588
29168W        W35768  10.516   2.495  18.328  0.2212  0.2538 -0.0230
29169W        W35769  18.388   6.841   2.730  0.0794 -0.0269  0.1689
29170W        W35770   0.600   6.252  18.444 -0.0915  0.0825 -0.0413
29171W        W35771   6.509   1.414  19.274 -0.3669 -0.2941 -0.1274
29172W        W35772   1.490   5.007   9.924  0.2281  0.0302  0.0903
29173W        W35773  15.430   2.714  19.808  0.0732 -0.0809 -0.4073
29174W        W35774   2.392   6.276   5.123 -0.0528  0.0462  0.1159
29175W        W35775  19.210   3.995  10.546 -0.1250 -0.0467  0.2114
29176W        W35776  20.133   7.585   1.652 -0.1989 -0.0126  0.0855
29177W        W35777  10.283   1.509  21.635  0.1831 -0.1811  0.0153
29178W        W35778   0.489   4.486  18.658  0.0101 -0.2190  0.1226
29179W        W35779   8.767   3.581   6.906  0.0050  0.1619 -0.0259
29180W        W35780   0.525   5.079  23.415  0.1712  0.3101  0.1850
29181W        W35781  28.260   3.378  19.472 -0.0672  0.2692  0.1293
29182W        W35782  24.114   1.104  10.714 -0.0071  0.1354 -0.5213
29183W        W35783  16.178   3.820   4.985 -0.1440 -0.1806 -0.3714
29184W        W35784   7.951   6.126  15.510 -0.5988 -0.0950 -0.3775
29185W        W35785  29.387   3.032   3.372 -0.0300  0.0372 -0.0939
29186W        W35786   4.927   3.481  17.437 -0.0103  0.0921  0.0248
29187W        W35787   2.040   6.430  15.757 -0.2048 -0.3421  0.2117
29188W        W35788  19.336   5.863  23.586  0.0526  0.0074 -0.2278
29189W        W35789   9.631   6.051  21.287  0.0003  0.1724 -0.1414
29190W        W35790   1.783   5.730   4.635 -0.1958  0.0665  0.0956
29191W        W35791  21.818   1.840   6.595  0.0543 -0.0265 -0.1716
29192W        W35792  15.889   7.333   2.947 -0.3540  0.0578  0.2511
29193W        W35793   3.417   5.366  21.974 -0.1870  0.1062  0.1132
29194W        W35794   0.181   0.635  20.067  0.2977  0.2038 -0.0141
29195W        W35795   6.899   7.855   0.459  0.0320  0.1056 -0.0946
29196W        W35796  26.514   0.271   6.528 -0.1692  0.0642 -0.1923
29197W        W35797  31.361   5.250  10.733  0.1859 -0.2837 -0.0577
29198W        W35798   9.083   3.541   2.471 -0.0394  0.3724  0.0524
29199W        W35799  10.832   3.150  15.845  0.0606 -0.1830  0.2235
29200W        W35800   0.094   6.418  10.272 -0.0596  0.0696  0.0627
29201W        W35801  25.071   5.237  24.600 -0.0025 -0.0401 -0.1241
29202W        W35802   2.666   0.571  19.929 -0.1869 -0.1312  0.1106
29203W        W35803   1.962   7.087  24.446  0.3239 -0.2492  0.1746
29204W        W35804  19.135   4.619  19.091  0.0690 -0.0119 -0.3189
29205W        W35805  12.188   4.373  21.659  0.0181  0.2027 -0.1848
29206W        W35806  25.449   4.143  10.822 -0.2269  0.2365 -0.2323
29207W        W35807  17.458   2.161  10.771  0.0718  0.0858  0.1374
29208W        W35808  30.724   6.510   0.589  0.1568  0.1669  0.1703
29209W        W35809   7.193   3.737  24.695 -0.1076  0.0014 -0.2405
29210W        W35810  20.634   0.182  15.501  0.0945 -0.0548  0.3273
29211W        W35811  23.535   0.669   4.129  0.2853  0.0172 -0.2462
29212W        W35812  25.895   5.536  26.046 -0.0423 -0.1517  0.0301
29213W        W35813  23.688   6.353  25.948  0.3281  0.0778 -0.1548
29214W        W35814  17.410   1.819   2.267  0.2253  0.0100 -0.1343
29215W        W35815  14.960   1.914  20.333  0.3368 -0.1694  0.0124
29216W        W35816   3.388   2.063   6.356 -0.0679  0.2241  0.1415
29217W        W35817  10.507   7.645  16.015  0.1200  0.0592 -0.1873
29218W        W35818  18.650   5.304   6.404  0.2137 -0.0667  0.2030
29219W        W35819  18.013   1.281  20.147 -0.0438  0.0625  0.0804
29220W        W35820  26.769   4.441   5.436  0.4479  0.1975 -0.0605
29221W        W35821   1.250   2.026  18.065  0.3110  0.0493 -0.1739
29222W        W35822  11.573   0.494  24.472  0.0343 -0.0088 -0.1917
29223W        W35823   7.794   6.347  18.400  0.4935  0.2268  0.2496
29224W        W35824   0.487   5.398  16.740  0.3410 -0.1279  0.2172
29225W        W35825  13.633   0.409   5.787  0.1441 -0.1204  0.0383
29226W        W35826  25.528   2.031   3.833  0.0743  0.0964 -0.0100
29227W        W35827  26.638   6.646   2.189  0.0410  0.1651  0.1089
29228W        W35828  17.551   2.039   5.512  0.0318 -0.2396 -0.0667
29229W        W35829   8.304   5.834  19.064 -0.1455  0.2303  0.0089
29230W        W35830   9.219   2.502  15.925  0.0235  0.0171  0.1466
29231W        W35831  29.184   4.439   0.250  0.1576  0.1817  0.0223
29232W        W35832   4.656   3.041  25.109 -0.2077 -0.0707 -0.3085
29233W        W35833   8.669   2.922  22.937 -0.3167  0.3813  0.0745
29234W        W35834  28.538   4.988  24.781  0.2429  0.0007 -0.0862
29235W        W35835  28.443   3.444   4.310 -0.1767 -0.3064  0.1270
29236W        W35836  11.157   6.849   4.615  0.0663  0.2776  0.0248
29237W        W35837  21.256   3.453   3.897  0.0431 -0.2221  0.0553
29238W        W35838  18.044   1.040  16.326  0.0675  0.3868 -0.2529
29239W        W35839   1.915   5.961  15.197  0.1190 -0.1895  0.0310
29240W        W35840  18.416   4.591  20.448 -0.1424  0.3784  0.0775
29241W        W35841   8.156   4.156  24.256 -0.1268  0.0261 -0.0906
29242W        W35842  25.968   5.687   2.844 -0.2636  0.0411  0.0585
29243W        W35843  30.098   4.158  21.560  0.1829 -0.0033  0.2972
29244W        W35844  26.264   7.577   6.013 -0.0897 -0.0274 -0.2343
29245W        W35845  24.646   2.600  20.053 -0.1856  0.2110  0.1228
29246W        W35846   7.837   2.195  25.309 -0.0724  0.1407 -0.1492
29247W        W35847  19.957   6.119   7.453 -0.4350  0.1495 -0.0234
29248W        W35848  15.204   6.221  25.939  0.0147  0.1579 -0.0003
29249W        W35849  22.258   7.730   3.578 -0.1453  0.1063  0.0959
29250W        W35850  15.037   2.630   9.547  0.1697 -0.0379 -0.1669
29251W        W35851   1.767   6.598  23.993  0.0824 -0.2359 -0.1917
29252W        W35852   5.274   0.825  20.280 -0.4402  0.1301 -0.0516
29253W        W35853  23.680   1.949   3.944  0.1293 -0.1226  0.0455
29254W        W35854  29.777   6.125  10.766  0.0476 -0.0789  0.3712
29255W        W35855  18.881   6.171  15.860 -0.1369  0.0452 -0.1760
29256W        W35856   4.426   1.715   4.267 -0.0158  0.2562 -0.2669
29257W        W35857   2.565   3.888   6.481  0.1345  0.0262 -0.3461
29258W        W35858   8.006   0.722   6.371 -0.4516  0.2107 -0.0874
29259W        W35859  13.314   6.956  10.191  0.1030  0.0237  0.1397
29260W        W35860   5.757   6.320   8.720 -0.1433  0.0170  0.1039
29261W        W35861   6.796   5.834   6.521 -0.4305  0.2157  0.2069
29262W        W35862  14.138   0.177   4.092  0.0490 -0.1097  0.3113
29263W        W35863  14.202   2.327  11.507  0.2172 -0.0278  0.2107
29264W        W35864  29.205   6.994  10.287 -0.3802 -0.1333 -0.2525
29265W        W35865  29.370   3.660   2.466 -0.1236  0.0836 -0.1661
29266W        W35866  25.269   1.022  10.434  0.0612 -0.0342 -0.0230
29267W        W35867  16.587   1.848   8.891 -0.2962 -0.1628 -0.0180
29268W        W35868  30.980   1.458   6.320  0.0524 -0.1972  0.2134
29269W        W35869  15.711   4.473   5.449 -0.0531 -0.1011  0.1197
29270W        W35870  20.610   6.384  17.809  0.1604 -0.0363 -0.0022
29271W        W35871   4.369   3.175   3.215 -0.0214  0.0905  0.0388
29272W        W35872  11.158   1.856   3.897  0.3971  0.0654  0.2034
29273W        W35873  25.380   5.375   8.891 -0.0967 -0.2274  0.0132
29274W        W35874  18.674   5.080   3.012 -0.0023  0.1660 -0.1926
29275W        W35875  14.476   7.793  22.201  0.0723 -0.0885  0.1407
29276W        W35876  28.715   6.281  22.722 -0.1253  0.2862 -0.0589
29277W        W35877  10.764   1.098  18.317 -0.2001 -0.1389  0.0048
29278W        W35878  22.989   4.399  10.044 -0.2435  0.1510 -0.3860
29279W        W35879   6.815   6.670   0.777 -0.0137  0.2122  0.2248
29280W        W35880  29.738   6.851   0.436  0.0694  0.1763  0.3251
29281W        W35881  12.571   2.827   6.374  0.2946 -0.0472 -0.1812
29282W        W35882   7.878   2.062   2.164 -0.2504  0.0363  0.3321
29283W        W35883  12.915   1.377  10.756 -0.2199 -0.3860 -0.1144
29284W        W35884  15.171   4.066   1.783 -0.1249  0.0783 -0.1044
29285W        W35885  18.751   6.576   2.946  0.0009  0.1418 -0.1802
29286W        W35886   1.706   4.047   6.307 -0.0946 -0.1740  0.3840
29287W        W35887  27.518   0.616   7.789 -0.0940  0.3040  0.2702
29288W        W35888   8.087   6.834   2.744  0.0123 -0.0500  0.1008
29289W        W35889  16.827   3.715   0.941  0.2914 -0.1832 -0.1087
29290W        W35890   8.915   4.071  23.282  0.0811 -0.1081 -0.2785
29291W        W35891   9.885   2.885   6.837  0.2394  0.0418  0.0517
29292W        W35892  17.755   6.964   1.612 -0.0763 -0.0306  0.5018
29293W        W35893  21.237   6.190   0.110  0.0379  0.3340 -0.2016
29294W        W35894  23.769   7.747  25.745  0.0614  0.1280  0.0502
29295W        W35895  14.216   7.662   3.548 -0.0263 -0.2074  0.0478
29296W        W35896  12.919   2.958  20.949  0.2514  0.0318  0.3154
29297W        W35897   1.873   4.511   8.212 -0.4165  0.0118 -0.0151
29298W        W35898   7.388   4.272  21.712  0.1147 -0.0862 -0.0369
29299W        W35899   1.269   7.372  18.217 -0.0833  0.0134 -0.0820
29300W        W35900   2.743   7.591   7.127  0.2750  0.0327 -0.2253
29301W        W35901  24.549   4.634   2.358  0.2552  0.0200  0.0769
29302W        W35902   6.785   2.516   0.347 -0.0040  0.0484  0.1415
29303W        W35903  16.244   6.951  21.506 -0.2169  0.0506 -0.2384
29304W        W35904  14.071   7.017  19.783  0.0606 -0.0593 -0.0176
29305W        W35905  16.338   0.548  20.286 -0.1583  0.1757 -0.2961
29306W        W35906  18.206   7.360  24.504  0.0644  0.2877 -0.0909
29307W        W35907  28.552   7.266   3.958  0.1575  0.0205 -0.2526
29308W        W35908  19.188   1.274  20.997  0.0919 -0.0953 -0.2648
29309W        W35909  26.295   7.354  24.085 -0.0638  0.0308  0.0155
29310W        W35910  30.218   6.859  23.479  0.2074 -0.2750  0.1013
29311W        W35911   8.582   1.791   6.000 -0.1878 -0.0665  0.3639
29312W        W35912   0.044   2.036   7.860  0.0278  0.0607 -0.0628
29313W        W35913  29.637   7.265   9.849  0.0892 -0.0305  0.0113
29314W        W35914   7.701   0.769  15.585 -0.3065 -0.0836 -0.0866
29315W        W35915  11.588   6.154  10.752  0.0631 -0.4257 -0.1047
29316W        W35916  29.337   1.048  10.459 -0.0204  0.0913 -0.1362
29317W        W35917  17.203   3.185  18.313 -0.0300  0.2349 -0.1004
29318W        W35918  30.007   2.056   3.105  0.2446  0.1156 -0.2819
29319W        W35919   3.258   6.885   6.090 -0.0071  0.0280 -0.0334
29320W        W35920  18.907   0.107  26.001  0.0943  0.1328  0.1227
29321W        W35921  23.114   0.065  11.327  0.0077 -0.0479  0.3228
29322W        W35922   9.941   5.035   9.743  0.0556 -0.2344  0.0487
29323W        W35923  30.236   5.781   6.696  0.1542 -0.0944 -0.0429
29324W        W35924  14.625   3.955   6.070 -0.2658 -0.0456 -0.0753
29325W        W35925  15.234   7.627  10.770 -0.0397 -0.1118 -0.1063
29326W        W35926   1.032   5.692  14.972 -0.0541  0.4089  0.1704
29327W        W35927  29.033   3.950   0.992 -0.0944 -0.0901  0.0060
29328W        W35928  31.278   0.968   8.928  0.0304 -0.0574  0.3424
29329W        W35929  27.183   1.256  24.203 -0.2847  0.1009  0.1732
29330W        W35930  28.537   0.925  20.187  0.1900 -0.2997 -0.0058
29331W        W35931  21.728   5.443   3.555 -0.1283 -0.0208  0.1630
29332W        W35932  21.839   0.350  23.789  0.0745 -0.1628 -0.2258
29333W        W35933  14.777   2.764   3.744  0.1132  0.2510  0.0491
29334W        W35934  28.516   0.516  25.033  0.0480 -0.0422 -0.0123
29335W        W35935   7.192   3.127  25.880 -0.1694 -0.3497 -0.0220
29336W        W35936   9.021   7.178   0.440 -0.2045  0.1209 -0.1640
29337W        W35937   8.460   5.230  16.636 -0.2072 -0.0573  0.3215
29338W        W35938   1.394   0.885  24.037 -0.0240  0.0054 -0.0529
29339W        W35939  18.213   1.224  20.695 -0.2457 -0.0515 -0.0715
29340W        W35940  26.257   6.731   6.339  0.1485 -0.0696  0.0695
29341W        W35941  16.793   2.162  19.889 -0.0167  0.3026  0.2765
29342W        W35942   2.643   3.068   8.216 -0.0491  0.1404  0.0440
29343W        W35943   9.218   0.062  24.141 -0.3511 -0.0402 -0.1949
29344W        W35944  17.266   6.525   7.720  0.3417  0.0695  0.2941
29345W        W35945   9.049   4.295  20.361 -0.0940  0.1550  0.2139
29346W        W35946  18.580   7.712   0.153  0.1206 -0.0874 -0.2206
29347W        W35947  11.218   4.783   2.647  0.1793  0.2551  0.2358
29348W        W35948  17.063   1.608  17.699 -0.1686 -0.1464 -0.1113
29349W        W35949   6.611   5.610  24.717  0.0567  0.1204 -0.1367
29350W        W35950  12.597   5.181   7.186 -0.1947  0.0633  0.0074
29351W        W35951  17.760   6.285   7.735  0.1637  0.1304  0.0823
29352W        W35952   3.170   5.618  23.221 -0.2172 -0.0988 -0.2143
29353W        W35953  17.168   1.519   3.701  0.3892 -0.1356 -0.0616
29354W        W35954  26.334   3.856   1.173  0.0322  0.3102 -0.3268
29355W        W35955  16.459   4.411   6.979 -0.2293  0.4241  0.2064
29356W        W35956  12.097   6.745  20.577 -0.1119 -0.0183  0.0454
29357W        W35957  19.925   5.877   8.772  0.1393 -0.0415  0.0834
29358W        W35958  15.152   3.496  21.650 -0.0861  0.1285  0.0279
29359W        W35959   2.942   4.365  10.320  0.2946 -0.0599 -0.1524
29360W        W35960   0.838   2.983  24.256 -0.1463  0.0239 -0.1216
29361W        W35961  12.171   5.529  17.562 -0.3591 -0.1732  0.2410
29362W        W35962  14.704   2.297  10.241 -0.0343 -0.2837  0.0472
29363W        W35963  14.390   4.779  25.273  0.0464  0.1318 -0.0276
29364W        W35964   6.352   1.719  15.859 -0.0255 -0.1557  0.3529
29365W        W35965  10.057   6.690  20.143 -0.1832 -0.0001 -0.1579
29366W        W35966   0.523   0.145   2.470 -0.0069 -0.0462  0.1621
29367W        W35967  27.579   6.704  15.626  0.0839 -0.0068  0.0961
29368W        W35968  20.994   5.895  24.239 -0.1764 -0.2884  0.1393
29369W        W35969  23.252   4.076  23.847 -0.1907 -0.3170 -0.2478
29370W        W35970  15.226   4.055  15.622 -0.0144  0.1446 -0.2070
29371W        W35971  28.234   7.198  25.812 -0.4677 -0.2038  0.2664
29372W        W35972  23.996   3.715   0.904 -0.0750  0.0893 -0.0197
29373W        W35973  15.921   6.403   9.143  0.0022 -0.0938 -0.0205
29374W        W35974   1.416   7.794  20.629 -0.0657 -0.1061  0.0832
29375W        W35975  13.905   4.846  17.356 -0.2332 -0.0068  0.1058
29376W        W35976   2.596   4.150   4.582  0.0752 -0.1097 -0.2449
29377W        W35977  21.071   0.241  19.249 -0.0084  0.1419 -0.0266
29378W        W35978   7.512   1.542   8.294  0.1994 -0.0922  0.0783
29379W        W35979  16.628   3.902  19.101 -0.0712 -0.3663  0.1715
29380W        W35980   2.229   4.759  20.528 -0.3101  0.0178 -0.0695
29381W        W35981  30.164   1.162  21.724  0.0388 -0.1672  0.0682
29382W        W35982   0.741   6.867  15.562  0.0320  0.2885  0.0921
29383W        W35983  19.780   3.644   0.513 -0.1054  0.0744 -0.1423
29384W        W35984  26.447   0.349  17.899  0.2503 -0.3835  0.0801
29385W        W35985  20.724   0.334   9.459 -0.0007  0.2592  0.2262
29386W        W35986  30.649   6.180  17.210 -0.1570 -0.0229 -0.2135
29387W        W35987  25.182   1.079  23.900 -0.0064  0.2443 -0.1246
29388W        W35988   8.746   2.519  16.529 -0.0252 -0.5411  0.2071
29389W        W35989   6.141   2.930  25.218  0.0224 -0.0309 -0.2196
29390W        W35990  21.680   0.415   9.659 -0.2739 -0.0976 -0.0501
29391W        W35991  20.878   3.866  10.879  0.2291 -0.1929  0.0393
29392W        W35992   1.626   3.896  23.453 -0.2767 -0.2427 -0.1252
29393W        W35993  26.456   5.903   8.118 -0.0619  0.0852 -0.0235
29394W        W35994  18.542   3.972  23.326  0.0270 -0.2069  0.1514
29395W        W35995  26.653   4.187  24.046  0.1941 -0.4022  0.0768
29396W        W35996   4.339   7.205  25.602  0.0452 -0.0248 -0.0675
29397W        W35997  21.651   2.973   0.924 -0.0216  0.0428 -0.1665
29398W        W35998  15.950   0.169   5.364 -0.0051  0.1705  0.1683
29399W        W35999  11.229   7.225  22.785  0.1429  0.0193 -0.2318
29400W        W36000  11.179   6.798  23.079  0.2506 -0.0730 -0.0434
29401W        W36001   6.325   1.383   2.401  0.1041 -0.0106 -0.0139
29402W        W36002  10.772   2.525   1.150  0.0034  0.0518 -0.3426
29403W        W36003   0.358   5.971  16.742  0.0882 -0.2485 -0.1591
29404W        W36004  28.298   2.141  10.888 -0.1604 -0.2309 -0.1111
29405W        W36005  12.866   5.189   9.376  0.1514 -0.2107  0.1674
29406W        W36006  17.614   3.462  16.356  0.2723 -0.3889 -0.2298
29407W        W36007  24.652   4.118   0.219  0.1382 -0.2707 -0.0845
29408W        W36008  29.425   7.043   0.060 -0.0586 -0.0490 -0.0312
29409W        W36009   7.137   1.500  20.411  0.2159 -0.1473 -0.0114
29410W        W36010  30.788   0.287   0.723  0.1154 -0.1112 -0.2062
29411W        W36011  18.551   6.071  24.121  0.1848 -0.3742  0.1872
29412W        W36012  22.849   1.377   0.557 -0.0597  0.1086  0.0197
29413W        W36013  17.301   2.823   1.647  0.2988  0.0094  0.2112
29414W        W36014  12.236   7.156   5.203 -0.2434  0.1012  0.1432
29415W        W36015  22.736   3.181   3.049  0.1242  0.1361  0.2788
29416W        W36016  25.211   2.271   9.735 -0.1069  0.0023 -0.0522
29417W        W36017  10.343   0.185   1.147  0.0620 -0.0365 -0.0868
29418W        W36018  16.958   4.105  16.029 -0.4344 -0.2079  0.0731
29419W        W36019  17.763   3.679   0.735 -0.0885 -0.0285  0.1714
29420W        W36020   6.440   5.293  21.026 -0.1342  0.1899 -0.5349
29421W        W36021  21.013   0.108   9.163 -0.1584 -0.0265 -0.1280
29422W        W36022  12.333   2.966   1.045  0.1280 -0.4353 -0.0576
29423W        W36023   6.117   0.417   0.621  0.2409  0.3493  0.0410
29424W        W36024   0.155   3.943   8.553 -0.2287  0.1955  0.0706
29425W        W36025  27.110   4.204  25.401  0.2270  0.3259  0.2149
29426W        W36026  17.374   0.024  15.817 -0.0110  0.2631  0.0460
29427W        W36027   2.924   1.656   5.001  0.0035 -0.1785  0.0295
29428W        W36028  30.157   0.349  20.512  0.0816 -0.1386 -0.1531
29429W        W36029  15.323   0.815  10.039  0.0075 -0.2208 -0.1806
29430W        W36030   9.979   0.741   5.831 -0.0988 -0.2575  0.0431
29431W        W36031   6.466   5.973  18.921  0.1202  0.1254 -0.2156
29432W        W36032  28.907   7.057   2.101 -0.1196  0.1487  0.1363
29433W        W36033  15.726   1.241   4.810 -0.0144 -0.0246 -0.2243
29434W        W36034  16.524   0.881   0.696  0.1566 -0.1888 -0.0160
29435W        W36035  23.390   3.152  24.147 -0.4516  0.0268 -0.2398
29436W        W36036   4.314   5.046   1.716  0.1513  0.0734  0.0235
29437W        W36037   8.742   1.259  24.590  0.0984  0.1035 -0.0902
29438W        W36038  22.792   1.001   4.010 -0.2119  0.0756 -0.1428
29439W        W36039   5.700   7.083  15.107  0.2966  0.3721 -0.1118
29440W        W36040   5.995   5.625  23.132  0.0143 -0.0725 -0.0540
29441W        W36041   5.496   7.857  17.183  0.0895  0.0547 -0.2017
29442W        W36042  19.151   3.751  15.679  0.1791 -0.0261  0.2287
29443W        W36043  28.338   1.009   0.930 -0.1353  0.0919  0.1355
29444W        W36044   5.342   1.122  24.583 -0.0455  0.1654  0.1563
29445W        W36045  22.174   1.345   7.215 -0.2198  0.2345 -0.1479
29446W        W36046  26.976   2.017   0.304 -0.1771  0.4018 -0.0609
29447W        W36047  26.042   6.846  20.632  0.1222  0.1503  0.2360
29448W        W36048   3.718   4.352  21.623  0.2049 -0.1948  0.0636
29449W        W36049  12.360   1.336  10.438 -0.0205 -0.3552 -0.1833
29450W        W36050  27.764   1.408  14.482 -0.0483 -0.2008  0.1712
29451W        W36051   3.342   0.666   2.923  0.0388  0.0198 -0.0223
29452W        W36052   9.478   4.581   7.697 -0.1453  0.0154  0.0120
29453W        W36053   4.940   2.836   6.085  0.2931 -0.2562 -0.0325
29454W        W36054  30.443   2.298  23.787 -0.0081 -0.2116  0.2096
29455W        W36055  26.768   1.424  17.815  0.2327  0.1350 -0.1519
29456W        W36056  24.717   3.824  16.474  0.2081  0.1719  0.2997
29457W        W36057  23.292   7.631   7.812  0.0073  0.1655  0.0126
29458W        W36058   7.139   2.541   3.285 -0.3345  0.0717  0.0171
29459W        W36059  15.243   0.426   3.955  0.0198  0.1728 -0.0860
29460W        W36060  15.912   2.260   2.353 -0.0435  0.1186 -0.1800
29461W        W36061  25.410   3.312   5.053  0.2964 -0.3691  0.0838
29462W        W36062  15.020   3.495  21.055  0.0379  0.0085 -0.0568
29463W        W36063   8.640   3.240  10.643 -0.3036  0.3147 -0.4173
29464W        W36064   6.125   2.286  10.294 -0.1559  0.2089  0.2062
29465W        W36065   1.854   2.353  23.511  0.1469 -0.2413  0.0738
29466W        W36066  20.182   5.343  20.030  0.1267  0.1607 -0.0943
29467W        W36067   2.399   1.957  17.528  0.0078  0.1989  0.5734
29468W        W36068  21.386   6.597  15.904 -0.1067 -0.1194 -0.1490
29469W        W36069  10.664   2.137   4.582  0.0008 -0.2021 -0.0981
29470W        W36070  29.407   2.798  22.756 -0.0953  0.0679 -0.1121
29471W        W36071  27.133   6.323   1.157 -0.3738 -0.2112 -0.0756
29472W        W36072  26.303   6.712   4.897 -0.1821  0.1075  0.0101
29473W        W36073   9.685   6.438   2.279 -0.0314  0.0771  0.2110
29474W        W36074  29.207   6.348  20.417  0.0631  0.1261  0.2141
29475W        W36075  26.867   1.644  25.954 -0.0611  0.1604 -0.0399
29476W        W36076   6.431   6.083  17.897 -0.0017  0.0660 -0.0854
29477W        W36077  29.400   3.899   9.581  0.0129  0.0714 -0.0480
29478W        W36078   7.499   5.015   3.460  0.1937 -0.4348  0.0203
29479W        W36079   1.527   1.903  16.498 -0.0992 -0.1470  0.1190
29480W        W36080  28.960   6.781   8.144  0.1966  0.0556  0.0009
29481W        W36081  10.038   2.293   0.071  0.3111 -0.2276 -0.0672
29482W        W36082  17.790   1.543  25.456  0.0008  0.1429  0.1667
29483W        W36083  19.001   0.155  25.535 -0.0040 -0.0197 -0.1639
29484W        W36084   8.838   0.562   9.836 -0.0502 -0.0847 -0.2916
29485W        W36085   4.922   6.460   0.291 -0.0013  0.0444  0.0212
29486W        W36086  27.259   3.725  15.860  0.1788 -0.2005  0.0001
29487W        W36087  10.754   4.388   6.259 -0.0184 -0.0797  0.1161
29488W        W36088  10.980   1.417  15.174  0.0229  0.1375  0.1988
29489W        W36089  28.971   5.001  10.197  0.0712  0.1471 -0.0928
29490W        W36090  11.788   6.565  25.550  0.2711 -0.1196  0.2152
29491W        W36091  15.769   4.904   5.172  0.2718  0.0231 -0.1950
29492W        W36092  12.171   0.496  19.961 -0.3631  0.0285 -0.2773
29493W        W36093  12.454   4.183  23.403 -0.0199  0.0512 -0.1763
29494W        W36094  27.719   1.129   3.443 -0.0049 -0.0450 -0.0718
29495W        W36095   8.789   0.445  23.314  0.1898 -0.0685  0.0963
29496W        W36096  17.089   5.097   7.312  0.1082 -0.2457 -0.0334
29497W        W36097  19.659   4.630  10.816  0.3021  0.1369  0.2791
29498W        W36098  14.703   4.737  22.044 -0.3177  0.3277  0.0122
29499W        W36099  12.671   1.041   7.885  0.0613 -0.0028 -0.2161
29500W        W36100   7.812   7.344   1.449  0.3352  0.1420 -0.1594
29501W        W36101   7.003   2.618   2.477  0.0742 -0.1499 -0.2042
29502W        W36102   8.708   3.716  10.466  0.1934  0.0390 -0.0763
29503W        W36103  26.224   5.435  22.971  0.1262 -0.0687 -0.0297
29504W        W36104  30.859   6.616   8.003 -0.0426  0.1599  0.1172
29505W        W36105  16.306   6.068   8.747 -0.1916 -0.1301 -0.2961
29506W        W36106  27.113   1.187   2.832 -0.2881  0.1855 -0.2139
29507W        W36107   8.394   3.041   8.945  0.2204 -0.0117  0.0272
29508W        W36108  12.117   6.685   5.344 -0.0096 -0.0051 -0.0289
29509W        W36109  29.159   6.199  19.881 -0.1872  0.0435  0.3020
29510W        W36110  13.665   4.826  23.809  0.1974  0.1603  0.1461
29511W        W36111  15.214   3.262   3.377  0.0675  0.0375 -0.0518
29512W        W36112  13.848   3.671  21.492 -0.0418  0.2795 -0.2269
29513W        W36113  29.253   6.958   2.389 -0.0565 -0.0746 -0.0963
29514W        W36114  17.339   3.771  25.470  0.0635  0.4098  0.0838
29515W        W36115  11.756   2.399   7.817 -0.0252  0.5105  0.0933
29516W        W36116  16.764   2.717   0.219  0.1991 -0.0366 -0.5980
29517W        W36117  28.731   2.934  17.004 -0.0055  0.3385  0.0170
29518W        W36118  12.399   4.386   5.243  0.1542 -0.1784  0.1946
29519W        W36119  12.436   5.705   3.534  0.0514 -0.0608 -0.0399
29520W        W36120  24.425   1.875   9.693 -0.2219 -0.2172 -0.1302
29521W        W36121  27.569   1.129   6.516 -0.0013 -0.2348 -0.1465
29522W        W36122  21.487   0.980   7.784 -0.2178 -0.0800  0.3275
29523W        W36123   9.235   7.562   8.742 -0.1278 -0.0411  0.0295
29524W        W36124   1.461   4.733  15.734  0.0107 -0.2065  0.0539
29525W        W36125  26.217   5.643  19.286 -0.2619  0.3805  0.0972
29526W        W36126  14.935   4.214   2.444 -0.0457 -0.0258 -0.1182
29527W        W36127   6.853   0.881  16.582 -0.0456  0.0579  0.2103
29528W        W36128  22.038   6.347   7.793 -0.0297  0.0036 -0.1160
29529W        W36129   6.637   1.220  23.462  0.0000 -0.0044  0.0722
29530W        W36130  13.029   3.718   7.493  0.0960  0.2722  0.2235
29531W        W36131   8.134   7.318  16.419  0.2142 -0.2719 -0.1349
29532W        W36132  24.487   6.766  23.874  0.3631 -0.1685  0.0244
29533W        W36133  12.733   5.156   6.420 -0.0579  0.1108  0.0633
29534W        W36134   6.469   3.321  25.312  0.0472 -0.1514  0.0894
29535W        W36135   4.857   5.935  10.965  0.0712 -0.0895 -0.3264
29536W        W36136  24.963   4.260   2.317 -0.0078  0.0801  0.1623
29537W        W36137   2.893   6.301   2.195 -0.0355 -0.3852 -0.0632
29538W        W36138  20.785   3.371   1.420  0.0702  0.3859  0.2983
29539W        W36139  14.005   6.466  19.011  0.1930  0.1594  0.0480
29540W        W36140   3.772   1.378   4.801  0.0644 -0.3713 -0.0676
29541W        W36141  12.120   4.694  20.915  0.0328 -0.1395 -0.1054
29542W        W36142  30.104   5.994  23.503  0.0871  0.1435 -0.1231
29543W        W36143  30.034   0.676   7.078 -0.1615  0.0941 -0.1877
29544W        W36144  11.440   7.121  19.594 -0.1253  0.2597 -0.1828
29545W        W36145  13.180   7.697  21.630 -0.2477  0.1445  0.1159
29546W        W36146   4.241   0.555   8.246 -0.1948  0.0345 -0.2073
29547W        W36147   6.514   2.198  20.651  0.1453 -0.1893 -0.0734
29548W        W36148  26.444   4.361   3.984  0.0003 -0.1722  0.0041
29549W        W36149  16.077   0.057   9.214  0.0735 -0.0933 -0.0521
29550W        W36150  19.258   1.866  19.858 -0.0999  0.2209  0.2826
29551W        W36151  26.703   1.242   9.889  0.1342 -0.4716 -0.0236
29552W        W36152  30.930   5.119  20.994  0.0997 -0.2005 -0.0657
29553W        W36153   3.471   0.880  17.211 -0.1749 -0.0662  0.0300
29554W        W36154  13.230   7.646  20.155 -0.1116  0.5421 -0.0320
29555W        W36155  18.708   1.486   8.944  0.0936  0.0799  0.0216
29556W        W36156   6.932   0.385   7.431  0.0246 -0.1866  0.3240
29557W        W36157  16.080   0.507   8.975 -0.3597  0.0886  0.0133
29558W        W36158  11.924   0.657   4.662 -0.1949 -0.1924  0.3467
29559W        W36159  28.297   1.915  15.603  0.0444 -0.1300  0.4518
29560W        W36160   5.961   4.923  18.654  0.0022 -0.1291  0.2372
29561W        W36161   3.782   2.131   6.927  0.2078 -0.2414  0.2603
29562W        W36162  24.661   3.959  18.327 -0.1233  0.0317  0.0151
29563W        W36163  13.347   0.711  23.671 -0.2852  0.0047  0.1025
29564W        W36164  25.680   0.663  23.133 -0.1493  0.0587 -0.1180
29565W        W36165   5.836   0.598   3.522  0.1407  0.0395  0.0421
29566W        W36166   2.183   2.063  21.332 -0.2971  0.2209  0.1101
29567W        W36167   6.354   1.135  23.030  0.1543  0.0428  0.1398
29568W        W36168   1.350   2.632   6.035  0.4197  0.1245 -0.1940
29569W        W36169  18.791   4.755   3.739  0.1426  0.1556  0.2090
29570W        W36170  16.337   4.705   5.419 -0.0636  0.1879  0.2938
29571W        W36171   8.560   7.651   3.997 -0.0510 -0.1075  0.1907
29572W        W36172   7.778   3.101  24.177 -0.1224  0.1248  0.0102
29573W        W36173  18.438   0.066  25.712 -0.0647 -0.1991 -0.0483
29574W        W36174   4.386   4.500   5.310 -0.0739  0.0593 -0.4072
29575W        W36175  11.836   5.951   2.755 -0.1730  0.0004 -0.0027
29576W        W36176   2.747   5.519  17.393 -0.1655  0.0251 -0.0002
29577W        W36177   6.997   1.264   5.254  0.3455  0.1451 -0.2585
29578W        W36178  17.200   6.076  18.379 -0.1095 -0.1489 -0.2330
29579W        W36179  20.772   2.029   7.217 -0.2042 -0.2674 -0.1827
29580W        W36180  26.688   6.612   3.536 -0.1468 -0.0597  0.3590
29581W        W36181   2.847   0.329  23.104  0.2375  0.2046 -0.3668
29582W        W36182  29.502   7.590  20.363 -0.1250 -0.2830 -0.2764
29583W        W36183   2.554   3.381   3.379  0.0194  0.1814 -0.0010
29584W        W36184  24.560   4.933   4.365  0.1432  0.0125 -0.0244
29585W        W36185  16.256   0.898  21.242  0.2815 -0.1173 -0.1882
29586W        W36186   0.072   6.276   3.492 -0.0169 -0.2634  0.2108
29587W        W36187  21.216   7.763   3.105  0.2378  0.1687 -0.0666
29588W        W36188  15.736   6.169  20.782  0.1813 -0.0456 -0.0678
29589W        W36189   7.482   4.027   4.675  0.0381 -0.0732 -0.4285
29590W        W36190  25.102   1.654  23.200  0.2912  0.1084 -0.0422
29591W        W36191   8.325   5.522   5.135 -0.0787 -0.0610 -0.0278
29592W        W36192   1.883   1.664   3.141  0.0182  0.2494 -0.0492
29593W        W36193  21.913   5.220   2.064  0.2123 -0.0781  0.1561
29594W        W36194  27.178   4.582  23.642 -0.4075 -0.0398  0.3852
29595W        W36195   9.462   1.531   0.072  0.0858 -0.0696  0.0936
29596W        W36196  21.298   7.752   8.428  0.0163 -0.1140  0.1945
29597W        W36197   5.676   5.439   4.375  0.2557  0.2835 -0.2099
29598W        W36198  20.379   7.084  25.932 -0.1275 -0.3073 -0.1684
29599W        W36199   1.670   4.422  19.554  0.0887 -0.0611 -0.1295
29600W        W36200  29.161   7.714  20.692 -0.2656 -0.1337 -0.1247
29601W        W36201  16.934   3.501  19.095  0.1543 -0.1583  0.0281
29602W        W36202  25.066   1.800   8.467  0.2539 -0.2538  0.2520
29603W        W36203  29.392   1.635  23.529 -0.0230 -0.1489 -0.0366
29604W        W36204   6.161   6.612   2.697 -0.0789  0.2446  0.1762
29605W        W36205   1.032   6.131   5.070 -0.0803  0.1045 -0.1571
29606W        W36206  18.965   4.573   9.674 -0.1313 -0.2843  0.1576
29607W        W36207  12.841   4.444   5.679  0.0209 -0.2525 -0.1613
29608W        W36208  12.878   1.202   0.929 -0.3037 -0.1142  0.1546
29609W        W36209  19.070   2.735   7.646 -0.0334  0.0457 -0.0631
29610W        W36210  25.270   0.116   7.078  0.1611 -0.2691 -0.1782
29611W        W36211  20.490   4.381   7.942  0.0528 -0.1236  0.0697
29612W        W36212  14.529   0.884   5.800  0.0951  0.1302  0.1061
29613W        W36213   7.908   4.488   9.961 -0.1883 -0.1564 -0.0288
29614W        W36214   4.762   2.451  25.926  0.0361  0.0744  0.1831
29615W        W36215  23.603   4.002  20.197 -0.0439 -0.1555  0.0232
29616W        W36216  25.683   5.269  19.775 -0.0633  0.2844 -0.1598
29617W        W36217   7.844   6.592  20.965  0.3382  0.0380  0.0056
29618W        W36218  22.988   4.505   3.916 -0.0891  0.0547  0.1575
29619W        W36219  29.225   7.169  10.937  0.4415  0.0706 -0.0416
29620W        W36220  21.065   5.360  25.451  0.1296  0.0084 -0.1873
29621W        W36221  23.114   5.732   4.603 -0.0507  0.0829  0.1335
29622W        W36222   2.011   4.075  15.330 -0.3650 -0.1458  0.2752
29623W        W36223  29.911   3.089  25.481 -0.2431 -0.2193 -0.1056
29624W        W36224   6.260   3.982  25.963  0.1555  0.0421 -0.1127
29625W        W36225  16.835   6.772  11.112 -0.4536  0.0769 -0.1827
29626W        W36226  24.337   4.164  19.783  0.2206  0.0207  0.0461
29627W        W36227  20.028   3.934  18.927 -0.0431 -0.0040  0.0102
29628W        W36228  15.629   3.812   1.852  0.0402  0.0075 -0.0358
29629W        W36229   7.498   1.867  10.243  0.2182 -0.0544 -0.1348
29630W        W36230   5.030   5.360  10.312  0.2138  0.1539 -0.1080
29631W        W36231  21.467   7.616  10.718 -0.2717  0.1130  0.1094
29632W        W36232  30.711   3.452   6.538  0.0378  0.2571  0.0693
29633W        W36233   8.721   4.368  23.640 -0.0238 -0.3979 -0.0366
29634W        W36234  14.948   3.685  25.182 -0.2195 -0.1961 -0.3154
29635W        W36235  25.278   4.358   6.993 -0.3336 -0.0049 -0.1035
29636W        W36236  24.651   1.313   2.993  0.0199  0.0710 -0.0530
29637W        W36237  21.876   5.234  18.208 -0.2034 -0.0365  0.0030
29638W        W36238  15.808   1.975  18.364  0.4182 -0.0185  0.4755
29639W        W36239  30.874   7.822  21.155  0.0183 -0.1367  0.0711
29640W        W36240   3.250   5.954   4.310  0.1909 -0.1004  0.4579
29641W        W36241  28.311   4.979  18.955 -0.0712 -0.2789 -0.1597
29642W        W36242  23.199   5.574  15.727 -0.2917  0.1873  0.0753
29643W        W36243   3.502   1.948  24.058 -0.1353  0.0655  0.3038
29644W        W36244   2.238   1.472  17.510  0.3206  0.0361  0.1463
29645W        W36245  15.553   0.506   2.095 -0.3663  0.1188  0.1259
29646W        W36246  14.557   0.382  23.020  0.0190 -0.0989 -0.2096
29647W        W36247  17.416   2.962   2.486 -0.4973 -0.0763  0.1291
29648W        W36248   8.343   2.850  26.064 -0.2488  0.1967 -0.0802
29649W        W36249   2.009   7.677  19.995  0.1300 -0.3953  0.1867
29650W        W36250   8.455   1.133  14.506 -0.1217  0.2699  0.0932
29651W        W36251  29.660   7.351   0.423 -0.0173 -0.1114  0.3011
29652W        W36252   7.366   0.918   4.392 -0.1892 -0.0652  0.0653
29653W        W36253  14.715   4.501  19.785  0.1918  0.0873  0.1450
29654W        W36254  18.513   7.433  21.711  0.2966  0.1357 -0.0953
29655W        W36255   3.703   1.364  15.171 -0.2498 -0.0734 -0.1081
29656W        W36256  17.703   7.728  11.542 -0.3454 -0.1821  0.1859
29657W        W36257   3.612   4.480   9.738 -0.2852  0.1079  0.2003
29658W        W36258  20.655   6.673  20.282  0.2615  0.0366 -0.0831
29659W        W36259  18.652   4.410   4.628 -0.0214  0.0644  0.0373
29660W        W36260   0.508   4.408  14.982 -0.2123  0.1872  0.2327
29661W        W36261  28.564   3.853  25.477  0.1483  0.1963 -0.0252
29662W        W36262  12.674   2.649   4.350 -0.1778 -0.1515  0.1021
29663W        W36263  23.396   2.844   8.673 -0.2237  0.0180 -0.0784
29664W        W36264  11.778   0.162   7.770 -0.1380  0.0077  0.0513
29665W        W36265  12.245   5.697  19.776 -0.0685  0.1275 -0.2363
29666W        W36266  21.583   2.639   8.254  0.2318  0.0158  0.1597
29667W        W36267  18.217   5.571   7.631  0.1022  0.1261 -0.2074
29668W        W36268   2.780   0.364  19.502 -0.3553 -0.2353 -0.0903
29669W        W36269  12.594   3.981  21.804  0.1157 -0.1098  0.2015
29670W        W36270   1.021   1.739   1.663  0.0217 -0.0856 -0.0514
29671W        W36271  19.731   5.363   5.894  0.3712  0.0526  0.1109
29672W        W36272   9.564   7.145  15.987  0.0775 -0.0519 -0.3231
29673W        W36273  10.751   7.493  25.109  0.2275  0.2549  0.0128
29674W        W36274  27.201   7.425   2.148  0.0327 -0.0245  0.1588
29675W        W36275  10.600   5.748   3.930 -0.0304  0.3106 -0.1084
29676W        W36276   4.834   4.534  16.487 -0.0212 -0.0680 -0.0307
29677W        W36277  24.179   7.010  15.755  0.3562 -0.0497 -0.0629
29678W        W36278  16.793   4.021  22.878 -0.1984 -0.2705  0.1094
29679W        W36279  28.110   6.683  25.888  0.0626  0.2843  0.0058
29680W        W36280  13.221   7.151  18.821  0.4575  0.3849  0.0911
29681W        W36281  11.112   3.977  23.958  0.2036  0.0127 -0.2822
29682W        W36282  21.238   6.459   2.403 -0.3771  0.1645  0.2590
29683W        W36283  27.799   1.730   8.757  0.0176  0.0179 -0.2542
29684W        W36284   5.484   5.002  24.127  0.1307  0.1827 -0.1734
29685W        W36285   3.535   6.195   6.281 -0.1344 -0.1891  0.1505
29686W        W36286  17.526   6.074  10.841 -0.0889 -0.2542 -0.1099
29687W        W36287  28.081   0.258  25.262  0.2591  0.0175  0.0893
29688W        W36288   6.993   7.221   7.838  0.0427  0.0176 -0.1574
29689W        W36289  22.498   3.017   0.364 -0.2231 -0.2604  0.1718
29690W        W36290  27.782   3.164  19.618 -0.1579 -0.1981 -0.1036
29691W        W36291   0.607   3.049  20.115  0.1539  0.2004  0.2262
29692W        W36292  12.747   1.652  19.350  0.0776 -0.0254  0.1171
29693W        W36293   7.115   2.805  15.686  0.0190  0.0598  0.0631
29694W        W36294  18.737   1.771  25.450  0.0087 -0.0614 -0.3277
29695W        W36295   2.302   5.984  16.699  0.4334  0.0594 -0.1976
29696W        W36296  20.707   3.232   4.310 -0.0133  0.0669 -0.2572
29697W        W36297  29.954   7.596   4.421  0.0646  0.2670  0.1156
29698W        W36298   1.945   0.054   8.586 -0.1833 -0.0032  0.1476
29699W        W36299  27.258   3.219  22.402 -0.3270 -0.1144 -0.0690
29700W        W36300  18.169   1.085   4.819  0.1034 -0.2040  0.1403
29701W        W36301   0.412   3.881  22.127  0.0455 -0.0696  0.0040
29702W        W36302  24.118   0.990  18.350 -0.1113  0.2463  0.4160
29703W        W36303   6.477   6.190  25.117  0.0157 -0.1323 -0.1640
29704W        W36304  25.458   4.226   2.759  0.0701  0.0811 -0.1062
29705W        W36305   5.391   5.595  22.069  0.3777 -0.2533  0.1380
29706W        W36306  23.931   2.930   8.757  0.0193 -0.2773  0.1149
29707W        W36307   6.257   5.382  21.901 -0.0548 -0.2215 -0.0989
29708W        W36308  19.193   2.843   9.638  0.0349  0.0506  0.1773
29709W        W36309  30.399   3.684   4.056 -0.0159  0.0815  0.0917
29710W        W36310  19.385   0.307  21.143 -0.0255  0.2049  0.0893
29711W        W36311   0.291   6.120   5.148  0.1789  0.0438 -0.0442
29712W        W36312  30.347   0.613   2.986  0.3423  0.0378 -0.3371
29713W        W36313   9.910   4.444  10.892 -0.0747  0.0958 -0.0552
29714W        W36314   1.055   4.384  10.100  0.0353  0.0611  0.0375
29715W        W36315  16.699   3.300  22.671 -0.0749  0.0480  0.2053
29716W        W36316   7.462   4.075  23.239  0.2241 -0.0766 -0.3058
29717W        W36317  11.895   4.390   6.948 -0.0596  0.0181  0.0262
29718W        W36318  26.895   1.853  20.959  0.0965 -0.1882 -0.0487
29719W        W36319   8.014   5.863  18.245  0.1392  0.0938 -0.0779
29720W        W36320   7.945   2.039  17.594  0.3226 -0.0839 -0.1478
29721W        W36321  26.036   2.555   8.540 -0.0662 -0.0493  0.2004
29722W        W36322   5.922   4.621   5.536 -0.1474 -0.2700  0.2737
29723W        W36323  14.011   2.045  24.201 -0.1516  0.2276  0.2054
29724W        W36324  13.019   2.423   5.479  0.1633  0.0681 -0.1402
29725W        W36325  22.447   6.859  10.410 -0.2760  0.1348 -0.1385
29726W        W36326  11.192   2.371  22.220  0.0313  0.0071  0.2113
29727W        W36327   4.445   0.060  21.042 -0.0592 -0.1695  0.0429
29728W        W36328   4.753   7.476  19.542 -0.2239  0.1192  0.1148
29729W        W36329   3.644   4.047   4.616  0.3733 -0.0710  0.0185
29730W        W36330   2.180   7.234   0.372 -0.0458  0.0654  0.1704
29731W        W36331  18.367   2.236  25.986 -0.0257 -0.2718 -0.0694
29732W        W36332  10.775   1.686   0.088 -0.0660 -0.1152  0.1316
29733W        W36333  23.762   2.808   3.481 -0.0764  0.0391  0.2793
29734W        W36334   6.327   7.708  23.654  0.1156 -0.0502  0.0599
29735W        W36335   6.221   5.763   0.755  0.3036 -0.0086 -0.1748
29736W        W36336  16.054   0.961  24.377 -0.4414  0.1693 -0.3488
29737W        W36337  20.209   5.182  16.432  0.0296 -0.6260  0.0630
29738W        W36338  16.315   3.395   0.969  0.2683  0.2416 -0.1320
29739W        W36339   7.583   0.052  17.559 -0.0201  0.1252 -0.0214
29740W        W36340   9.804   0.840  24.294 -0.1154 -0.0649  0.2363
29741W        W36341  10.597   4.539   8.769  0.0500 -0.2283 -0.0904
29742W        W36342  26.833   7.132  16.023  0.0481 -0.1971 -0.1872
29743W        W36343   4.236   0.767  24.324 -0.2318  0.0516  0.1361
29744W        W36344   8.164   1.816  21.562  0.0278  0.1285 -0.2713
29745W        W36345  28.593   0.771  10.135  0.0373  0.0469  0.1556
29746W        W36346  29.072   1.846   3.093 -0.4245  0.1117  0.0507
29747W        W36347  25.972   1.625   1.074 -0.0766 -0.3128 -0.0334
29748W        W36348  14.566   7.321   8.927 -0.1321 -0.1865 -0.1322
29749W        W36349  27.142   7.854   0.307 -0.0215 -0.1563 -0.2751
29750W        W36350  19.635   3.066   3.905 -0.0275 -0.0134  0.0075
29751W        W36351  11.438   6.507   0.298 -0.0121 -0.0028 -0.2279
29752W        W36352   5.220   1.050   0.909 -0.0867  0.1865 -0.0246
29753W        W36353  25.663   2.065  21.585 -0.0009 -0.2840 -0.0991
29754W        W36354  23.263   2.130   9.407  0.1763 -0.0375 -0.0148
29755W        W36355  31.166   6.522  24.316  0.0241  0.1275  0.0488
29756W        W36356  10.083   2.785   6.155 -0.0830  0.0424  0.2936
29757W        W36357  15.936   6.719  25.757  0.0027 -0.0121  0.0625
29758W        W36358  19.309   0.339   0.658 -0.0227  0.2619 -0.0722
29759W        W36359  11.069   7.154   2.955  0.1218 -0.1839  0.0888
29760W        W36360   6.314   5.829   1.559 -0.2858 -0.1998 -0.1539
29761W        W36361  21.260   0.714   1.815  0.2016  0.0566 -0.1386
29762W        W36362  24.803   2.159   6.358 -0.0855 -0.0081  0.2569
29763W        W36363   7.655   5.526   1.436  0.2835 -0.2904  0.2594
29764W        W36364  26.333   7.707   1.675  0.2357 -0.0147 -0.1504
29765W        W36365  12.927   7.371  16.896 -0.1194  0.1026 -0.0936
29766W        W36366   0.218   4.115   4.636 -0.0497 -0.3020 -0.3291
29767W        W36367  27.949   2.033  25.496  0.0701  0.2065  0.1584
29768W        W36368  17.485   4.173  25.655 -0.1995  0.3144  0.0730
29769W        W36369   3.839   2.385   9.594 -0.1620  0.1881  0.1684
29770W        W36370  14.465   6.275  18.936  0.1014 -0.2879  0.0800
29771W        W36371  28.370   5.354  21.143 -0.2499  0.3739  0.0870
29772W        W36372   3.742   2.332  21.864 -0.1530 -0.2033  0.2422
29773W        W36373  19.659   1.480  15.994  0.2591  0.0126  0.0442
29774W        W36374  28.818   1.530   2.826  0.0311  0.0381  0.3980
29775W        W36375   8.054   4.098  16.419 -0.6148  0.0408  0.0929
29776W        W36376  12.612   2.791  18.139  0.5603 -0.0169 -0.0202
29777W        W36377  24.871   0.718  25.844 -0.1490 -0.1932 -0.0354
29778W        W36378  13.827   2.651   1.288 -0.1913 -0.1265  0.0916
29779W        W36379  25.368   5.741  20.623  0.0080  0.0178 -0.0422
29780W        W36380   5.573   2.823  15.225 -0.0185 -0.0171  0.2006
29781W        W36381  20.479   6.057   2.190 -0.1908  0.4072 -0.1295
29782W        W36382  28.463   7.273   8.676  0.2238  0.0881  0.1194
29783W        W36383  18.877   1.188   9.313  0.0509  0.1859  0.1128
29784W        W36384  12.454   1.922  25.181  0.1150  0.2687  0.2181
29785W        W36385  31.009   6.820   7.132 -0.3159  0.1272  0.2091
29786W        W36386   2.186   6.940   6.114  0.0307 -0.0707 -0.0309
29787W        W36387   0.139   0.397  21.411 -0.0342 -0.2125 -0.2127
29788W        W36388  24.781   0.867  17.813 -0.0117  0.0395  0.2068
29789W        W36389  29.808   0.218   7.728  0.1832 -0.3184 -0.0283
29790W        W36390  15.308   0.378  17.832 -0.3235 -0.0464  0.1201
29791W        W36391   7.896   0.187   8.208  0.0692  0.1063 -0.1169
29792W        W36392  30.468   1.490  21.265  0.3447 -0.1049  0.0857
29793W        W36393   2.686   0.952  15.378 -0.0541  0.1941 -0.2462
29794W        W36394  23.964   5.986  22.152 -0.0944  0.0449  0.0012
29795W        W36395  21.826   7.454   8.772 -0.3047 -0.1343  0.0255
29796W        W36396   3.756   7.244  24.412  0.0416 -0.1843  0.2246
29797W        W36397   7.332   3.893  25.363 -0.1147  0.2844 -0.1481
29798W        W36398  29.119   5.047   6.218  0.0810 -0.2495  0.0740
29799W        W36399  13.413   2.632   0.681  0.0740 -0.0315 -0.0016
29800W        W36400  11.224   0.686   2.611  0.0731  0.0569  0.2710
29801W        W36401  16.966   0.524   2.425  0.1347  0.1746  0.0330
29802W        W36402  11.206   3.227  10.142  0.2015  0.2383  0.0108
29803W        W36403  17.833   1.767   9.788  0.1023  0.0168 -0.0935
29804W        W36404  23.868   0.933  10.227 -0.1157  0.0471  0.0470
29805W        W36405  12.825   4.016  10.650 -0.1530 -0.0756  0.0123
29806W        W36406   4.368   0.122  15.521 -0.1547 -0.1647 -0.0815
29807W        W36407  14.245   6.774   3.928 -0.2229  0.1063 -0.0933
29808W        W36408  29.719   6.557  18.731 -0.3168  0.2277 -0.2601
29809W        W36409  31.439   6.983   8.633 -0.1069  0.3007 -0.1855
29810W        W36410   9.316   3.389  23.904  0.1656  0.0168  0.2711
29811W        W36411   2.667   3.037  23.817  0.1783 -0.1090  0.0313
29812W        W36412  24.693   0.586   3.015 -0.2472  0.1071  0.0442
29813W        W36413   6.631   3.625  24.412  0.2088 -0.1644 -0.1048
29814W        W36414   7.303   3.833  10.502  0.0883 -0.2645  0.2163
29815W        W36415   5.469   7.719  22.167  0.0198  0.2028 -0.0731
29816W        W36416  15.285   3.654  17.821 -0.0850  0.1232  0.1251
29817W        W36417   5.454   3.107  16.808  0.2922  0.1031  0.0232
29818W        W36418   2.094   7.113   6.979  0.0785 -0.2998  0.1647
29819W        W36419  16.912   5.228   0.818 -0.2714 -0.0693  0.1429
29820W        W36420   2.858   6.280  24.337  0.2513  0.1619 -0.3749
29821W        W36421   4.333   6.870  18.732  0.0722 -0.1731  0.1418
29822W        W36422  15.909   3.605  18.888  0.1221  0.2085 -0.0942
29823W        W36423  23.473   6.984   4.346  0.0125  0.3580 -0.0015
29824W        W36424  21.619   0.608   6.111  0.0189 -0.0288 -0.1399
29825W        W36425   3.740   7.476   5.873 -0.1241  0.2010  0.0077
29826W        W36426  11.376   1.997   7.732  0.3825 -0.0129 -0.0106
29827W        W36427   3.572   1.359   0.384 -0.2528 -0.0763  0.2399
29828W        W36428   6.547   4.617  26.041  0.0345 -0.4438  0.1151
29829W        W36429  23.520   6.957   2.863 -0.0327 -0.0773  0.0894
29830W        W36430  23.410   0.399   9.572 -0.0379  0.1476 -0.0220
29831W        W36431  11.690   5.424  17.780 -0.2249 -0.1069 -0.2256
29832W        W36432  20.026   4.092   2.421 -0.0124  0.2013  0.1097
29833W        W36433   5.201   2.801   8.477  0.3404 -0.0643  0.1812
29834W        W36434   5.252   3.369  25.423  0.0564  0.2530  0.3879
29835W        W36435  13.307   4.941  18.943 -0.0171  0.2981  0.0403
29836W        W36436  14.157   1.639  23.241  0.1489 -0.1769  0.0350
29837W        W36437  21.397   2.420  16.372 -0.1374  0.0015 -0.0176
29838W        W36438  23.621   2.613  17.877 -0.3591 -0.1348  0.3189
29839W        W36439  12.126   6.783  22.407  0.2937  0.0973 -0.0571
29840W        W36440   5.009   0.784  18.299 -0.1133  0.0032 -0.0422
29841W        W36441   1.296   4.502   1.083  0.0757 -0.1696 -0.0681
29842W        W36442   0.286   2.859  25.880  0.2247 -0.1988 -0.1399
29843W        W36443  30.616   2.191   1.452  0.1365  0.1562 -0.1930
29844W        W36444   1.335   3.499   2.093  0.0377 -0.3006 -0.2953
29845W        W36445  17.250   1.975  24.307  0.0443  0.2271  0.0788
29846W        W36446  10.860   0.353   3.678 -0.4025  0.1344  0.3662
29847W        W36447  25.408   2.335  21.203  0.2414 -0.0750 -0.0760
29848W        W36448  21.594   2.550  21.567  0.0495 -0.0656  0.0147
29849W        W36449   5.824   2.696  25.501  0.3144  0.0974  0.2228
29850W        W36450  23.584   2.451   3.835 -0.1070 -0.0342  0.0737
29851W        W36451  19.764   5.489   4.099  0.1248  0.0712  0.0574
29852W        W36452   5.458   2.405  18.869  0.0148 -0.0452  0.0417
29853W        W36453  13.021   0.705  21.430  0.0003 -0.1879 -0.0547
29854W        W36454  31.018   0.348   5.109 -0.3809  0.1863  0.0355
29855W        W36455  10.748   1.089  22.765  0.1270  0.1640 -0.3018
29856W        W36456  25.656   5.275   4.129  0.0014  0.4005 -0.0267
29857W        W36457  25.927   6.848  19.245 -0.1976  0.1475  0.0990
29858W        W36458  19.862   0.521   5.303  0.0574  0.2082  0.3172
29859W        W36459  11.785   6.576   8.867  0.2804  0.0331 -0.0702
29860W        W36460  24.248   0.450  16.296  0.0530  0.0713  0.4247
29861W        W36461  13.654   5.628   8.767 -0.1949 -0.0536  0.0834
29862W        W36462   1.877   7.279   8.169  0.3070  0.0493 -0.1385
29863W        W36463  17.631   4.211  23.971 -0.2357 -0.1139  0.1984
29864W        W36464  28.603   4.209  18.666 -0.2565  0.2993  0.0377
29865W        W36465   0.723   5.776   5.218  0.0515 -0.1041 -0.0810
29866W        W36466  17.981   1.633  19.839  0.4162 -0.1087  0.3581
29867W        W36467  26.088   5.696   2.269 -0.0657  0.1342 -0.2212
29868W        W36468  10.418   3.933   8.890  0.0620 -0.0550  0.0771
29869W        W36469  30.923   3.162  10.030  0.0769  0.0750  0.1056
29870W        W36470  22.598   2.691  11.066  0.2322 -0.0538 -0.0430
29871W        W36471  24.359   6.826  22.012 -0.0506 -0.2116  0.3183
29872W        W36472  29.200   5.848   1.773  0.2631 -0.0049 -0.0549
29873W        W36473  16.138   5.413   1.816  0.1039 -0.1732 -0.2072
29874W        W36474  23.646   1.229   7.353 -0.0425  0.1544 -0.4675
29875W        W36475   6.067   6.322  25.425  0.1890 -0.2846 -0.1209
29876W        W36476   7.021   2.693  20.016 -0.0873 -0.2398 -0.1316
29877W        W36477  30.414   3.331  21.399 -0.1534  0.1231  0.2154
29878W        W36478   9.107   3.684  25.734  0.3001  0.5138  0.1537
29879W        W36479  24.580   0.123  21.991  0.0201 -0.2095  0.0954
29880W        W36480  25.660   3.031  23.502  0.1295  0.1765  0.3504
29881W        W36481  24.826   6.482   8.701 -0.0025 -0.0412  0.0239
29882W        W36482  27.902   2.578   6.018  0.1368  0.3794  0.1146
29883W        W36483  25.843   0.228  15.170  0.3250 -0.0555  0.2906
29884W        W36484  20.225   1.367   5.105  0.0909  0.0236  0.2692
29885W        W36485  17.871   5.365  24.374  0.2095 -0.1352  0.2038
29886W        W36486   3.765   4.766  10.134  0.0085 -0.0777  0.0298
29887W        W36487  28.151   7.121   8.267 -0.2400  0.0550 -0.0805
29888W        W36488  12.407   3.723  18.003  0.4335  0.3321  0.1371
29889W        W36489  12.687   5.019  25.013  0.2553  0.2513 -0.1502
29890W        W36490  23.603   5.922   1.390 -0.1689  0.1311  0.0042
29891W        W36491  22.172   3.746  16.534  0.2064  0.1792 -0.0332
29892W        W36492   8.935   1.628  20.177 -0.0662 -0.2933 -0.1881
29893W        W36493   3.070   5.848  20.993 -0.2696 -0.2759  0.3464
29894W        W36494  13.815   6.987  20.873 -0.0439 -0.2891  0.0549
29895W        W36495  15.185   4.840  22.042  0.0316 -0.0388 -0.1263
29896W        W36496  13.396   7.195   5.874  0.2589 -0.4614  0.2296
29897W        W36497   2.425   0.027  24.547 -0.2445 -0.0684 -0.2586
29898W        W36498  21.068   4.688  20.166 -0.0744 -0.1236 -0.2782
29899W        W36499   1.186   1.027   8.365 -0.2805 -0.0550 -0.1896
29900W        W36500  20.498   7.759  16.330 -0.0472  0.1336  0.0196
29901W        W36501  27.880   6.239   3.222 -0.0028 -0.0404  0.3048
29902W        W36502   4.563   5.395  19.755  0.1825 -0.0598 -0.3961
29903W        W36503   9.741   5.732  18.863  0.1694  0.3866 -0.0516
29904W        W36504   4.093   4.978   3.832 -0.0834 -0.4678  0.1939
29905W        W36505  22.857   3.583  24.585 -0.0466 -0.0436  0.1080
29906W        W36506   8.268   0.669  26.033 -0.1383 -0.0632 -0.3242
29907W        W36507  29.209   2.818  16.356  0.2566  0.1627  0.1636
29908W        W36508   9.909   7.436  22.791  0.1239 -0.1712  0.2582
29909W        W36509  29.911   1.334   9.709  0.3461  0.1635  0.0900
29910W        W36510  28.508   2.919   2.716  0.0683  0.0838 -0.0099
29911W        W36511  22.233   2.230   1.533  0.0638 -0.0211  0.2330
29912W        W36512   4.249   0.097   0.060  0.4140  0.1297 -0.1682
29913W        W36513  19.298   7.763   1.910 -0.0160 -0.0241 -0.0680
29914W        W36514   1.024   0.459   4.183 -0.1377  0.1169 -0.0817
29915W        W36515  13.350   4.130   4.861  0.1780 -0.1884  0.1220
29916W        W36516  28.090   6.638   6.298  0.0384  0.0747 -0.1290
29917W        W36517  11.191   0.109   9.940 -0.4086  0.0191  0.1849
29918W        W36518  14.460   3.682  22.276 -0.0258  0.0187 -0.0246
29919W        W36519  17.086   7.528  19.505  0.1935 -0.1633 -0.1023
29920W        W36520  10.336   7.239  18.297  0.0956  0.1369 -0.0867
29921W        W36521  25.949   2.031   5.232  0.0474  0.0080  0.0297
29922W        W36522   8.168   2.302   6.052  0.0670 -0.0602  0.0887
29923W        W36523   9.646   1.967   3.904 -0.2175 -0.3992  0.0781
29924W        W36524  29.285   1.560  20.581  0.3351 -0.2753 -0.0030
29925W        W36525   4.124   7.072  14.258 -0.0665 -0.1647  0.2919
29926W        W36526  20.661   6.352  15.419  0.0245  0.1503  0.0741
29927W        W36527   1.172   3.550   1.584  0.0722  0.0684 -0.0282
29928W        W36528  15.630   0.600  21.272 -0.0315 -0.1077  0.2780
29929W        W36529  28.358   0.540   7.959 -0.0083  0.0652  0.0279
29930W        W36530  23.429   3.161  20.266 -0.1405 -0.1160  0.4847
29931W        W36531   5.372   5.526   2.656 -0.0767 -0.0138  0.1210
29932W        W36532   2.334   3.698  17.652  0.0602  0.0326 -0.1966
29933W        W36533  23.973   6.906   3.253  0.2758 -0.2956  0.2220
29934W        W36534  12.542   6.893   6.306  0.2669  0.0204 -0.0185
29935W        W36535  16.286   6.306   2.356 -0.4253 -0.2312 -0.0115
29936W        W36536  11.846   4.166   3.855  0.2372 -0.0783 -0.2443
29937W        W36537   1.538   5.794   8.675  0.1997  0.2868  0.0746
29938W        W36538  27.693   2.681   5.246  0.0007  0.1069  0.0490
29939W        W36539  16.260   1.437   0.122  0.0268 -0.0950  0.1108
29940W        W36540  15.360   1.329  25.674  0.3016 -0.0442  0.0619
29941W        W36541   6.268   5.009  17.726 -0.0601 -0.0827 -0.4356
29942W        W36542  22.611   4.736   2.411  0.1330 -0.0586 -0.0139
29943W        W36543  23.518   4.467  20.397 -0.2443 -0.0610 -0.1332
29944W        W36544  26.256   1.565  22.252  0.1230  0.0746 -0.0056
29945W        W36545  14.280   3.290  15.995 -0.2249  0.1143  0.0119
29946W        W36546  12.732   4.876  19.561  0.1566  0.3414  0.1753
29947W        W36547  28.729   0.653  14.852  0.2883 -0.1443 -0.2240
29948W        W36548  11.802   0.832  20.852  0.0654  0.1278  0.1074
29949W        W36549   7.807   0.600  14.303  0.3055  0.0974  0.1111
29950W        W36550   5.047   3.177  23.559  0.2298 -0.2533 -0.1298
29951W        W36551  22.567   1.658  15.455  0.0473 -0.3805 -0.2249
29952W        W36552  23.766   2.540  20.731  0.0613  0.1611  0.1150
29953W        W36553  16.995   4.564  22.097 -0.4533  0.2845 -0.1866
29954W        W36554   9.968   0.818   7.265 -0.0858 -0.0686  0.0603
29955W        W36555   2.485   1.473  20.496 -0.0345  0.5086  0.2203
29956W        W36556   2.618   1.464   5.371  0.0981  0.0490  0.3956
29957W        W36557   9.817   2.111   2.331 -0.0164 -0.1634 -0.0126
29958W        W36558   6.029   5.842  22.660  0.3580  0.3046  0.3259
29959W        W36559  20.688   1.482   2.014  0.1701  0.0546  0.4251
29960W        W36560   5.718   1.087   8.999  0.1457 -0.1899 -0.0051
29961W        W36561  19.284   4.827  22.532  0.3872  0.0785  0.1306
29962W        W36562  24.562   4.954  21.225 -0.2572 -0.0893  0.0047
29963W        W36563  11.260   3.194   5.099  0.1319  0.1396  0.0614
29964W        W36564   6.201   2.273  18.264  0.2485 -0.2712 -0.2583
29965W        W36565   5.293   0.623   1.497 -0.0303 -0.0409 -0.2030
29966W        W36566  28.427   7.511  10.032 -0.0459 -0.2330 -0.0365
29967W        W36567   8.629   2.022  16.763  0.1379 -0.3018  0.1306
29968W        W36568  18.151   5.570   4.218  0.0121  0.1386  0.2385
29969W        W36569  19.618   1.385  24.138  0.1289 -0.2639  0.0758
29970W        W36570  24.977   0.604  18.638  0.3648 -0.0393  0.0909
29971W        W36571   4.491   2.925   6.916  0.2603  0.2172 -0.1204
29972W        W36572   1.431   4.042  22.631  0.1014 -0.0759 -0.4621
29973W        W36573   8.101   5.000  16.323  0.4138 -0.1814 -0.0273
29974W        W36574  12.747   0.035  15.656  0.1310  0.0199 -0.1681
29975W        W36575  15.661   3.072  20.256  0.1227 -0.0532 -0.1974
29976W        W36576  19.582   1.325   7.559 -0.0437  0.0538  0.0013
29977W        W36577  10.648   0.700  25.024  0.3463 -0.1842  0.0888
29978W        W36578  12.649   5.692   2.078  0.0234 -0.0216  0.0033
29979W        W36579   7.330   4.674  19.150 -0.0273 -0.2422 -0.1152
29980W        W36580  25.185   1.272   9.265  0.0047  0.0248 -0.0695
29981W        W36581  24.873   6.266   8.242  0.0943 -0.0738 -0.2043
29982W        W36582   1.473   7.847  16.945  0.0241  0.3109  0.2427
29983W        W36583  30.506   5.216  15.686 -0.0009  0.0418  0.0564
29984W        W36584   8.274   4.434  17.580 -0.2483 -0.1691  0.0348
29985W        W36585   8.837   5.902  18.962 -0.2803  0.2623 -0.0632
29986W        W36586  31.158   1.875   1.392  0.0276 -0.1001  0.4144
29987W        W36587   3.495   1.991   4.143 -0.3317 -0.1536 -0.0312
29988W        W36588   0.276   5.524  18.090  0.0641  0.1475 -0.0070
29989W        W36589  30.667   1.620   5.538 -0.0825 -0.1117 -0.0864
29990W        W36590  12.430   3.892  23.811  0.0826 -0.0399  0.0739
29991W        W36591   1.112   4.654  23.610 -0.0113 -0.2052  0.0142
29992W        W36592  28.899   5.402   1.783 -0.3038  0.0526 -0.3465
29993W        W36593   0.853   5.068  16.253  0.1519 -0.1024 -0.0205
29994W        W36594  24.834   0.267   1.861 -0.0452 -0.3831  0.0985
29995W        W36595  22.163   5.392   1.642 -0.0542  0.0036 -0.0178
29996W        W36596  15.882   5.509  23.944 -0.2080 -0.1349  0.0469
29997W        W36597   5.313   7.589  16.848  0.0545 -0.1434  0.3348
29998W        W36598  11.548   6.936  23.709  0.2507  0.0278 -0.1714
29999W        W36599   7.503   2.713   8.464 -0.0180  0.0635  0.0313
30000W        W36600  12.285   2.415  26.074 -0.0244 -0.0161  0.3803
30001W        W36601  25.118   2.503   1.024  0.0354 -0.3092 -0.0944
30002W        W36602   5.168   1.955   6.010 -0.0389  0.1714  0.0488
30003W        W36603   4.500   6.694  23.136  0.0695 -0.0064 -0.2773
30004W        W36604   5.846   2.625   4.648 -0.1272 -0.1548  0.1486
30005W        W36605  25.233   0.664  24.788  0.2337 -0.0073  0.1806
30006W        W36606  14.372   3.292  23.383  0.1447  0.1617 -0.2738
30007W        W36607  20.549   1.988   7.796  0.1203 -0.1011  0.0527
30008W        W36608  27.646   3.908   9.559 -0.0431 -0.1791  0.0252
30009W        W36609  15.721   1.900  10.826 -0.2609 -0.2604  0.0253
30010W        W36610  19.006   5.627   0.492 -0.3758  0.2524 -0.1418
30011W        W36611   7.076   3.238  10.594 -0.0096 -0.2512 -0.2017
30012W        W36612  13.042   3.198  25.895  0.3618 -0.1957  0.0111
30013W        W36613   2.827   1.973  19.080 -0.1979 -0.0524  0.0950
30014W        W36614  27.500   2.951  14.733  0.3421 -0.1104  0.1183
30015W        W36615  26.674   2.472   0.063  0.2409  0.0320 -0.0270
30016W        W36616   1.131   0.546   0.866  0.2821 -0.1767  0.0806
30017W        W36617  14.816   3.985  26.074 -0.0470  0.0245 -0.0201
30018W        W36618  23.588   2.119   1.977 -0.0210 -0.0805 -0.4005
30019W        W36619  11.847   4.341   2.006  0.0595  0.0054  0.0065
30020W        W36620  14.519   2.441  21.030  0.0960 -0.2126  0.2602
30021W        W36621   2.813   0.507   2.608 -0.1771  0.1169  0.1534
30022W        W36622  26.840   0.292  24.692 -0.1520 -0.2374 -0.3682
30023W        W36623  26.822   2.715  21.372 -0.1312  0.0881 -0.2811
30024W        W36624  19.794   7.350  25.466  0.1570  0.0565  0.2319
30025W        W36625  25.215   1.296  10.885  0.0313 -0.2141 -0.1286
30026W        W36626   8.610   7.065  21.036 -0.1443  0.0093 -0.1379
30027W        W36627   8.609   4.962   0.248 -0.0676  0.1374  0.0434
30028W        W36628  29.351   0.831  20.960  0.1512  0.0220  0.2906
30029W        W36629  23.949   0.288   1.532 -0.0980  0.0732  0.0912
30030W        W36630   2.114   3.751   7.828  0.2127  0.1487 -0.0182
30031W        W36631   9.371   4.017  19.986  0.1597  0.1835 -0.1668
30032W        W36632  28.371   4.739   7.367  0.3961 -0.1355 -0.0039
30033W        W36633  29.426   1.093  15.838 -0.2122 -0.2487  0.3112
30034W        W36634   1.480   5.725   9.591 -0.0717  0.0824  0.1511
30035W        W36635  26.485   0.758  21.571  0.3833 -0.0442  0.1681
30036W        W36636  11.361   7.311   2.528 -0.1075  0.1229  0.0879
30037W        W36637   4.711   4.906  16.134  0.1075 -0.1908  0.1371
30038W        W36638  25.652   1.485  15.040 -0.3919 -0.1535  0.0446
30039W        W36639  24.059   6.389  19.392  0.0372 -0.1813 -0.1756
30040W        W36640   8.230   7.407   3.650 -0.0037  0.0170 -0.1486
30041W        W36641  28.712   5.562  24.551 -0.0678  0.0622 -0.0098
30042W        W36642  30.690   3.049  18.252  0.1771 -0.0308 -0.2788
30043W        W36643  12.651   4.986  10.320 -0.0464  0.2875 -0.1005
30044W        W36644  15.745   2.060   1.968  0.0584  0.1941 -0.0515
30045W        W36645   6.570   4.740  10.525 -0.1405  0.1708  0.1797
30046W        W36646  22.542   7.341  15.706  0.1220  0.2285 -0.0447
30047W        W36647  20.868   7.586  15.674  0.0722  0.0529 -0.2138
30048W        W36648  14.375   7.101  23.831 -0.2503 -0.2156 -0.2192
30049W        W36649   6.251   5.856  21.043 -0.2796 -0.1053 -0.1616
30050W        W36650   1.306   2.756  14.979  0.2293 -0.0693 -0.0979
30051W        W36651  19.503   4.519   9.443  0.2256 -0.2901  0.0720
30052W        W36652   3.864   4.270  19.762 -0.1484  0.2257 -0.1572
30053W        W36653  23.355   4.150   8.838  0.3393 -0.1610  0.2272
30054W        W36654  14.861   3.710  18.841  0.0061 -0.1902 -0.0517
30055W        W36655  18.306   4.461  19.486 -0.1098 -0.0353 -0.0403
30056W        W36656  14.808   2.581  25.739 -0.2804 -0.1605  0.1950
30057W        W36657  25.306   7.185  19.674  0.0613  0.1473  0.1209
30058W        W36658  30.357   5.674   2.070  0.4348 -0.0133 -0.0849
30059W        W36659  13.312   1.568   9.966  0.0714 -0.0900  0.1918
30060W        W36660  24.824   6.639   6.359 -0.1343 -0.1068 -0.2288
30061W        W36661  25.090   3.223  20.669  0.0119  0.1984  0.0290
30062W        W36662   7.379   6.519   7.598 -0.0143  0.3406 -0.2451
30063W        W36663  20.795   4.772  16.875 -0.2417 -0.2271 -0.0532
30064W        W36664  15.985   4.401  22.994 -0.1003 -0.1920  0.0748
30065W        W36665  22.204   0.377  20.771  0.1652 -0.1742  0.1914
30066W        W36666   2.653   6.843  26.010  0.0077  0.2563  0.1321
30067W        W36667   3.036   2.793  25.701  0.0624  0.1193 -0.1760
30068W        W36668  10.229   1.702  23.369  0.1942 -0.1839  0.2339
30069W        W36669  15.862   4.286  18.251  0.3061 -0.1131 -0.2911
30070W        W36670  26.345   7.038  15.340  0.0230  0.0332  0.4977
30071W        W36671   3.954   4.177   4.259 -0.4422  0.1602 -0.0206
30072W        W36672  10.365   2.949   1.761 -0.0060  0.0475  0.0625
30073W        W36673   8.017   3.305  22.500 -0.0213 -0.0897  0.0523
30074W        W36674  26.966   2.061  14.928 -0.0955  0.0104  0.3405
30075W        W36675  11.599   3.256  17.514  0.1935 -0.0332  0.0843
30076W        W36676  17.357   1.427  21.779  0.0381  0.0956  0.1458
30077W        W36677  19.682   4.008  10.543  0.0907  0.4365  0.0550
30078W        W36678  22.151   3.112  16.399 -0.0037 -0.1985  0.2060
30079W        W36679   4.910   1.083  25.189  0.1582  0.0819 -0.2730
30080W        W36680   4.403   2.721   5.702 -0.0736  0.1311  0.3769
30081W        W36681  13.424   3.934  19.719  0.0223  0.0831 -0.0342
30082W        W36682  16.273   3.947   6.764  0.2986 -0.0260 -0.2778
30083W        W36683  19.673   7.093  20.966  0.0894 -0.2409 -0.1249
30084W        W36684  12.786   4.380   1.606 -0.2659 -0.1612 -0.0164
30085W        W36685  18.848   4.252   2.513  0.1327 -0.0908 -0.0110
30086W        W36686  27.847   5.760   0.749  0.0512 -0.0675  0.0326
30087W        W36687   7.158   4.506   0.670  0.1492  0.1840  0.0891
30088W        W36688  21.198   2.070   1.673  0.1130 -0.2705  0.0630
30089W        W36689  31.436   0.721   7.108 -0.1401  0.3907 -0.0492
30090W        W36690  15.635   6.088  25.656  0.3078  0.2630 -0.1620
30091W        W36691   6.844   0.175  21.088 -0.2479 -0.0504  0.0022
30092W        W36692  17.684   4.534   2.589  0.1312  0.3020  0.3055
30093W        W36693  20.265   6.303   0.384 -0.2206 -0.2254  0.0212
30094W        W36694  10.224   4.728   7.059 -0.0793 -0.1558 -0.0112
30095W        W36695  12.731   1.518   6.195  0.2834 -0.1002 -0.0554
30096W        W36696   0.703   0.385   1.117 -0.1008 -0.2781  0.0061
30097W        W36697  16.795   3.389  22.144 -0.1042  0.1639  0.2839
30098W        W36698  13.742   0.912  17.232 -0.1776  0.2082 -0.0862
30099W        W36699   6.813   5.858   5.708  0.0635 -0.0464 -0.0074
30100W        W36700   7.819   4.374  21.417 -0.1095 -0.3338  0.0394
30101W        W36701   4.533   4.683  24.032  0.0919 -0.0759  0.1027
30102W        W36702  21.320   7.605  15.844 -0.2080  0.1315  0.2150
30103W        W36703   0.887   1.065   6.247  0.0374  0.1693 -0.2702
30104W        W36704  24.075   3.834  22.681  0.2055  0.0778  0.0122
30105W        W36705  20.663   3.814  18.990  0.1438  0.1668 -0.1212
30106W        W36706  27.775   4.069   6.073  0.0715 -0.3893  0.0664
30107W        W36707   4.913   2.339   6.279  0.4077 -0.1621  0.0896
30108W        W36708  21.160   2.720  16.684 -0.0579  0.0229 -0.2329
30109W        W36709  21.273   4.441  19.002  0.0530 -0.0501  0.0400
30110W        W36710   1.074   6.303  22.394 -0.2991 -0.1375  0.1711
30111W        W36711  28.753   6.458  21.838 -0.1233  0.0625 -0.2690
30112W        W36712   2.877   1.243  25.196 -0.0933 -0.4447  0.0166
30113W        W36713  19.921   4.539   5.208 -0.3499 -0.1501 -0.0149
30114W        W36714   9.459   7.469   3.350 -0.2442  0.0279 -0.0725
30115W        W36715  16.081   3.431  17.729 -0.0030 -0.0248 -0.0237
30116W        W36716   5.826   5.194  17.751  0.2046  0.2327 -0.1815
30117W        W36717   6.230   0.880   2.560 -0.1913  0.2316  0.0550
30118W        W36718  29.210   0.368   0.933  0.1631  0.1463  0.4190
30119W        W36719   6.138   1.926  16.289  0.1338 -0.2685 -0.0633
30120W        W36720  20.750   7.452   0.886 -0.1195 -0.1802 -0.1545
30121W        W36721   4.667   6.558   4.601  0.1344 -0.0013  0.2238
30122W        W36722   1.853   0.216   3.844 -0.0552  0.0726  0.3912
30123W        W36723  10.714   6.928  24.422  0.2837  0.3210  0.1548
30124W        W36724  28.627   1.988  18.668  0.1527  0.0619 -0.0250
30125W        W36725  27.142   5.843   6.989 -0.0771 -0.0437  0.0342
30126W        W36726  24.080   3.731   3.809 -0.2614  0.2553 -0.0404
30127W        W36727   2.898   4.758  23.880  0.0780 -0.1057  0.1879
30128W        W36728  19.097   0.086   7.873  0.0773 -0.1181 -0.1321
30129W        W36729  30.654   1.394   7.912  0.0389  0.4345  0.1531
30130W        W36730  27.772   1.645   5.058  0.2527  0.0288  0.1376
30131W        W36731  13.187   4.228   6.536  0.2016  0.0660 -0.1283
30132W        W36732  15.110   3.040   0.768 -0.0613 -0.1733  0.0804
30133W        W36733  29.436   4.600   3.857  0.1427  0.0460  0.2189
30134W        W36734   2.752   2.400   8.932  0.1203 -0.1970  0.0375
30135W        W36735   2.558   6.921   3.638 -0.0231  0.2247  0.2210
30136W        W36736   9.169   6.459   5.828  0.1630  0.1315 -0.0396
30137W        W36737  11.802   2.261  24.246 -0.3150 -0.0189  0.1721
30138W        W36738  23.810   4.434  11.400  0.2041 -0.2775 -0.2315
30139W        W36739  14.455   3.739   2.631  0.0617  0.2810  0.0985
30140W        W36740  19.734   4.332   6.230 -0.1128  0.1359  0.0312
30141W        W36741   0.912   5.690   2.309  0.4628 -0.3590 -0.1097
30142W        W36742  18.910   3.849   0.710 -0.4221 -0.0724 -0.0071
30143W        W36743   2.505   2.129  26.079 -0.1038  0.0004 -0.3068
30144W        W36744  22.596   6.447  16.575 -0.2184  0.0171 -0.1158
30145W        W36745  13.580   3.849  25.581  0.0944 -0.0277 -0.1940
30146W        W36746  11.765   5.579   7.130 -0.0134  0.1661  0.1401
30147W        W36747   9.645   2.758   3.719 -0.0836  0.3175 -0.0090
30148W        W36748   7.486   4.324  25.632  0.1098 -0.0682  0.2317
30149W        W36749   7.413   0.230   3.181 -0.2740  0.0579 -0.1920
30150W        W36750   8.259   2.493  16.749 -0.0414  0.2381  0.1362
30151W        W36751  11.163   2.493  21.103  0.1423  0.1861 -0.2771
30152W        W36752  21.699   0.973  21.088  0.2702  0.1662  0.1665
30153W        W36753   3.581   2.408  22.957  0.1790  0.1062 -0.1943
30154W        W36754  30.135   0.250  21.062 -0.2098 -0.0212 -0.1929
30155W        W36755  25.248   6.007   1.334 -0.2546  0.0931  0.3493
30156W        W36756   3.905   7.574   4.485 -0.0409  0.0818  0.2103
30157W        W36757  27.849   4.232  22.029 -0.1958  0.0064 -0.1216
30158W        W36758  11.360   6.579  10.727  0.1171 -0.1626  0.1283
30159W        W36759   7.372   1.817  23.177  0.0415 -0.1831  0.1625
30160W        W36760  30.964   5.785  25.045 -0.0105  0.1082 -0.0572
30161W        W36761  23.440   5.986  20.544  0.0981  0.0473 -0.0386
30162W        W36762  30.747   3.334   2.477 -0.0239 -0.0169 -0.0432
30163W        W36763  31.090   0.287   9.926  0.0887  0.0164 -0.1198
30164W        W36764   2.184   6.650  21.962  0.0225 -0.0585 -0.1167
30165W        W36765  26.812   4.126   0.152 -0.2577  0.0705  0.1271
30166W        W36766   2.913   6.141   6.780  0.2594  0.1228  0.1321
30167W        W36767   6.379   5.249   2.843  0.1244 -0.0432 -0.1219
30168W        W36768  23.080   7.626  21.506  0.2175 -0.0606 -0.0532
30169W        W36769   8.289   4.548   5.470 -0.1906  0.0463  0.1794
30170W        W36770  25.177   0.249  24.534  0.1793  0.2921  0.0526
30171W        W36771   8.616   2.592  24.504 -0.0068  0.2556  0.0228
30172W        W36772  14.756   5.340  23.446  0.2379  0.0684 -0.0605
30173W        W36773   2.942   5.707   3.434 -0.3956  0.0422  0.0089
30174W        W36774   3.309   7.654  15.337 -0.1215 -0.0792 -0.0618
30175W        W36775   2.593   6.450  21.772  0.1899  0.1935  0.2339
30176W        W36776  31.122   3.891  14.940 -0.2026 -0.1220  0.0088
30177W        W36777  17.991   6.827  19.205  0.0586 -0.0628 -0.0933
30178W        W36778  30.966   3.035   5.119 -0.2154  0.1450 -0.1621
30179W        W36779   9.849   4.805  19.268  0.1012 -0.0668 -0.0590
30180W        W36780   5.180   3.782   4.513  0.0180  0.0419 -0.1352
30181W        W36781  13.833   0.145   6.806 -0.1285  0.0007 -0.2458
30182W        W36782  11.787   0.083  10.878  0.0501 -0.0979  0.0996
30183W        W36783  21.250   3.463   9.796  0.1212  0.0258 -0.0666
30184W        W36784   1.116   4.001  24.775 -0.2131 -0.1274  0.1501
30185W        W36785   3.971   4.168   1.643  0.0790  0.2573 -0.2863
30186W        W36786  10.829   6.865   7.597  0.3199 -0.2730 -0.3031
30187W        W36787  10.767   1.131   5.401 -0.1393 -0.0836  0.1885
30188W        W36788   6.022   4.747  16.930 -0.0354  0.2019  0.0028
30189W        W36789  29.877   0.352  24.292  0.1684 -0.3460 -0.0598
30190W        W36790  10.094   3.335   4.249 -0.0514  0.0607 -0.3990
30191W        W36791  12.672   1.513  25.008  0.0839  0.0028  0.0653
30192W        W36792  29.979   2.877   5.933 -0.1253 -0.0847 -0.2487
30193W        W36793  10.677   0.469  25.992 -0.1082 -0.0245  0.1697
30194W        W36794  25.756   3.210  25.279 -0.1965  0.1159 -0.3760
30195W        W36795   6.422   3.568  19.172 -0.2691 -0.0579  0.0403
30196W        W36796  26.762   2.194   4.259  0.1064  0.0216 -0.1446
30197W        W36797   6.233   6.221   8.683  0.2156 -0.0751 -0.1217
30198W        W36798  11.396   2.253   3.697 -0.1571  0.0732  0.0495
30199W        W36799  24.446   7.686   5.444  0.2476  0.0499 -0.4003
30200W        W36800  13.511   2.889  19.346 -0.0691  0.1597 -0.2169
30201W        W36801  29.106   7.246   6.745  0.0803  0.2597  0.5428
30202W        W36802  24.714   3.108  24.688  0.1054 -0.0074 -0.1018
30203W        W36803  13.521   0.007  18.029 -0.1757 -0.0612  0.0272
30204W        W36804   2.720   6.692  22.263  0.0106  0.3131 -0.0039
30205W        W36805  13.185   6.224  10.800 -0.2544 -0.2530  0.0043
30206W        W36806  23.736   6.211  10.877 -0.0029 -0.1059 -0.3871
30207W        W36807  10.932   3.462   5.928  0.1609 -0.1007  0.2907
30208W        W36808  19.125   4.121   3.151 -0.2396 -0.1423  0.1376
30209W        W36809   2.508   1.435   7.890 -0.1331 -0.1573 -0.0152
30210W        W36810  31.392   6.121  20.088 -0.3293 -0.2088 -0.0386
30211W        W36811  22.787   1.361  22.110 -0.1391 -0.3661 -0.0943
30212W        W36812  29.369   7.162  20.126  0.2002 -0.0535  0.2073
30213W        W36813  17.582   0.971  10.750 -0.3093 -0.1774  0.3847
30214W        W36814  16.633   6.712  20.761  0.1089  0.1499 -0.0495
30215W        W36815   2.150   2.653  21.193 -0.0143 -0.1394  0.3309
30216W        W36816  27.310   0.140  22.171 -0.0943 -0.0302  0.2663
30217W        W36817   8.353   4.940  18.895 -0.2044 -0.4110 -0.1719
30218W        W36818  20.402   2.669  24.060  0.0445  0.0942  0.1800
30219W        W36819  23.482   6.963   1.240  0.0566 -0.0339  0.0694
30220W        W36820   3.720   4.069   7.045 -0.1884  0.1223 -0.2839
30221W        W36821  13.346   3.511   8.882 -0.0943 -0.0526 -0.0966
30222W        W36822  24.334   7.387   1.343  0.3566 -0.0845 -0.0384
30223W        W36823  27.503   5.028  25.719 -0.0802 -0.1624  0.1934
30224W        W36824   1.882   6.124  17.634  0.1555  0.0029 -0.1079
30225W        W36825  26.652   6.019   2.951  0.1467 -0.0243  0.2097
30226W        W36826  14.470   7.587  21.112  0.1572  0.1137  0.0245
30227W        W36827  19.437   2.069   3.263  0.1679 -0.1823  0.1235
30228W        W36828   5.510   6.900  26.009 -0.0481  0.1136  0.0639
30229W        W36829  31.078   7.275  20.112 -0.0216 -0.2242 -0.1902
30230W        W36830  13.091   6.989   5.419 -0.0539 -0.2188 -0.1778
30231W        W36831  16.005   4.139   9.665  0.0419 -0.1250  0.2525
30232W        W36832   1.044   1.505   8.316 -0.1970  0.1384  0.0084
30233W        W36833  24.138   3.923  15.001 -0.0399 -0.0341  0.0702
30234W        W36834   4.791   6.006  17.878 -0.0501 -0.0467  0.1305
30235W        W36835  11.285   6.657   1.500  0.1250  0.2396 -0.1239
30236W        W36836  28.753   7.137   0.038  0.4056 -0.2190 -0.2166
30237W        W36837  17.528   5.803  25.627 -0.0309 -0.1006  0.1788
30238W        W36838  29.739   6.049  19.012  0.0454 -0.1992 -0.0245
30239W        W36839  17.782   6.068  18.256 -0.1283 -0.1455  0.0759
30240W        W36840  22.151   1.161  15.351 -0.0753  0.2169 -0.4609
30241W        W36841  19.077   6.290   2.629 -0.1250 -0.2559 -0.0942
30242W        W36842  20.163   2.761   4.730  0.1556  0.4291 -0.2686
30243W        W36843  25.954   4.398  18.649  0.2655 -0.0368  0.0748
30244W        W36844  30.015   7.536  25.162 -0.0936 -0.2914  0.2911
30245W        W36845  18.783   7.798   4.876  0.0242 -0.1627 -0.1199
30246W        W36846   4.488   7.577  10.112  0.1088 -0.0769 -0.0503
30247W        W36847  23.372   3.557  15.481  0.0527 -0.1475  0.2315
30248W        W36848   5.246   6.092   7.314 -0.3030 -0.1022  0.0177
30249W        W36849  23.857   3.330   4.806  0.2098 -0.1861 -0.0242
30250W        W36850  24.711   7.179  19.765  0.3390  0.0784  0.1394
30251W        W36851  25.134   0.463   0.898 -0.3586 -0.1453  0.0669
30252W        W36852  30.916   2.882   6.579  0.2469 -0.2278 -0.3429
30253W        W36853   0.840   5.761  21.371  0.1876  0.3693  0.0483
30254W        W36854  29.581   1.459   9.357  0.2365  0.0361 -0.2473
30255W        W36855  21.023   5.604   1.736  0.1332  0.3418 -0.0946
30256W        W36856  23.292   3.798   4.980 -0.0435  0.2457 -0.4792
30257W        W36857  26.304   6.986   2.357 -0.0540  0.2611 -0.1695
30258W        W36858   1.446   4.300   3.246  0.1949  0.1521  0.1920
30259W        W36859   1.430   6.630  25.814 -0.3048 -0.0357  0.2598
30260W        W36860  12.139   2.507   5.355  0.0627  0.4320  0.0297
30261W        W36861   6.481   1.989  25.479  0.1329 -0.1924  0.1322
30262W        W36862  30.479   4.427  21.660 -0.2748  0.1419 -0.1114
30263W        W36863  15.488   2.712  10.311 -0.0388 -0.1651  0.0004
30264W        W36864  23.229   0.430  15.095 -0.2235 -0.1327 -0.1699
30265W        W36865  26.989   4.994  24.438 -0.2196  0.1765  0.0302
30266W        W36866  17.612   0.861   6.507  0.1564 -0.0997 -0.0168
30267W        W36867  14.738   7.269  19.193 -0.2259  0.0246 -0.2539
30268W        W36868   9.409   7.325  11.337 -0.2010 -0.1079  0.3727
30269W        W36869  13.519   6.080  10.293  0.0210 -0.2594  0.0473
30270W        W36870  21.663   7.767  22.972 -0.1178  0.2077  0.0670
30271W        W36871  21.503   0.716   4.756 -0.2054 -0.0149 -0.0522
30272W        W36872  24.626   6.486  17.723  0.1552 -0.2079  0.1082
30273W        W36873  30.570   2.670   8.094 -0.0364  0.1327  0.1867
30274W        W36874   7.030   6.633   2.156 -0.2978 -0.0623  0.0435
30275W        W36875   1.812   1.199   1.435  0.1683  0.1585 -0.3724
30276W        W36876  17.958   7.595  21.846 -0.0471 -0.1286  0.0071
30277W        W36877  10.991   2.728  25.065  0.1687  0.2662  0.1669
30278W        W36878  17.486   1.234   8.831 -0.0796  0.0344  0.1757
30279W        W36879  26.289   6.135  20.937  0.1497  0.0227  0.1910
30280W        W36880  13.234   2.324  21.894 -0.0674  0.1643 -0.0534
30281W        W36881  28.418   1.351   3.231 -0.0433 -0.0519  0.1697
30282W        W36882  25.371   7.348   9.187  0.1448  0.4515  0.2844
30283W        W36883  29.494   0.455  24.819  0.2898  0.1114 -0.1710
30284W        W36884  17.981   3.411  23.566  0.0467  0.3920  0.2295
30285W        W36885   6.289   7.570  19.264  0.2853 -0.1678  0.0402
30286W        W36886  13.930   3.336  15.077 -0.1476  0.1642  0.0069
30287W        W36887   7.983   1.156  15.675 -0.1214 -0.2246 -0.1115
30288W        W36888  18.439   1.779   5.832  0.0363  0.0649  0.0557
30289W        W36889  11.500   0.782  19.570  0.0474  0.0850  0.2426
30290W        W36890  21.685   0.915  16.697  0.2702  0.4286 -0.1899
30291W        W36891   9.666   3.165   1.439 -0.1452 -0.0929  0.1803
30292W        W36892  10.834   2.242  10.121 -0.1057 -0.1998  0.0294
30293W        W36893  30.627   1.483   8.689  0.0336 -0.2172  0.1267
30294W        W36894  24.345   4.559  10.307  0.4313 -0.0516  0.1748
30295W        W36895  25.787   4.996  18.024 -0.0885 -0.0940  0.1165
30296W        W36896  15.939   1.497  10.034 -0.2557  0.0329  0.0688
30297W        W36897   3.147   0.523  21.010  0.1833  0.0220 -0.1704
30298W        W36898   1.044   7.507  19.976  0.0778 -0.1667 -0.0477
30299W        W36899  25.353   1.213  24.368 -0.0983  0.0278 -0.1531
30300W        W36900  27.724   5.439  24.835 -0.0254  0.2884 -0.3395
30301W        W36901   3.337   7.541  20.018  0.0648 -0.0428 -0.0415
30302W        W36902  21.157   1.912  21.828 -0.1236  0.1416 -0.0417
30303W        W36903  25.092   2.214  18.715 -0.3020 -0.2941 -0.3006
30304W        W36904  25.114   6.674   9.021  0.0765 -0.1467 -0.0027
30305W        W36905   8.803   2.321  18.065  0.1079  0.0112 -0.0968
30306W        W36906  30.739   4.944  17.442  0.0671  0.0336 -0.1399
30307W        W36907  29.588   7.386   7.848 -0.0245 -0.0844  0.1089
30308W        W36908  22.215   5.601   2.767 -0.1101  0.1776 -0.0733
30309W        W36909   8.117   4.371   9.311  0.0775 -0.0391  0.1957
30310W        W36910  20.358   3.835   0.153  0.0037 -0.2609 -0.0299
30311W        W36911  13.587   5.486   1.015  0.2433  0.0245  0.1362
30312W        W36912   6.759   0.149  18.773  0.1438  0.2804  0.0685
30313W        W36913  16.603   5.661   3.984 -0.0052  0.1523  0.0778
30314W        W36914  26.570   7.801  16.678 -0.0885 -0.1599  0.2401
30315W        W36915  18.028   6.400  16.178  0.0767  0.0208 -0.2468
30316W        W36916  30.351   4.306  25.562 -0.0754 -0.1729 -0.0737
30317W        W36917  28.439   5.481  19.008 -0.0701 -0.0957 -0.0797
30318W        W36918  14.497   6.774  19.012  0.2560  0.0447  0.3948
30319W        W36919  10.252   4.396  10.482 -0.3419  0.2247 -0.1480
30320W        W36920  15.210   5.443  23.710  0.0731  0.2493  0.4298
30321W        W36921   5.518   6.557  16.926 -0.2871 -0.0683  0.2324
30322W        W36922  10.577   5.333  24.852  0.1595  0.0297 -0.0851
30323W        W36923  15.386   2.255   6.292  0.3383 -0.3300 -0.0902
30324W        W36924   3.430   3.263  23.064  0.3929  0.2130  0.0159
30325W        W36925   2.055   5.394   5.348 -0.1839 -0.0440  0.0559
30326W        W36926  13.806   2.313   4.478 -0.1055 -0.0063  0.3300
30327W        W36927  25.717   0.082   9.604  0.0321 -0.1514  0.3025
30328W        W36928  19.288   3.757  11.568  0.1794  0.0239 -0.0508
30329W        W36929   2.979   1.545   2.618 -0.0395  0.0575 -0.2045
30330W        W36930  20.361   6.884  19.129 -0.1339  0.0974  0.1798
30331W        W36931   2.996   3.604  17.380  0.0632  0.0357  0.0713
30332W        W36932   5.260   0.139   3.180 -0.0531  0.2412  0.0093
30333W        W36933   1.281   6.513   4.351  0.1613 -0.0902  0.0248
30334W        W36934  24.335   3.189   8.992 -0.0733 -0.1274  0.2138
30335W        W36935  13.153   7.527   5.569  0.1085 -0.1303 -0.1952
30336W        W36936   8.612   1.400   1.245 -0.0539 -0.1641  0.2988
30337W        W36937  24.510   7.790  20.962 -0.1783  0.0233 -0.1520
30338W        W36938  12.270   5.697   4.673 -0.1964  0.0979 -0.3196
30339W        W36939  18.133   1.202   5.373 -0.0014 -0.1212  0.0222
30340W        W36940  12.158   1.081   6.303  0.2469  0.1654 -0.0904
30341W        W36941  29.389   7.511  16.053 -0.0883 -0.3348  0.0469
30342W        W36942  11.296   2.945   3.876 -0.4949 -0.1983 -0.2119
30343W        W36943   9.836   0.952  22.379  0.2833 -0.0330  0.0540
30344W        W36944  20.719   6.232   1.215  0.1315  0.2489  0.3407
30345W        W36945  17.633   1.449   5.501 -0.0769  0.1589 -0.1827
30346W        W36946  10.884   2.902  25.914  0.2273 -0.0770  0.1199
30347W        W36947  31.124   1.798  16.983 -0.0708  0.0915 -0.3274
30348W        W36948  16.511   5.610   1.064 -0.1229 -0.1226  0.1013
30349W        W36949   9.396   7.720   3.796  0.0028  0.1403  0.0583
30350W        W36950  30.174   1.062   3.074 -0.1102 -0.1936  0.0968
30351W        W36951  20.308   2.428   9.742  0.2662 -0.1166 -0.0683
30352W        W36952  16.069   5.402  22.344 -0.5713  0.1957  0.3820
30353W        W36953  27.611   6.201  25.189  0.0476 -0.2561  0.0315
30354W        W36954  18.437   5.216   0.649 -0.0057 -0.1471 -0.1914
30355W        W36955  24.018   3.264   3.686 -0.0815 -0.3333 -0.0714
30356W        W36956  29.502   5.359  24.917 -0.1001  0.0740  0.0354
30357W        W36957  11.975   1.535   8.784 -0.0831 -0.4243  0.2863
30358W        W36958   3.827   0.382   8.569  0.0833  0.0662  0.0628
30359W        W36959   5.042   1.072   1.436 -0.0024  0.0543 -0.0553
30360W        W36960  12.431   2.776  24.915 -0.0765  0.0440  0.2773
30361W        W36961  31.419   0.952   0.987 -0.0730  0.0753 -0.2389
30362W        W36962   4.663   4.554   4.897 -0.2245  0.2379 -0.1256
30363W        W36963  25.639   1.466   0.480  0.0323 -0.0565 -0.1835
30364W        W36964   5.268   2.083  16.549  0.0427 -0.1171  0.0367
30365W        W36965  12.800   5.140  23.916  0.3091  0.2101  0.3232
30366W        W36966  20.988   1.079  10.617  0.0210 -0.3540 -0.0359
30367W        W36967  31.089   2.731  18.178 -0.1815  0.0543 -0.2289
30368W        W36968  31.118   3.393   9.602  0.1623  0.1697  0.1649
30369W        W36969  11.924   7.542   2.012 -0.1543 -0.0084 -0.2205
30370W        W36970  13.548   7.178  16.518  0.1449  0.1122  0.1118
30371W        W36971  14.572   5.805   8.228 -0.1512  0.0326  0.1989
30372W        W36972   9.619   1.428  20.805  0.0117 -0.1303  0.0447
30373W        W36973  29.882   6.120   1.194 -0.3469 -0.1666  0.0523
30374W        W36974   8.404   4.935   3.361  0.2315 -0.3025 -0.2600
30375W        W36975  20.502   0.798   9.349  0.0544  0.0249 -0.4594
30376W        W36976   9.424   0.699  22.086 -0.1112  0.0556  0.0637
30377W        W36977   8.266   4.729   7.218 -0.0442 -0.0983 -0.2192
30378W        W36978  22.349   0.330  17.335 -0.0974  0.0484  0.3900
30379W        W36979  22.505   2.082   0.067  0.1183  0.0230  0.0440
30380W        W36980   5.239   2.976  21.253 -0.0119  0.0188  0.0020
30381W        W36981   7.083   6.191  17.418  0.2190  0.3316  0.1493
30382W        W36982  18.364   3.066  19.341  0.1664 -0.0722  0.1483
30383W        W36983  25.746   7.665  16.822 -0.2368 -0.4459 -0.0141
30384W        W36984  20.054   2.044  17.134 -0.3037 -0.4438 -0.0287
30385W        W36985   7.940   6.086  20.418  0.0376 -0.4075  0.1175
30386W        W36986  25.034   7.054   9.384 -0.0665  0.0254  0.0918
30387W        W36987  14.210   1.115  22.631 -0.1040  0.0433 -0.2201
30388W        W36988   6.601   4.963  11.481 -0.1047  0.1220 -0.0907
30389W        W36989  10.082   1.964  23.799 -0.0233 -0.0131  0.0280
30390W        W36990  25.046   7.802  24.914 -0.2069  0.0717  0.1804
30391W        W36991  30.476   1.067  19.475 -0.0617  0.1887  0.0082
30392W        W36992   0.324   6.886   7.687  0.3363  0.0619  0.2134
30393W        W36993  23.645   4.364   0.555 -0.2170 -0.0421 -0.1892
30394W        W36994   8.641   0.752   4.070 -0.1898 -0.1268  0.2551
30395W        W36995  20.028   3.037   7.149  0.0552  0.1645 -0.0342
30396W        W36996   7.071   6.984   9.302 -0.0041  0.1212  0.0085
30397W        W36997  30.727   3.483  20.348 -0.0209  0.2625  0.3963
30398W        W36998  20.319   0.640   1.508 -0.0954  0.1080  0.1267
30399W        W36999  26.169   2.951  25.170 -0.1399  0.2127  0.0688
30400W        W37000   0.753   0.004   1.486 -0.1954  0.2570  0.1259
30401W        W37001  20.713   5.086  16.496  0.1349 -0.2141  0.0735
30402W        W37002  22.393   3.631   5.990  0.0410 -0.2161  0.0158
30403W        W37003  16.376   4.567  19.377 -0.0186  0.2377 -0.3282
30404W        W37004  11.001   2.090   0.298 -0.2528 -0.0266  0.2662
30405W        W37005   0.371   2.618  22.792 -0.2430  0.0078 -0.0873
30406W        W37006   5.134   7.109  22.565  0.2242  0.0206 -0.0092
30407W        W37007   4.392   3.933   3.936 -0.0849  0.2896  0.0527
30408W        W37008   1.448   0.289  19.305 -0.0098  0.0360 -0.0979
30409W        W37009  27.199   2.040  10.359 -0.1426 -0.0005 -0.0054
30410W        W37010   3.281   5.600   7.024  0.3397 -0.0673  0.2295
30411W        W37011  30.821   1.448  22.137 -0.0501  0.1910 -0.1959
30412W        W37012  21.540   3.141  21.505 -0.4928  0.2478  0.3100
30413W        W37013   1.292   1.490  23.348 -0.0780 -0.3299 -0.1980
30414W        W37014  27.530   4.149  23.712 -0.2242 -0.0975  0.0893
30415W        W37015  30.580   2.701  22.766  0.1991 -0.2731 -0.2384
30416W        W37016  28.492   4.868  16.993 -0.0146  0.1292 -0.2298
30417W        W37017   6.942   6.445  10.135 -0.0767  0.0653 -0.1764
30418W        W37018  20.544   4.012   0.612 -0.1919  0.0662 -0.0687
30419W        W37019   7.270   2.347   0.047  0.4513  0.0102  0.0074
30420W        W37020  26.834   3.845  16.674  0.2348 -0.0667  0.2070
30421W        W37021   2.469   2.303   6.794  0.1975  0.0679 -0.1257
30422W        W37022  16.981   0.186  19.648  0.0626 -0.0269 -0.0674
30423W        W37023  14.641   3.717  24.299 -0.0796  0.1333 -0.2466
30424W        W37024  13.518   7.043  19.822 -0.4164  0.0136  0.3582
30425W        W37025   4.785   2.051   6.836 -0.0989 -0.1439  0.1752
30426W        W37026  26.931   4.641  23.101 -0.0670  0.0448 -0.1348
30427W        W37027  27.051   0.588  22.257 -0.1282 -0.1240 -0.2896
30428W        W37028  13.617   0.047   4.147 -0.1626 -0.0164 -0.1888
30429W        W37029   3.179   6.408  22.203 -0.4231 -0.0759 -0.3121
30430W        W37030  24.521   3.973  25.803  0.0913  0.1018 -0.0830
30431W        W37031   7.026   5.799  23.543  0.2330  0.0397 -0.1348
30432W        W37032   3.931   5.807   5.666 -0.2555  0.1630 -0.0548
30433W        W37033  10.034   2.383  24.120 -0.3245  0.2220 -0.0967
30434W        W37034   3.722   4.483  15.361  0.0481  0.0557  0.2451
30435W        W37035  10.943   1.651   7.555 -0.3064  0.0739  0.2258
30436W        W37036   2.170   1.296   2.950 -0.1935 -0.1333  0.1624
30437W        W37037  17.287   4.414   3.251  0.0050 -0.1405  0.0105
30438W        W37038  11.347   5.608   0.202  0.2043  0.1476  0.0428
30439W        W37039  30.012   2.787  15.823  0.1568 -0.0673  0.2232
30440W        W37040   1.172   0.790   3.820  0.0313 -0.0714 -0.0365
30441W        W37041  15.332   1.351  17.687 -0.0127  0.0583  0.1150
30442W        W37042   1.603   3.490  25.151 -0.0129 -0.0438 -0.0959
30443W        W37043  11.876   4.316  22.566  0.1504  0.4143 -0.2076
30444W        W37044  28.729   4.376  26.067  0.2063  0.4149  0.0173
30445W        W37045   4.049   4.987   0.610 -0.0752  0.1583  0.2071
30446W        W37046  27.736   0.882  16.885 -0.0827  0.0437 -0.1040
30447W        W37047  16.569   1.383   2.301  0.2702 -0.3027  0.1068
30448W        W37048  15.133   7.617  18.297  0.0691  0.1136  0.2157
30449W        W37049  13.840   2.856  15.283  0.2349  0.4419 -0.0442
30450W        W37050  11.901   5.286   3.506 -0.4338  0.0937  0.0541
30451W        W37051  26.433   6.451  23.950  0.2597  0.1492 -0.0201
30452W        W37052   6.427   4.980  17.149  0.1291  0.0104  0.0259
30453W        W37053  20.978   4.445  25.911  0.2431  0.1686  0.1194
30454W        W37054  26.749   5.523  19.952  0.0567 -0.0327 -0.1291
30455W        W37055  16.098   6.846   3.015  0.0644 -0.1875  0.3403
30456W        W37056   5.714   0.004  16.731  0.1119  0.2071 -0.0409
30457W        W37057  27.228   3.603  23.533 -0.3505  0.0284 -0.0717
30458W        W37058   2.562   1.501  10.243  0.0755  0.1764 -0.2113
30459W        W37059  27.811   6.864   0.523  0.1101  0.0177  0.0048
30460W        W37060   0.308   5.428  23.212 -0.2004  0.0404 -0.0214
30461W        W37061  19.778   5.773  19.657  0.0906  0.2221 -0.2338
30462W        W37062   9.978   3.395  16.133  0.1796 -0.0267 -0.1120
30463W        W37063   8.304   2.346  16.264  0.0851  0.2903 -0.0285
30464W        W37064  29.168   3.498   2.892  0.3674 -0.0904 -0.0325
30465W        W37065  20.194   6.399   1.909 -0.0446 -0.0505 -0.1300
30466W        W37066  17.757   1.968   9.238 -0.0197  0.1919  0.3079
30467W        W37067   9.983   1.081   9.320  0.1936 -0.0688 -0.1224
30468W        W37068  25.104   1.664  18.973  0.0541 -0.1725 -0.0804
30469W        W37069  13.878   1.334   8.817 -0.1587 -0.1271  0.3165
30470W        W37070  14.512   5.605   4.679  0.0434 -0.2351 -0.2748
30471W        W37071  16.368   1.934   0.026 -0.0558 -0.0951  0.2037
30472W        W37072   5.779   4.294   9.562 -0.0665  0.3166  0.0807
30473W        W37073  13.990   2.952  22.408  0.1058  0.4242 -0.1085
30474W        W37074   0.233   5.004  16.939 -0.2458  0.0297 -0.0353
30475W        W37075  18.289   2.250  10.804  0.0710 -0.1176  0.1059
30476W        W37076  16.342   1.060  20.307  0.1331 -0.0870  0.0990
30477W        W37077   6.186   3.401  18.738 -0.2543  0.2030  0.0802
30478W        W37078  11.783   0.166   1.770  0.2334 -0.0101 -0.1286
30479W        W37079   5.322   3.516  20.385 -0.1425  0.1400  0.2275
30480W        W37080   2.200   7.067   3.333 -0.0935  0.0461  0.0967
30481W        W37081   4.220   5.112  18.181 -0.0313 -0.4246  0.2280
30482W        W37082  16.447   6.232  17.941 -0.3264  0.0865 -0.0863
30483W        W37083   4.120   4.489   9.293  0.1001  0.1904 -0.2834
30484W        W37084  23.612   2.851   2.518 -0.0863 -0.2937 -0.3172
30485W        W37085  22.020   2.531   7.865  0.1008 -0.0030 -0.0109
30486W        W37086  26.285   5.029  24.210 -0.3324  0.0809 -0.2378
30487W        W37087  24.286   1.400   0.926  0.1344 -0.3251  0.1209
30488W        W37088  17.644   2.386  10.240 -0.2069 -0.0596  0.2502
30489W        W37089   7.736   0.532  22.457 -0.0522 -0.1144  0.0337
30490W        W37090  16.332   1.984   8.493 -0.3135 -0.0343  0.0611
30491W        W37091  30.127   0.770  19.305 -0.1739 -0.1459 -0.1372
30492W        W37092   7.332   5.683  25.338 -0.0715 -0.2766 -0.1565
30493W        W37093   4.014   6.532  22.408  0.1865  0.0577  0.1361
30494W        W37094  22.665   1.478  17.499  0.0395  0.0394  0.0784
30495W        W37095   5.437   7.040  17.156 -0.3824  0.1880 -0.0087
30496W        W37096  20.052   2.474  15.015 -0.2663  0.0820  0.2664
30497W        W37097   7.206   4.646   7.623  0.2401  0.1702  0.0344
30498W        W37098   0.126   1.396  16.130 -0.3403 -0.2550 -0.3996
30499W        W37099  26.072   0.562  10.817  0.4900 -0.2230  0.1420
30500W        W37100  26.342   5.844  24.613 -0.1841  0.0183 -0.1904
30501W        W37101  14.035   6.081  20.215  0.0024  0.0508 -0.2258
30502W        W37102   2.201   6.029  19.204  0.2460 -0.0923  0.1573
30503W        W37103  20.349   1.002  17.046 -0.3661  0.0547  0.0197
30504W        W37104   8.733   6.213  10.296  0.0966 -0.0670 -0.0135
30505W        W37105  12.818   4.972   4.476  0.3714  0.1934  0.2070
30506W        W37106  12.725   4.521   0.845 -0.0198  0.1382  0.0292
30507W        W37107  19.381   0.992  10.224 -0.0074 -0.2137  0.1217
30508W        W37108  24.661   6.844   9.133 -0.1470  0.2233  0.0810
30509W        W37109   6.175   6.670   8.728  0.1136 -0.0656  0.1759
30510W        W37110   4.359   5.945  21.191  0.1543 -0.2355 -0.0303
30511W        W37111  15.630   0.357  16.947  0.0484  0.2666  0.1525
30512W        W37112  21.445   4.506  24.810  0.4147 -0.1075 -0.2500
30513W        W37113  30.695   1.079   3.713 -0.0494  0.0981  0.1010
30514W        W37114  24.732   4.267  17.279  0.1953 -0.0874  0.0092
30515W        W37115   4.894   0.165  17.076  0.0455 -0.2355  0.1107
30516W        W37116  19.406   2.787  18.630  0.1596  0.0167  0.1671
30517W        W37117  24.711   2.914   5.797 -0.1147 -0.2455 -0.1729
30518W        W37118  22.865   3.393  18.773  0.2439 -0.1818 -0.2467
30519W        W37119  11.951   5.237  11.020 -0.2736  0.0114  0.4758
30520W        W37120   0.388   4.017   1.519 -0.0348  0.0564 -0.3375
30521W        W37121  14.118   5.521   4.274 -0.0260  0.1229  0.0689
30522W        W37122  14.125   2.787  15.710 -0.2039 -0.1753 -0.2362
30523W        W37123  18.663   2.881  20.401 -0.1225  0.1139 -0.1289
30524W        W37124  21.796   0.560   1.125 -0.1142 -0.0718 -0.2465
30525W        W37125  23.503   1.348  24.366  0.1187 -0.1187  0.1657
30526W        W37126  11.691   6.583   3.927 -0.1149 -0.2466 -0.1238
30527W        W37127  13.056   3.065  18.134 -0.0912  0.1234  0.0588
30528W        W37128   7.953   6.951   6.141 -0.3720 -0.3360 -0.0232
30529W        W37129   2.248   1.002  24.599 -0.0377 -0.1060 -0.3426
30530W        W37130  14.880   7.020   6.968 -0.0623  0.2263  0.1454
30531W        W37131   4.522   2.830  16.949 -0.1632 -0.0794  0.3855
30532W        W37132   6.380   2.052  23.385 -0.1556  0.0702 -0.0394
30533W        W37133  16.054   2.805  24.508  0.1433 -0.3939  0.0087
30534W        W37134   0.423   0.924  15.199  0.1660 -0.3337 -0.0258
30535W        W37135   6.473   1.339   1.823 -0.0591 -0.2605 -0.0998
30536W        W37136  31.047   6.371   2.618  0.1163  0.2179  0.0545
30537W        W37137  25.068   7.125  18.773  0.0060  0.2286  0.0996
30538W        W37138  29.310   3.824   8.254  0.0447 -0.3142  0.0715
30539W        W37139  20.329   7.516   2.721  0.1358  0.1478 -0.1631
30540W        W37140   2.017   1.522  25.400  0.1046  0.1691 -0.0992
30541W        W37141  25.937   1.320   9.787  0.1052 -0.2218  0.1714
30542W        W37142  16.576   5.237   7.309 -0.0125 -0.0344  0.0743
30543W        W37143  19.173   1.333   9.677  0.3183 -0.0589  0.1299
30544W        W37144  22.852   4.834   1.978 -0.0405  0.2055 -0.0104
30545W        W37145  28.916   4.907  21.885 -0.0748 -0.1536  0.1517
30546W        W37146   7.836   3.329   5.036 -0.0512 -0.3325  0.1816
30547W        W37147   3.758   0.219  14.055 -0.2485 -0.4155  0.0412
30548W        W37148  30.582   0.432  23.714  0.1774 -0.0623 -0.0140
30549W        W37149  22.560   7.481  16.331  0.1054  0.1148  0.0033
30550W        W37150  12.171   6.994  24.852  0.0273 -0.0643 -0.3314
30551W        W37151  16.663   6.102   2.018  0.1174 -0.2081  0.1520
30552W        W37152   0.174   5.543   3.305  0.0774 -0.0409 -0.2093
30553W        W37153   7.212   3.078  16.883 -0.1704  0.5306 -0.2467
30554W        W37154  18.557   7.842  21.381 -0.1289  0.1756  0.1900
30555W        W37155  13.429   1.571  23.847 -0.0514 -0.2040 -0.0762
30556W        W37156  10.192   3.773   4.901 -0.0444 -0.0632 -0.0159
30557W        W37157   7.969   5.109   8.064  0.1769 -0.1535  0.0770
30558W        W37158  25.714   7.005  10.718 -0.1878  0.2016  0.3714
30559W        W37159  15.117   7.363   2.385 -0.2603 -0.0624  0.0704
30560W        W37160  11.591   3.149   9.145  0.3601  0.3725 -0.0046
30561W        W37161  20.118   5.512   8.275 -0.2076 -0.1303 -0.2415
30562W        W37162  25.672   1.385   1.608  0.0296  0.1618 -0.1499
30563W        W37163   2.320   4.987  21.077 -0.0069  0.1171  0.0190
30564W        W37164  19.560   7.310   8.456  0.0530  0.1637 -0.0554
30565W        W37165  26.199   4.450  25.628 -0.1745 -0.0921  0.0879
30566W        W37166   9.431   3.307   6.740  0.2716 -0.0796  0.3176
30567W        W37167  20.079   4.689  10.073  0.0188  0.2493  0.0726
30568W        W37168  30.605   0.338   5.866 -0.0219  0.0263  0.1804
30569W        W37169  10.769   1.928  11.107  0.2329 -0.0048 -0.0969
30570W        W37170   2.766   2.798   1.556 -0.0419 -0.0139  0.2592
30571W        W37171   8.240   3.623   4.638  0.3589 -0.1134  0.1214
30572W        W37172  30.705   5.980  24.655  0.2597  0.0167 -0.0580
30573W        W37173   3.890   5.644  25.849 -0.0545 -0.1602 -0.0544
30574W        W37174   4.666   7.231   4.204  0.1985 -0.0177  0.1625
30575W        W37175   6.797   1.334  22.431 -0.0103 -0.2339 -0.1820
30576W        W37176  24.170   6.686   1.767  0.3276 -0.0549  0.0823
30577W        W37177  25.806   4.740  19.926 -0.2037 -0.1224 -0.0390
30578W        W37178  26.852   6.546   1.481 -0.2579  0.0529 -0.2365
30579W        W37179  26.066   1.130   1.855 -0.1000  0.1431  0.1273
30580W        W37180  24.023   5.244   6.991 -0.1877 -0.0467 -0.0084
30581W        W37181   6.637   0.276  21.552  0.1800 -0.1597 -0.0695
30582W        W37182   2.185   7.644  24.995 -0.1799  0.2480 -0.2009
30583W        W37183  12.261   5.795   3.034 -0.1461  0.1581 -0.3555
30584W        W37184   0.818   1.744   4.324  0.1233  0.0067 -0.2927
30585W        W37185  11.038   6.046  17.886  0.0384  0.1951 -0.0375
30586W        W37186   5.003   3.679  25.762  0.1593  0.1435  0.1780
30587W        W37187  14.959   2.757  21.886  0.0637 -0.0344 -0.1799
30588W        W37188   1.675   3.514  22.540 -0.1772 -0.3085 -0.1097
30589W        W37189  25.484   0.354   1.238 -0.1374  0.0847 -0.0825
30590W        W37190  23.009   2.901   1.743 -0.0696  0.3426  0.1055
30591W        W37191   2.521   4.209  10.586 -0.3180  0.1090 -0.3020
30592W        W37192   9.306   6.456  25.204 -0.0448 -0.5473 -0.0988
30593W        W37193  23.814   4.354  22.940 -0.0312  0.1182  0.0864
30594W        W37194  27.514   2.279   5.999 -0.0332  0.1201  0.0177
30595W        W37195  19.781   3.864  16.422 -0.0304 -0.0644  0.2245
30596W        W37196  22.205   5.431  16.546  0.2507  0.1096 -0.0259
30597W        W37197  19.962   1.536   2.469  0.0051 -0.0197 -0.0199
30598W        W37198   6.500   1.024  25.300 -0.0769 -0.1155  0.1175
30599W        W37199  29.101   5.466   5.327  0.0050  0.1347 -0.2789
30600W        W37200   3.923   4.534   6.929 -0.0254 -0.1926 -0.0692
30601W        W37201  13.149   7.647   6.152  0.0591  0.0221 -0.0392
30602W        W37202  14.523   4.930  18.001  0.2684 -0.2176 -0.0252
30603W        W37203  22.051   6.766   4.562 -0.0711 -0.0721  0.0817
30604W        W37204  16.731   2.436  15.862  0.0692 -0.0936 -0.1958
30605W        W37205   9.941   0.934   4.543 -0.3637 -0.2613 -0.2786
30606W        W37206  19.609   2.626  23.335 -0.3505 -0.1528  0.2999
30607W        W37207  25.993   6.150   8.341  0.1979  0.0818  0.1961
30608W        W37208  18.183   0.398  20.292 -0.0166 -0.1281 -0.1601
30609W        W37209   1.333   6.935   5.159  0.0001  0.1025 -0.2803
30610W        W37210  29.569   4.786  25.676  0.0211  0.0164  0.1799
30611W        W37211   3.973   0.935  17.432  0.1760  0.1130 -0.1005
30612W        W37212   4.810   2.036  17.321 -0.1584 -0.0491  0.0556
30613W        W37213   3.000   2.867   2.471 -0.4356  0.3221  0.1882
30614W        W37214   6.177   7.244  10.663 -0.0888  0.1159 -0.0740
30615W        W37215   3.550   0.652  20.766  0.0073 -0.2756  0.0864
30616W        W37216  23.610   5.396   4.767 -0.1741  0.0257  0.1404
30617W        W37217  22.657   7.469  16.868 -0.2954  0.0241  0.0132
30618W        W37218   8.353   4.951   6.449  0.0280 -0.0744 -0.1980
30619W        W37219  10.140   3.945   0.738 -0.1588 -0.1918 -0.0476
30620W        W37220   9.405   6.853   0.639 -0.0632  0.5183 -0.0508
30621W        W37221  11.476   1.023   9.338 -0.3291  0.0747 -0.1459
30622W        W37222   3.796   5.356   5.874  0.0399  0.3715  0.1488
30623W        W37223  18.259   3.143  16.275 -0.0461  0.1109 -0.2715
30624W        W37224  24.306   2.728  23.802 -0.0222  0.1381  0.1551
30625W        W37225  29.156   2.082  24.276 -0.0283  0.0670 -0.4971
30626W        W37226   0.616   5.779  24.503  0.1723  0.2202  0.2479
30627W        W37227  17.161   6.244   2.035  0.0750 -0.0763 -0.2550
30628W        W37228  13.762   4.571  18.587  0.0376  0.0233 -0.2558
30629W        W37229  14.797   2.065  21.297 -0.0149 -0.1374  0.0282
30630W        W37230  11.704   5.921  15.162  0.5622 -0.0621 -0.0383
30631W        W37231  31.425   4.305  17.119 -0.2769  0.1396 -0.0034
30632W        W37232   6.680   5.949  16.123 -0.2300  0.4524  0.1484
30633W        W37233   9.721   7.728   8.930  0.2752 -0.0578  0.0969
30634W        W37234  10.369   3.096   5.132 -0.2178  0.1363 -0.2255
30635W        W37235  16.014   3.924   7.189  0.2973 -0.1997  0.1006
30636W        W37236  24.489   6.561   6.800  0.2073  0.1900 -0.1555
30637W        W37237  28.343   7.615  23.311  0.0786  0.0381  0.0062
30638W        W37238  27.317   2.242  22.927  0.1583  0.1967  0.2961
30639W        W37239  29.773   2.491  19.474 -0.1621  0.0095 -0.1549
30640W        W37240  22.527   2.590   9.329 -0.2123  0.0383 -0.0759
30641W        W37241   4.030   0.779  21.397 -0.1470 -0.1184  0.0812
30642W        W37242  24.180   2.596   5.643  0.0057 -0.1091 -0.0771
30643W        W37243  26.850   7.630   3.835 -0.3839  0.0206  0.0847
30644W        W37244  19.292   1.272  22.982 -0.0972 -0.3336 -0.1205
30645W        W37245   7.708   6.803   6.852 -0.0436 -0.0956 -0.0014
30646W        W37246  30.025   3.364  10.496 -0.1621  0.1500 -0.2428
30647W        W37247  24.809   1.001   8.992  0.0707 -0.0266  0.1813
30648W        W37248  22.597   7.259  21.466 -0.0981  0.1010 -0.0806
30649W        W37249   1.393   0.165  25.394  0.2462  0.3935 -0.0673
30650W        W37250  30.237   0.903   3.529  0.1004  0.1530 -0.0879
30651W        W37251   7.362   6.248  23.355  0.3661 -0.1099 -0.0381
30652W        W37252   2.845   5.254   2.489  0.3164  0.0744 -0.0841
30653W        W37253   0.424   0.464   6.696  0.1508  0.0563 -0.4615
30654W        W37254  19.472   5.048  20.848 -0.0980  0.1976 -0.0604
30655W        W37255   8.040   0.238  25.919  0.0765  0.0575  0.3558
30656W        W37256   0.371   5.990  10.521  0.1537  0.2207 -0.1840
30657W        W37257  24.379   3.327   6.139 -0.1098 -0.1757 -0.0082
30658W        W37258  21.281   2.507   6.533  0.0843 -0.1174 -0.2108
30659W        W37259  11.198   4.991   6.576  0.1266  0.0415 -0.3896
30660W        W37260  31.056   0.180  16.044  0.1674  0.3479  0.1305
30661W        W37261  19.984   2.631   3.885  0.0816 -0.2122  0.0668
30662W        W37262  17.575   7.809  17.195  0.3134  0.0541  0.1139
30663W        W37263   0.925   2.335  19.288 -0.2044  0.0027  0.0202
30664W        W37264  20.675   4.130   4.473  0.2988  0.0801 -0.0725
30665W        W37265  25.699   5.236  25.712 -0.1381 -0.0630 -0.0828
30666W        W37266  28.556   2.277  19.441  0.0673 -0.1097 -0.0491
30667W        W37267  28.269   4.717   2.218 -0.2560  0.1495 -0.2336
30668W        W37268  27.136   4.419  18.520  0.1549  0.1121  0.1051
30669W        W37269  22.102   3.335   4.413 -0.0774  0.0241 -0.0771
30670W        W37270   9.578   0.390   5.125 -0.0190  0.1036 -0.1330
30671W        W37271  14.910   3.730  16.945  0.3003  0.0273  0.0324
30672W        W37272   8.880   3.884  18.177  0.0218 -0.1703 -0.3099
30673W        W37273  19.332   2.450  24.345 -0.0813 -0.0152  0.0262
30674W        W37274  16.271   3.496   9.175 -0.0680 -0.0823  0.1384
30675W        W37275   1.633   6.017  15.954  0.0565 -0.0999  0.1744
30676W        W37276  24.993   6.296  25.473  0.4353 -0.1236  0.0683
30677W        W37277  25.252   3.959   1.162 -0.1285 -0.0444  0.2219
30678W        W37278   0.558   0.827  17.697 -0.0516 -0.0165 -0.2551
30679W        W37279  21.659   7.410  20.966  0.0440 -0.0954  0.0437
30680W        W37280  12.971   4.270  23.364 -0.3258  0.0008 -0.4086
30681W        W37281  28.415   1.609  23.651  0.0329  0.0436 -0.2238
30682W        W37282  24.379   2.578   8.105 -0.3976 -0.2676  0.0170
30683W        W37283  15.990   3.909  15.451 -0.0825 -0.0796  0.2297
30684W        W37284  23.241   5.455   9.547 -0.2476  0.1771 -0.1032
30685W        W37285   5.823   6.514  25.852 -0.1655 -0.3140 -0.2968
30686W        W37286  11.731   4.430  21.886  0.0448 -0.0287 -0.0259
30687W        W37287  14.439   4.378   8.337  0.0721 -0.2454 -0.1563
30688W        W37288  30.541   5.864   5.563  0.0543  0.0194 -0.2603
30689W        W37289   5.445   0.554  14.313 -0.0824  0.0978 -0.3577
30690W        W37290  18.643   0.699   5.518  0.1498  0.0880  0.0557
30691W        W37291  11.501   2.098   8.189  0.1866 -0.0293 -0.1452
30692W        W37292  24.542   2.275  24.416 -0.2075  0.1915 -0.0817
30693W        W37293   2.663   1.321  25.932  0.2211  0.1764 -0.0320
30694W        W37294  20.372   2.305   5.457 -0.1389  0.1895  0.4765
30695W        W37295  24.083   6.110  10.161 -0.2445 -0.0106 -0.1110
30696W        W37296   2.014   3.065  18.505 -0.2768  0.0375  0.3043
30697W        W37297  26.975   7.226  23.613 -0.0844 -0.2618 -0.2549
30698W        W37298  18.367   0.922  19.515 -0.2214  0.2365 -0.0377
30699W        W37299  10.479   3.459  25.192  0.0361  0.0207 -0.3404
30700W        W37300  12.668   4.832  11.085 -0.0039 -0.1948  0.0817
30701W        W37301  22.279   7.799  22.906 -0.0152 -0.2355 -0.2223
30702W        W37302   2.643   5.851   5.175 -0.0282 -0.1366 -0.1747
30703W        W37303  29.885   0.937  18.890 -0.4160 -0.1345  0.1051
30704W        W37304  14.564   2.046   2.609 -0.0364 -0.2350 -0.1251
30705W        W37305  29.396   4.685  16.841  0.2733  0.1463 -0.2647
30706W        W37306   6.250   5.398  17.373  0.2482  0.0960 -0.0322
30707W        W37307   0.952   5.114  19.242 -0.3304 -0.0504 -0.0131
30708W        W37308  25.574   2.030   5.552  0.1420  0.0767 -0.0010
30709W        W37309  10.377   5.373   4.555 -0.1621 -0.0491  0.1913
30710W        W37310  16.163   5.839   6.511  0.0039  0.2172 -0.0968
30711W        W37311  26.375   5.369   8.835  0.0287  0.3605 -0.1846
30712W        W37312  20.565   0.558  25.618  0.2689  0.2002 -0.0337
30713W        W37313  22.454   5.606  20.030  0.0511  0.1058  0.2036
30714W        W37314  23.726   3.918  19.680 -0.0592  0.1293 -0.1618
30715W        W37315  10.720   5.773  10.944  0.1741  0.2236  0.1680
30716W        W37316  26.101   1.813  15.906  0.2553 -0.1678  0.1068
30717W        W37317  29.589   1.579  15.785  0.4349 -0.1959 -0.0059
30718W        W37318  20.087   7.299   2.164  0.2002 -0.0208  0.0719
30719W        W37319  15.007   1.248  10.025  0.2125  0.0738 -0.4453
30720W        W37320  13.501   7.116  23.462  0.4156  0.1278 -0.0218
30721W        W37321  14.386   5.089  15.153 -0.0118  0.0476  0.2042
30722W        W37322  19.183   0.898  17.556  0.1646  0.0296 -0.0894
30723W        W37323   9.823   4.700   7.360  0.2365  0.1908 -0.1156
30724W        W37324  17.564   7.054   2.332 -0.1618  0.3510 -0.1483
30725W        W37325   3.487   7.858   5.949  0.2557 -0.0380  0.0697
30726W        W37326  13.192   5.873   8.831 -0.2677 -0.1804  0.4440
30727W        W37327  10.807   2.754   1.587 -0.1252  0.0757 -0.0611
30728W        W37328  21.986   5.723  20.879  0.0373  0.5557  0.4433
30729W        W37329  13.547   6.536  14.849 -0.1770 -0.1624  0.2996
30730W        W37330   0.238   2.804  21.408  0.0412  0.0606 -0.1151
30731W        W37331  11.273   5.203  26.076 -0.0986 -0.2026  0.1698
30732W        W37332  28.240   2.981  19.153 -0.0323  0.2661  0.2988
30733W        W37333  15.732   7.260  20.900 -0.3107 -0.0940 -0.0081
30734W        W37334  28.592   3.627   7.060  0.3832  0.2543  0.0486
30735W        W37335   9.017   3.520   1.120 -0.0432 -0.0425  0.0499
30736W        W37336  15.254   0.536   0.985 -0.0543 -0.0465  0.0508
30737W        W37337  17.190   4.240  21.675 -0.1501 -0.1116  0.0628
30738W        W37338   6.039   4.792  25.582 -0.1770 -0.1918 -0.2056
30739W        W37339  18.327   6.274  11.172 -0.1348  0.0374  0.1993
30740W        W37340  24.761   6.737  21.170  0.0165 -0.0859 -0.0965
30741W        W37341  18.212   5.324  23.973  0.1283 -0.1582  0.0683
30742W        W37342   2.241   7.169  21.339  0.1505  0.2155 -0.0953
30743W        W37343   8.588   5.190  18.070 -0.0510 -0.2693  0.0458
30744W        W37344  14.121   5.268   9.942  0.2697  0.1318  0.0702
30745W        W37345   3.919   3.458   1.079  0.1715 -0.0561 -0.0729
30746W        W37346   4.311   3.631   9.425  0.0879  0.0107  0.1591
30747W        W37347   2.829   4.502  22.874 -0.2334 -0.1826 -0.0264
30748W        W37348  29.707   6.666   1.770  0.2118 -0.0105 -0.1036
30749W        W37349  21.233   6.638  21.698 -0.3079  0.1684  0.1747
30750W        W37350  12.796   0.665  16.706 -0.2034  0.1354  0.1276
30751W        W37351  19.533   0.679   7.208  0.1508  0.2764  0.0155
30752W        W37352  15.516   3.232   6.338  0.2442  0.3450  0.0892
30753W        W37353  16.795   3.198   4.142 -0.2183 -0.0890 -0.0655
30754W        W37354   0.185   3.362   6.098 -0.0605 -0.0701 -0.0366
30755W        W37355  29.382   0.588  15.968  0.0829  0.2574  0.0848
30756W        W37356  28.497   3.826  15.386 -0.0137  0.2275 -0.0951
30757W        W37357  29.558   7.790   9.858  0.2402 -0.1908 -0.0636
30758W        W37358  15.773   4.023   8.740 -0.2178 -0.2595  0.1599
30759W        W37359  28.250   5.112  22.359  0.2018 -0.2242 -0.2167
30760W        W37360  29.669   1.440  24.403 -0.0252  0.0568  0.0168
30761W        W37361  29.908   4.502  21.911  0.4998  0.0730 -0.1226
30762W        W37362  18.629   1.636  23.403  0.0279  0.2848 -0.0216
30763W        W37363   9.941   1.684   5.645  0.1562  0.3713 -0.0106
30764W        W37364  24.764   2.261   8.771  0.1301  0.2119 -0.0422
30765W        W37365  13.626   6.558  22.212 -0.0701  0.2926  0.0070
30766W        W37366  18.293   2.056   7.852 -0.3466  0.3272  0.1637
30767W        W37367  11.172   6.785   6.259  0.0802  0.0041 -0.1909
30768W        W37368  22.557   2.569   1.732  0.1232 -0.2046  0.2988
30769W        W37369  22.600   4.929   1.178 -0.1583 -0.0013  0.1222
30770W        W37370  21.139   6.483   4.676  0.3280 -0.0065 -0.1434
30771W        W37371  29.943   7.075   1.983 -0.1516 -0.2572 -0.0162
30772W        W37372  22.438   2.131  21.083 -0.1862 -0.0356 -0.0791
30773W        W37373   3.020   6.099  10.494  0.1392  0.2356  0.2705
30774W        W37374  19.841   0.871  20.440  0.2033 -0.0174 -0.0852
30775W        W37375   7.082   2.922   6.240 -0.1003 -0.1461 -0.0573
30776W        W37376  30.099   4.575   6.109  0.2390 -0.0575  0.0387
30777W        W37377  29.614   2.172  23.506  0.0056  0.3823  0.0578
30778W        W37378  18.006   3.341   2.831  0.1817  0.0793 -0.1828
30779W        W37379  11.900   0.782  18.451 -0.2501  0.2722 -0.0041
30780W        W37380  22.193   6.664   9.366 -0.1684 -0.0409  0.0430
30781W        W37381   9.915   7.146  10.048  0.0384  0.1435  0.3646
30782W        W37382  22.642   3.586   8.886 -0.0321  0.1759  0.0766
30783W        W37383  24.537   1.437   5.078  0.2805  0.2526 -0.0278
30784W        W37384  17.120   4.286  23.405  0.0524 -0.0904  0.0378
30785W        W37385  15.417   0.934  15.624 -0.1786 -0.0933  0.1263
30786W        W37386   8.826   4.580   0.838 -0.1560 -0.0959  0.0681
30787W        W37387   1.081   4.687   8.954 -0.1693 -0.2625 -0.0593
30788W        W37388  11.245   4.356   6.111 -0.0486 -0.3904 -0.1755
30789W        W37389   8.005   1.532   1.196 -0.0127 -0.0793  0.4414
30790W        W37390  14.979   1.901   8.441  0.0848 -0.2700 -0.0655
30791W        W37391   6.169   7.561  15.815 -0.1498  0.0040 -0.0695
30792W        W37392  14.588   0.860  10.046  0.1866 -0.0846  0.2620
30793W        W37393  23.781   2.780  16.994 -0.0964  0.1116  0.3931
30794W        W37394  26.655   6.299   2.556  0.1307 -0.0598 -0.0319
30795W        W37395  28.547   3.459  24.279 -0.0109  0.1324  0.1204
30796W        W37396  19.327   1.923   1.370  0.1467 -0.0070 -0.0987
30797W        W37397  20.997   1.474   8.370 -0.0612 -0.1314  0.3187
30798W        W37398  14.464   2.830  17.290 -0.1604 -0.0749 -0.1058
30799W        W37399  30.172   0.856  17.993 -0.2174  0.0912  0.0409
30800W        W37400   3.123   7.005   9.893 -0.0424 -0.2396 -0.0830
30801W        W37401  13.106   5.934  18.589  0.0698 -0.1633  0.4190
30802W        W37402  16.579   5.940  24.664 -0.1364  0.3047  0.2697
30803W        W37403  14.156   7.254   4.006  0.2089  0.2024  0.0286
30804W        W37404  16.117   7.465   8.638 -0.1262 -0.1000  0.2553
30805W        W37405   0.167   0.575   8.380  0.1837 -0.0622  0.0492
30806W        W37406   8.530   4.558   5.936  0.3329  0.1226  0.0017
30807W        W37407  17.332   0.731  19.035 -0.1290 -0.4495  0.2062
30808W        W37408   6.866   7.791   4.399  0.1648  0.0269  0.4458
30809W        W37409  23.554   5.995  17.062  0.2223 -0.2329  0.0975
30810W        W37410  18.399   1.835   4.121 -0.4122  0.2336  0.1004
30811W        W37411   0.500   6.592  22.388 -0.0108 -0.0059  0.0544
30812W        W37412  15.587   4.042   5.804 -0.0720  0.0026 -0.0032
30813W        W37413  20.890   3.756   7.571  0.1718  0.1943 -0.0218
30814W        W37414   5.742   3.058   6.454 -0.1151  0.0687 -0.2139
30815W        W37415  24.275   0.892  17.866  0.1781  0.2261 -0.0849
30816W        W37416  15.049   1.543   7.530 -0.0311  0.0679  0.0776
30817W        W37417  29.517   6.471  15.647 -0.1537  0.2737  0.1150
30818W        W37418  14.383   5.062   6.548  0.3403 -0.2319  0.1839
30819W        W37419  12.283   2.281  22.987  0.0707 -0.1407  0.3231
30820W        W37420   5.908   4.676  19.546 -0.2861  0.0632 -0.0076
30821W        W37421  20.022   0.822   8.596 -0.1405 -0.3626 -0.2296
30822W        W37422  11.474   4.631   2.164 -0.1828 -0.2645 -0.1440
30823W        W37423  17.845   0.099  17.966 -0.1871  0.0911  0.0337
30824W        W37424  23.783   6.605   8.148 -0.0926  0.1822 -0.0388
30825W        W37425  24.969   0.820  22.562  0.0040 -0.2211  0.0368
30826W        W37426  13.737   1.017   1.669 -0.2368 -0.0056  0.2675
30827W        W37427  20.447   2.810  23.516 -0.0060  0.3511 -0.1411
30828W        W37428   0.183   3.781  20.276  0.0003  0.3154  0.0775
30829W        W37429  30.419   5.369  25.021  0.4233 -0.0244  0.3243
30830W        W37430   7.645   7.332  15.579  0.2062  0.3799 -0.0535
30831W        W37431   3.670   7.691  23.678  0.0348  0.2651  0.0649
30832W        W37432   0.785   0.647  17.221 -0.1294  0.0053 -0.1449
30833W        W37433   7.629   7.642   8.344  0.2138 -0.0525  0.1039
30834W        W37434   9.935   6.273   6.007 -0.0655  0.0923 -0.1026
30835W        W37435  23.864   2.439  24.655  0.0341 -0.0669  0.4366
30836W        W37436  17.119   0.429   5.963  0.2571  0.4443  0.2677
30837W        W37437  29.805   7.591  15.789 -0.1482  0.2740 -0.0541
30838W        W37438   8.577   6.115   3.494 -0.3168  0.0158 -0.1931
30839W        W37439  30.759   0.572   4.105 -0.0654 -0.1922 -0.0114
30840W        W37440  22.548   6.234  22.655  0.0563  0.2039  0.1292
30841W        W37441   4.629   6.378  20.999  0.0735  0.1684 -0.1081
30842W        W37442  27.508   0.535  19.455 -0.0667  0.1778  0.0890
30843W        W37443  24.154   0.650   3.624 -0.0484  0.1631 -0.0244
30844W        W37444  15.614   2.577   1.902  0.1111  0.1140 -0.2915
30845W        W37445  24.714   6.303   1.294  0.3199 -0.0144  0.0212
30846W        W37446  25.876   5.452  20.471  0.0553 -0.2761 -0.0104
30847W        W37447  12.665   1.341   0.454 -0.1687 -0.1055 -0.0088
30848W        W37448   6.420   2.054   2.999 -0.2213 -0.0858 -0.1805
30849W        W37449  15.996   2.956   6.490 -0.0850  0.1037  0.1014
30850W        W37450  12.381   2.842   7.565 -0.0483  0.1284 -0.2933
30851W        W37451   0.619   1.047  25.735  0.0890 -0.2192 -0.2934
30852W        W37452  27.565   3.821  10.495  0.2033 -0.0914  0.0563
30853W        W37453   1.648   4.540  25.842 -0.1717  0.1334 -0.2293
30854W        W37454  29.538   0.997   4.610 -0.0296 -0.1164 -0.2899
30855W        W37455  29.875   7.641  17.119  0.0350 -0.4497 -0.2014
30856W        W37456  18.435   3.773   0.794 -0.0308 -0.2751 -0.0562
30857W        W37457  30.226   2.444   5.335  0.0200 -0.0541  0.1051
30858W        W37458  11.974   7.535  23.622  0.3305 -0.0337 -0.1594
30859W        W37459  30.853   7.700   9.886 -0.0317 -0.2951 -0.1279
30860W        W37460  23.207   4.708   8.776 -0.2073  0.0451  0.1452
30861W        W37461   2.021   6.145  23.497  0.0329  0.1489 -0.2402
30862W        W37462  22.938   4.281  18.948 -0.5464  0.0342 -0.0876
30863W        W37463  13.471   3.803   2.630  0.2019 -0.1674  0.1083
30864W        W37464  31.274   1.891   6.320 -0.0751 -0.0267 -0.3263
30865W        W37465  12.857   1.062  17.991 -0.1936 -0.0402  0.0516
30866W        W37466   4.833   7.438  23.765 -0.0396  0.0380 -0.0605
30867W        W37467   0.480   3.559  20.706 -0.2264 -0.0086 -0.2372
30868W        W37468  16.324   5.682   9.596 -0.2833  0.1195  0.0069
30869W        W37469  17.370   0.053  17.637 -0.0092  0.2414  0.0726
30870W        W37470  23.870   2.319  21.301  0.1035 -0.1615  0.0575
30871W        W37471   2.418   1.054   8.244 -0.1320  0.0665  0.4071
30872W        W37472   7.545   6.916  15.855 -0.1545 -0.3037  0.3009
30873W        W37473   8.940   3.136  21.900  0.1852  0.2582  0.0364
30874W        W37474  16.889   7.718   4.293  0.2448 -0.0586  0.0560
30875W        W37475   8.638   2.131   6.899  0.1820  0.2126  0.2370
30876W        W37476  21.517   7.068  24.197  0.0929  0.1774 -0.0313
30877W        W37477  15.632   6.430  19.311  0.0510 -0.1073  0.0385
30878W        W37478  21.249   0.639  17.376  0.0711  0.0976 -0.2087
30879W        W37479  12.652   2.705   6.899  0.1764  0.4529  0.2653
30880W        W37480   9.297   2.896  17.662 -0.3631 -0.0631  0.1981
30881W        W37481  16.133   3.283  19.971  0.2124  0.3010 -0.0643
30882W        W37482  13.197   6.110  22.847  0.0507 -0.0607  0.0320
30883W        W37483   5.139   3.549   9.999 -0.1440  0.1809  0.2127
30884W        W37484   0.737   4.754  25.784 -0.1553 -0.0058 -0.1725
30885W        W37485   5.030   5.619  17.609 -0.0055  0.0626 -0.0089
30886W        W37486  12.994   7.063  22.799  0.2542 -0.0059  0.0807
30887W        W37487  13.408   2.441  11.199  0.2891 -0.3193 -0.1751
30888W        W37488   5.566   1.710  16.714  0.0257 -0.1608 -0.0338
30889W        W37489  20.248   6.806   6.737 -0.1016 -0.1842  0.0751
30890W        W37490  30.653   7.835   1.109  0.0658  0.4805  0.0744
30891W        W37491  29.523   4.783   9.399 -0.0374  0.1238 -0.0431
30892W        W37492  18.548   3.667   7.168  0.2224 -0.2385 -0.0421
30893W        W37493   3.893   6.856   6.822 -0.2259  0.0453 -0.1238
30894W        W37494  29.972   4.510  20.318  0.2983  0.2048  0.1707
30895W        W37495   9.639   6.682  10.072  0.3153  0.1447 -0.0992
30896W        W37496  11.112   7.793  17.876 -0.1828 -0.0077  0.1067
30897W        W37497  25.924   4.830   9.136  0.2307  0.0905  0.2045
30898W        W37498  24.556   3.444   3.607 -0.1942  0.0513 -0.0524
30899W        W37499   3.279   5.102  15.383  0.1154  0.0821  0.0271
30900W        W37500  15.791   2.007   6.400 -0.0738  0.3243  0.2577
30901W        W37501  21.184   1.356  15.861  0.1481 -0.1946 -0.0714
30902W        W37502  27.196   0.583  10.097 -0.1673  0.0692 -0.2399
30903W        W37503  25.141   2.405   7.332  0.0815  0.1682  0.0948
30904W        W37504  28.828   5.499  20.386 -0.1888 -0.0099  0.0928
30905W        W37505  21.799   6.684  25.096  0.1140  0.2571  0.1952
30906W        W37506  18.383   0.336   0.930 -0.0376 -0.0227  0.0550
30907W        W37507   9.914   7.049   0.366 -0.0666  0.0008 -0.2441
30908W        W37508  14.651   1.077   9.610  0.1443  0.0385 -0.1953
30909W        W37509  11.248   1.581   4.595  0.2859 -0.1436 -0.0739
30910W        W37510  13.041   5.445   7.175  0.2192 -0.1169  0.0057
30911W        W37511  22.213   1.326  17.361 -0.2162 -0.0207  0.0622
30912W        W37512   6.584   1.519   4.781  0.0249 -0.1850 -0.2460
30913W        W37513  13.543   3.969  19.254  0.3027  0.0594  0.0046
30914W        W37514   8.185   5.929  25.828 -0.0250  0.4027  0.0557
30915W        W37515  14.370   5.689   7.371  0.4922  0.2746 -0.0032
30916W        W37516   1.459   0.926   4.897 -0.1752  0.1827 -0.1178
30917W        W37517   8.657   6.992   8.166  0.0501 -0.3777  0.1670
30918W        W37518  15.048   5.272   9.535  0.1460 -0.1052  0.0527
30919W        W37519  22.547   0.942  23.578  0.1302  0.0277 -0.1315
30920W        W37520  11.559   6.172  22.016 -0.0781  0.0832 -0.4151
30921W        W37521  22.739   7.283   9.512 -0.1175 -0.0789 -0.2246
30922W        W37522  31.373   0.994  15.053  0.1367 -0.0455 -0.1709
30923W        W37523  15.738   3.943   6.758  0.3181 -0.1097 -0.2213
30924W        W37524  14.461   4.380   0.216  0.2364 -0.2401 -0.2796
30925W        W37525   5.003   4.899   7.112  0.0183  0.2637 -0.0130
30926W        W37526  24.960   6.240   6.646  0.1704  0.0876  0.1842
30927W        W37527   6.917   6.030   9.871 -0.0984  0.1718 -0.2730
30928W        W37528  21.786   4.825  23.794  0.0766 -0.4064  0.3424
30929W        W37529   6.037   2.689  14.798 -0.1955  0.0030 -0.1159
30930W        W37530  16.868   6.746  16.932  0.2542  0.3103 -0.2380
30931W        W37531  26.252   2.909   8.200 -0.2044 -0.2635  0.2513
30932W        W37532  14.949   6.452  23.526  0.1281 -0.0451 -0.1280
30933W        W37533  21.677   5.216  25.526  0.0644 -0.0066  0.1416
30934W        W37534  23.183   7.770  19.983  0.3947 -0.3120  0.1212
30935W        W37535   5.906   1.696  23.087 -0.2557 -0.1552 -0.1030
30936W        W37536   5.701   5.106   0.000 -0.5106  0.3250  0.2278
30937W        W37537   4.482   6.641  16.284  0.0324  0.1689 -0.0765
30938W        W37538   9.824   7.646  20.352 -0.0669 -0.1248  0.2611
30939W        W37539   3.190   4.607   4.452 -0.0230 -0.2154 -0.1184
30940W        W37540  28.776   6.971   0.638  0.2711  0.2784  0.0772
30941W        W37541  22.984   3.669  22.559 -0.0784 -0.3451 -0.0181
30942W        W37542  17.680   4.136   2.121  0.0390 -0.5447 -0.2052
30943W        W37543  21.461   3.698   4.328 -0.2922  0.3020 -0.2492
30944W        W37544  24.176   6.777   8.924 -0.0831  0.0537  0.1690
30945W        W37545  14.175   2.409  19.776 -0.1989  0.2160  0.2175
30946W        W37546   8.605   6.658  23.039  0.2539 -0.1148 -0.0058
30947W        W37547   5.474   3.446  14.999  0.2915  0.4078 -0.1849
30948W        W37548  12.321   0.513   4.403  0.0376 -0.2158 -0.0497
30949W        W37549  20.872   7.647  24.665 -0.1279  0.0458 -0.0952
30950W        W37550  23.872   6.589   2.373 -0.1446  0.1226  0.0314
30951W        W37551   8.987   2.869  23.325  0.0247 -0.0003  0.0140
30952W        W37552   7.334   4.300  25.123 -0.2570 -0.0029  0.0671
30953W        W37553   4.731   7.607  16.130 -0.0644  0.0752 -0.2798
30954W        W37554  16.762   1.940   4.124 -0.0700  0.0479 -0.0097
30955W        W37555   2.569   4.491  25.580 -0.0405 -0.4160  0.0677
30956W        W37556  18.794   3.821  22.195  0.4055 -0.0728  0.0883
30957W        W37557  15.457   3.133   5.090 -0.2540 -0.0376  0.4865
30958W        W37558   4.387   4.873  17.188 -0.0179  0.0290 -0.1050
30959W        W37559  20.960   0.458   5.018 -0.1522  0.0871 -0.1613
30960W        W37560   0.265   0.395  22.984  0.2211 -0.1102  0.0829
30961W        W37561  19.845   0.961   2.588 -0.0025  0.0206  0.3114
30962W        W37562  19.258   0.354   8.264  0.1323 -0.0528  0.3589
30963W        W37563  10.867   2.716   6.755 -0.2318 -0.0095 -0.0929
30964W        W37564  28.839   2.505   2.721 -0.3648  0.0634  0.4860
30965W        W37565  18.079   0.233  22.695  0.0044  0.0928  0.0167
30966W        W37566   1.342   5.296  22.920 -0.0892  0.0520 -0.1322
30967W        W37567   8.315   1.896   1.461 -0.1207  0.1109  0.1865
30968W        W37568   9.122   3.441  14.592  0.1439  0.1901 -0.1405
30969W        W37569  17.048   3.744  24.982 -0.2647 -0.3700 -0.1434
30970W        W37570  16.569   3.565   9.578  0.2509  0.0781 -0.0096
30971W        W37571   0.199   4.860   4.508  0.1574  0.0174  0.0617
30972W        W37572  21.832   1.432   8.975 -0.2401 -0.1548  0.0023
30973W        W37573  17.761   5.588   0.081  0.0569  0.0743 -0.3508
30974W        W37574  15.839   5.910   5.151 -0.0442 -0.0681  0.1833
30975W        W37575  12.068   7.120  18.838 -0.1845  0.1745 -0.0382
30976W        W37576   9.076   6.220   5.344  0.0548 -0.1686  0.1429
30977W        W37577  26.332   4.318  19.436 -0.4275  0.1388 -0.0198
30978W        W37578   8.760   2.838   7.703 -0.0042 -0.1386 -0.2861
30979W        W37579  24.188   1.444  23.194  0.1968 -0.1581 -0.1115
30980W        W37580  31.302   2.726  25.321  0.0895  0.5331  0.1501
30981W        W37581   3.466   1.903  21.954  0.1646 -0.0459 -0.2573
30982W        W37582  18.489   7.737  24.363 -0.1175  0.3192  0.0095
30983W        W37583  26.098   7.827  16.508  0.3293  0.0988  0.0857
30984W        W37584  28.418   7.763   7.379  0.0359  0.2497 -0.0248
30985W        W37585  14.581   4.269  20.720 -0.0112 -0.1056  0.0971
30986W        W37586  22.307   5.330   4.672 -0.2330  0.2600  0.0694
30987W        W37587  19.307   1.067   0.388 -0.0213 -0.0753 -0.0239
30988W        W37588  26.741   6.779   8.186 -0.4175  0.3361  0.2118
30989W        W37589  31.420   6.883  19.490  0.3862  0.0033  0.0394
30990W        W37590  19.025   0.399  23.481  0.0750 -0.1624  0.2158
30991W        W37591   8.772   1.999   8.267  0.0652  0.2000  0.2506
30992W        W37592  19.102   3.206   7.960 -0.1982  0.0634  0.1181
30993W        W37593   3.447   7.304   0.809  0.1869  0.3216  0.2396
30994W        W37594  25.612   7.500  18.194 -0.2899 -0.2093 -0.3211
30995W        W37595  22.636   0.305  23.552 -0.2004  0.1095 -0.0455
30996W        W37596   2.007   7.540  10.279 -0.1469  0.0692 -0.1311
30997W        W37597   9.001   5.770   0.776  0.3221  0.2923  0.2864
30998W        W37598  16.673   2.548   7.976  0.0128 -0.1755 -0.4309
30999W        W37599  11.218   3.246  23.333 -0.1023  0.5479  0.2437
31000W        W37600  17.234   4.707  24.967  0.3126  0.1190 -0.1092
31001W        W37601  17.070   1.373  20.100  0.1446 -0.0495 -0.3437
31002W        W37602   9.504   2.688  10.081  0.1239 -0.0993 -0.0087
31003W        W37603  26.078   3.091  22.133 -0.1038 -0.3215  0.1230
31004W        W37604  11.196   1.889   7.097  0.0407  0.0951 -0.1034
31005W        W37605   9.115   7.311  23.261  0.1191  0.0950 -0.0596
31006W        W37606  13.187   6.175   8.240 -0.0244 -0.2495 -0.0457
31007W        W37607  21.234   4.248  23.652 -0.0374  0.0455 -0.0657
31008W        W37608   8.385   6.597   2.466 -0.2075 -0.0102 -0.0509
31009W        W37609   3.632   3.997  25.838 -0.0652  0.2478 -0.4648
31010W        W37610  20.458   7.294   3.124 -0.0141  0.2986 -0.3517
31011W        W37611  20.362   4.546  24.198  0.1699  0.1585  0.3236
31012W        W37612  20.034   7.229   1.249  0.3654 -0.1750 -0.1807
31013W        W37613  11.372   0.699  20.505  0.3088  0.0884  0.0812
31014W        W37614  11.168   7.078   8.659 -0.2647  0.0769 -0.0044
31015W        W37615  26.700   5.311  18.530 -0.0845 -0.1676  0.2489
31016W        W37616  26.053   7.171   8.923 -0.1592  0.3187 -0.0770
31017W        W37617  21.872   4.957   3.330  0.3026 -0.2895 -0.0157
31018W        W37618   0.182   1.615  16.733 -0.1637 -0.0483 -0.2099
31019W        W37619   7.178   6.803  20.442 -0.3743 -0.1221 -0.0095
31020W        W37620   7.908   2.804  19.413 -0.0222 -0.0979  0.0408
31021W        W37621  18.940   6.050  19.993 -0.0669  0.0526 -0.0716
31022W        W37622  19.078   3.772  22.598 -0.0905 -0.0638  0.2093
31023W        W37623  23.613   5.094  24.514 -0.0305  0.0562 -0.0455
31024W        W37624  15.831   0.804   7.630  0.1008  0.1016 -0.0351
31025W        W37625   2.966   5.526  21.823 -0.2673 -0.0573 -0.0891
31026W        W37626   1.472   4.984  24.986  0.0079 -0.2073 -0.1186
31027W        W37627  29.691   0.553  22.389 -0.0054  0.0823 -0.0358
31028W        W37628  15.908   4.893   4.670  0.0095  0.0365 -0.2604
31029W        W37629  22.110   1.850  18.220 -0.1509  0.4522  0.4388
31030W        W37630   3.029   3.130   3.738  0.1736  0.0662  0.0815
31031W        W37631   1.339   3.340  15.896  0.1197 -0.1233  0.0799
31032W        W37632  21.422   2.161   4.305 -0.3375 -0.0341 -0.1462
31033W        W37633  12.689   5.561  10.988 -0.0982 -0.1801  0.1783
31034W        W37634   8.409   2.349   9.390 -0.0583  0.2128  0.0761
31035W        W37635  16.548   6.004   4.750 -0.2518  0.0462  0.1858
31036W        W37636  11.869   3.823  19.853 -0.1381  0.0378  0.0178
31037W        W37637  19.397   3.829  19.758 -0.1764 -0.0161  0.0987
31038W        W37638   4.668   1.046  19.134  0.1259  0.0208  0.0396
31039W        W37639   8.628   3.324   3.343 -0.0057 -0.0653 -0.2033
31040W        W37640   5.864   5.383   4.965  0.2941 -0.3102 -0.0251
31041W        W37641   6.097   3.163  10.599 -0.1355  0.0939  0.0720
31042W        W37642  11.825   5.968  18.464  0.1094 -0.0498  0.1648
31043W        W37643  27.592   7.186   9.730  0.1185 -0.1805 -0.0681
31044W        W37644  12.341   7.186   2.446  0.0661  0.1676 -0.0307
31045W        W37645  29.337   3.000   2.022 -0.1707 -0.0169  0.0452
31046W        W37646  17.576   3.360   6.829  0.0694  0.3169  0.2359
31047W        W37647  16.983   3.067  22.987 -0.0997  0.0482  0.1563
31048W        W37648   6.478   2.948   9.036  0.0022  0.1158 -0.1484
31049W        W37649  17.314   4.214   4.873  0.1424  0.1386  0.1494
31050W        W37650  30.977   7.813  18.428  0.0361  0.0158  0.2091
31051W        W37651  22.404   6.089  20.230 -0.1047  0.3560 -0.1834
31052W        W37652  27.744   5.761  21.947  0.0643 -0.1166 -0.0658
31053W        W37653  25.421   5.278  17.808 -0.0719 -0.1811  0.1126
31054W        W37654  28.458   3.336  20.338  0.1597  0.1673  0.0284
31055W        W37655   6.369   6.713  16.986 -0.3441  0.1856  0.2390
31056W        W37656   8.765   0.674   1.711  0.0978 -0.1621 -0.0751
31057W        W37657  17.748   5.102   0.499  0.1436 -0.2589 -0.0431
31058W        W37658   2.144   1.187   1.899  0.0720 -0.2957  0.2336
31059W        W37659   9.040   6.708  20.183  0.0570 -0.2048  0.3427
31060W        W37660   7.029   4.866   3.330  0.3278 -0.2423  0.1749
31061W        W37661  24.499   7.761  17.531  0.2996 -0.0636  0.0016
31062W        W37662  22.467   3.482   1.198 -0.0178 -0.0009  0.1128
31063W        W37663  29.242   1.736  22.669  0.1728 -0.1322 -0.0863
31064W        W37664  12.295   1.885   1.130  0.2172 -0.1031 -0.1118
31065W        W37665  22.996   6.901   3.160 -0.2064  0.4622 -0.1297
31066W        W37666  23.815   3.327  15.667  0.2663  0.1120  0.1795
31067W        W37667  20.380   7.397  19.114 -0.0588  0.2471 -0.0775
31068W        W37668  12.077   7.461   4.747 -0.0508 -0.2031  0.2257
31069W        W37669  25.938   0.817   8.678 -0.1002  0.1297 -0.2550
31070W        W37670  18.174   6.902  24.302  0.0273  0.0341 -0.0720
31071W        W37671  10.724   2.381   7.073  0.1569 -0.0664  0.1921
31072W        W37672  24.065   0.506   0.451  0.0890  0.0150  0.0531
31073W        W37673   3.963   7.405  24.876 -0.2664 -0.0663  0.1659
31074W        W37674  30.118   3.490  22.393 -0.1273  0.2171 -0.1582
31075W        W37675  25.755   0.795   7.568  0.0737 -0.3161 -0.2086
31076W        W37676   6.760   5.593  18.753 -0.2233 -0.0991 -0.0332
31077W        W37677   9.047   0.710   7.735  0.2959  0.1243  0.0277
31078W        W37678   2.699   1.178  23.340 -0.2822 -0.1261 -0.0191
31079W        W37679  25.676   5.280  22.998  0.4243  0.1909  0.0273
31080W        W37680  10.471   1.408  21.174 -0.3837  0.0452 -0.1630
31081W        W37681  18.154   5.163  11.954 -0.0915 -0.2344 -0.0803
31082W        W37682   2.763   3.904  17.947  0.3641 -0.3331  0.0714
31083W        W37683   4.905   2.612   5.624  0.1272  0.2473 -0.3312
31084W        W37684  28.317   1.812  20.992  0.1836  0.2628  0.0487
31085W        W37685   5.349   4.452   8.752 -0.1220  0.1515 -0.0839
31086W        W37686  18.292   6.710  21.989  0.1436  0.2169 -0.0360
31087W        W37687  12.606   5.565   7.589  0.2224 -0.1161 -0.0300
31088W        W37688  24.990   7.687  10.833  0.1923  0.2238  0.0197
31089W        W37689  18.876   4.650   2.777  0.4048  0.2444 -0.0096
31090W        W37690  15.502   5.065   2.431 -0.0822 -0.3330  0.2560
31091W        W37691   5.915   7.585  19.592  0.1940 -0.0398 -0.0059
31092W        W37692   2.939   4.083  15.343  0.0190 -0.0253 -0.0455
31093W        W37693  22.428   3.281   3.484  0.0677  0.1775  0.0968
31094W        W37694   6.694   5.274  19.866 -0.2294 -0.2560 -0.0057
31095W        W37695   4.786   4.418  21.341  0.2165 -0.2209  0.1072
31096W        W37696  16.857   3.077  21.781 -0.0827  0.0470 -0.0920
31097W        W37697  22.565   6.162   2.253 -0.0975  0.0394  0.0104
31098W        W37698   0.050   4.618  15.101 -0.0366 -0.1813 -0.4185
31099W        W37699  18.653   4.082  18.113 -0.2293 -0.0513 -0.1576
31100W        W37700  17.581   5.827  15.278 -0.2514  0.0240 -0.0545
31101W        W37701   2.255   4.654  23.494  0.3890  0.0694 -0.2301
31102W        W37702  11.723   7.022  21.023  0.4193 -0.2777 -0.1208
31103W        W37703   0.875   7.009  10.733 -0.2545  0.4929 -0.0062
31104W        W37704  20.388   5.596  21.381 -0.0221  0.0318 -0.1189
31105W        W37705   0.975   6.869  23.815 -0.1110 -0.2533  0.1302
31106W        W37706  25.268   5.841   4.430 -0.0015 -0.2186 -0.0867
31107W        W37707  29.534   5.027  15.397  0.2933  0.0841  0.4285
31108W        W37708  18.877   0.417  21.385 -0.1633  0.0341  0.0934
31109W        W37709  27.644   4.034   8.582  0.0116 -0.2279 -0.0073
31110W        W37710  28.628   0.793  16.905 -0.0154 -0.2895  0.0619
31111W        W37711  30.180   6.322   9.102  0.2822 -0.0891 -0.0894
31112W        W37712  27.611   3.533   1.511 -0.0972  0.1937 -0.3631
31113W        W37713   3.721   7.168   8.675  0.0192  0.1070  0.0246
31114W        W37714   1.205   0.141   7.675 -0.1738  0.1124  0.0443
31115W        W37715  20.974   2.940  17.118 -0.1268 -0.0126 -0.2603
31116W        W37716  28.980   0.973   4.433  0.0424 -0.0639 -0.1003
31117W        W37717  24.211   3.206  10.030  0.0192  0.0407  0.2749
31118W        W37718   5.508   7.183  22.127 -0.0485  0.0612 -0.0368
31119W        W37719  20.923   7.003   6.814 -0.1886 -0.0830 -0.2907
31120W        W37720   4.354   7.208   2.955 -0.3231  0.3024 -0.2176
31121W        W37721   6.836   5.172  25.985 -0.0642  0.0468  0.2347
31122W        W37722  23.738   2.708  20.191 -0.1038 -0.2578  0.2933
31123W        W37723   8.463   6.639  19.560  0.0354 -0.0891  0.2657
31124W        W37724  26.246   0.961  24.033  0.0121  0.1516  0.0720
31125W        W37725  27.554   2.534   0.600  0.1727  0.0707  0.0443
31126W        W37726  19.266   0.127   2.954  0.3561  0.0444  0.0049
31127W        W37727  20.789   5.035   8.540 -0.1695  0.0396  0.0848
31128W        W37728  25.908   3.423   9.032  0.0678  0.3353  0.0404
31129W        W37729   9.128   1.535   1.387 -0.0652 -0.0767  0.1298
31130W        W37730  27.291   2.409   7.638 -0.0232 -0.0545 -0.0082
31131W        W37731  13.828   2.308  17.157  0.1575 -0.0985 -0.1382
31132W        W37732  29.790   7.660   7.497 -0.4970  0.1065  0.0607
31133W        W37733  30.042   3.266  24.122 -0.2593 -0.0938 -0.4343
31134W        W37734  15.614   6.273   8.275  0.1422 -0.0273  0.0680
31135W        W37735  16.631   2.193   7.019  0.0090  0.1526  0.3082
31136W        W37736  24.427   2.124  18.771  0.1012 -0.1455  0.0073
31137W        W37737   7.713   0.480   0.171 -0.1227 -0.0498  0.2378
31138W        W37738  26.384   6.570  19.983  0.2009 -0.3097 -0.0824
31139W        W37739   6.568   1.564  21.941 -0.0325 -0.3173  0.2929
31140W        W37740  27.428   0.944  20.985  0.0057  0.0030  0.0068
31141W        W37741  11.801   6.283  10.173  0.4040  0.1823 -0.1005
31142W        W37742  16.926   3.481  17.354  0.0885  0.1084  0.2967
31143W        W37743   6.411   4.393   6.565 -0.1926 -0.1193  0.1453
31144W        W37744   0.536   0.159  16.222  0.2495 -0.1752  0.1258
31145W        W37745  12.847   2.126   6.265 -0.0458  0.0321 -0.0472
31146W        W37746  22.824   6.331  23.112  0.0417 -0.0409  0.0206
31147W        W37747   6.985   2.930  19.600 -0.0500 -0.1906 -0.1551
31148W        W37748  20.871   4.378  17.361  0.0677  0.2347  0.2544
31149W        W37749   6.217   0.167  18.849 -0.1099  0.0884  0.1012
31150W        W37750  30.571   1.606   6.030  0.1240  0.2114  0.1517
31151W        W37751   9.427   7.302  18.118 -0.0568  0.3311  0.1162
31152W        W37752  30.282   1.940   4.074 -0.3770  0.3293 -0.1145
31153W        W37753   0.139   0.621   0.320  0.1412 -0.0916 -0.1415
31154W        W37754   4.185   3.324   6.528 -0.0733  0.0203 -0.1872
31155W        W37755  22.728   5.906   8.318  0.1105  0.1339  0.2207
31156W        W37756  21.302   7.179  16.712 -0.0557  0.1430  0.2801
31157W        W37757   7.768   0.629  23.531  0.2078  0.2703  0.1017
31158W        W37758  22.149   6.545  10.256  0.1850 -0.2283  0.2220
31159W        W37759   0.233   3.179  20.943  0.2885  0.1486  0.1500
31160W        W37760  15.124   5.209   3.424  0.1280 -0.3005  0.0661
31161W        W37761  14.336   3.830  18.766 -0.0601 -0.3802  0.2378
31162W        W37762  16.396   4.062  25.869  0.0311 -0.0230 -0.1952
31163W        W37763   9.875   0.150   1.800  0.0697  0.0529 -0.0156
31164W        W37764   8.375   4.307  10.210 -0.0231 -0.1446 -0.2514
31165W        W37765  25.907   1.338   8.799 -0.0035  0.0752 -0.2637
31166W        W37766  21.126   0.295  21.633 -0.0905  0.2938  0.0213
31167W        W37767   0.611   0.763  19.964 -0.1391  0.2354 -0.0514
31168W        W37768   0.381   7.397   8.486 -0.4369 -0.0871  0.0167
31169W        W37769  14.002   7.722   6.369 -0.2692  0.0344  0.0865
31170W        W37770   3.161   6.283  14.533 -0.0986 -0.1158 -0.1103
31171W        W37771  16.105   1.060  18.452  0.1540  0.3491  0.0619
31172W        W37772  21.441   4.057   2.546  0.0530 -0.1124  0.0571
31173W        W37773  28.375   3.730   7.860 -0.2740 -0.0405 -0.0464
31174W        W37774   5.793   7.328  26.071 -0.1580 -0.1659  0.1390
31175W        W37775   1.119   3.972  14.651 -0.0900  0.4749  0.1940
31176W        W37776  26.049   4.493   4.997  0.1664 -0.2135  0.4187
31177W        W37777  15.679   6.143  22.696 -0.1779  0.0305  0.1062
31178W        W37778   2.674   0.818   8.612 -0.1660  0.0916 -0.1641
31179W        W37779  28.550   2.365   6.630  0.5164  0.1137  0.1848
31180W        W37780   4.029   5.978  14.754 -0.1060  0.1071  0.1546
31181W        W37781   9.898   6.176  24.143 -0.2099  0.1250 -0.2097
31182W        W37782  22.584   7.490   0.453  0.1528  0.0894 -0.1013
31183W        W37783  25.788   4.904  18.511 -0.2311  0.1411  0.1741
31184W        W37784  14.582   7.328   5.854 -0.2728  0.0128 -0.0486
31185W        W37785  24.246   3.588   2.626 -0.0916 -0.0637 -0.2554
31186W        W37786  23.627   1.852  19.924  0.1187  0.1949 -0.1769
31187W        W37787   0.800   1.816  15.815 -0.1628 -0.2932  0.1008
31188W        W37788   6.980   2.644  21.442 -0.2853  0.1772 -0.1852
31189W        W37789   8.388   4.129   4.910 -0.1956 -0.0517 -0.4940
31190W        W37790   9.633   7.084   6.886 -0.0069 -0.2535 -0.1494
31191W        W37791  11.592   6.720   8.429  0.3130  0.1838 -0.0155
31192W        W37792  23.342   2.996  21.775 -0.0565 -0.4268 -0.1873
31193W        W37793  22.672   4.029   6.162  0.0913 -0.0694  0.0840
31194W        W37794  13.278   5.791   0.467  0.1764 -0.0810 -0.1946
31195W        W37795   4.189   4.058   8.539 -0.0129  0.0854  0.0502
31196W        W37796  29.746   0.702   5.864 -0.0946  0.0577  0.5983
31197W        W37797   4.307   2.111  16.371  0.1866  0.1317  0.0608
31198W        W37798  28.150   0.541   0.687 -0.2874 -0.0258  0.1087
31199W        W37799   8.287   4.451   3.393  0.2550 -0.2272  0.1251
31200W        W37800   9.978   3.073   2.047 -0.4075 -0.3925 -0.0656
31201W        W37801  18.613   2.012   7.220 -0.0616 -0.2132 -0.0158
31202W        W37802   7.094   6.157   7.667  0.1923  0.2744  0.1405
31203W        W37803   9.761   0.138   3.552  0.2703  0.0284 -0.0650
31204W        W37804  25.151   1.198  21.243 -0.0007 -0.0677  0.0094
31205W        W37805  20.182   2.295  24.884  0.4819 -0.0711  0.0548
31206W        W37806  11.215   4.585   5.693 -0.0670  0.0032  0.1325
31207W        W37807  11.231   6.460   8.785 -0.3649 -0.1967  0.0305
31208W        W37808  30.919   3.009  22.495  0.0077 -0.0466 -0.1325
31209W        W37809  13.714   3.774  24.593  0.2751  0.0232  0.0776
31210W        W37810  19.779   1.592  17.075 -0.3083  0.1462 -0.1605
31211W        W37811  23.900   4.132  17.663 -0.1303 -0.1255 -0.1186
31212W        W37812  10.877   6.656  17.084 -0.0979  0.1293  0.2295
31213W        W37813  29.096   1.958  15.346  0.0289 -0.2503 -0.1878
31214W        W37814   6.520   5.775   2.702  0.0354  0.1893 -0.0234
31215W        W37815  11.679   2.852   1.372  0.0209 -0.2171  0.0183
31216W        W37816  26.475   3.593   2.466 -0.0687  0.0271 -0.3315
31217W        W37817  14.142   4.640  18.246 -0.2935  0.0416 -0.1161
31218W        W37818  20.325   2.687   4.269 -0.0967 -0.1955 -0.0258
31219W        W37819  31.236   5.035  17.464 -0.2403  0.0801  0.2490
31220W        W37820  18.094   6.257  22.103  0.2670 -0.0134 -0.0237
31221W        W37821  31.082   3.006   2.203  0.3054  0.0474  0.0691
31222W        W37822  14.092   5.995  18.766  0.1984  0.1132 -0.0028
31223W        W37823   5.608   1.007  25.087  0.1776  0.0916 -0.0447
31224W        W37824   7.328   6.336  22.786  0.0419  0.0704 -0.0310
31225W        W37825  23.675   2.599  23.189  0.0829  0.0235  0.0240
31226W        W37826  27.263   3.679   6.395  0.1103  0.0060 -0.3061
31227W        W37827  27.946   2.842  21.579 -0.3153  0.0286  0.0393
31228W        W37828  19.478   6.663  11.627  0.1295 -0.0300 -0.5262
31229W        W37829  27.125   3.153  19.741  0.1582  0.1580 -0.3023
31230W        W37830  31.031   0.250  20.740  0.1267 -0.0070  0.1498
31231W        W37831   2.510   2.125  15.761 -0.0771  0.2636  0.1930
31232W        W37832   2.472   4.542   1.738 -0.0825 -0.2165  0.1286
31233W        W37833   6.495   7.120  21.982  0.0413  0.0279  0.1627
31234W        W37834  25.514   6.834  23.891 -0.0801 -0.0293 -0.1854
31235W        W37835   7.241   6.998  19.563  0.4299  0.0368  0.1420
31236W        W37836  23.429   5.188   6.048 -0.0448  0.0879 -0.0761
31237W        W37837   1.447   0.324   1.195 -0.2461  0.2395  0.2906
31238W        W37838  15.592   3.281   3.706 -0.0733  0.1174 -0.2201
31239W        W37839  29.004   2.499  21.419 -0.0234  0.1563  0.2093
31240W        W37840   6.794   3.864   9.557 -0.2269  0.2292  0.3132
31241W        W37841  23.687   3.442  23.879 -0.0031  0.1665 -0.0009
31242W        W37842  22.931   2.256   4.077  0.1665 -0.2573  0.0725
31243W        W37843   5.324   4.450  20.704  0.0716 -0.0466 -0.2595
31244W        W37844   3.055   7.589  19.113 -0.0634  0.0897  0.0863
31245W        W37845  30.114   5.243  22.098  0.1088  0.3619 -0.0183
31246W        W37846  15.782   4.826   5.825  0.2309  0.0701 -0.1173
31247W        W37847  20.598   3.696  17.668 -0.0687  0.1188 -0.2082
31248W        W37848  12.893   6.788   4.534 -0.2241 -0.2521  0.3471
31249W        W37849  17.830   7.750  25.939 -0.0969 -0.2718  0.3302
31250W        W37850  15.103   6.213  24.716 -0.0256 -0.0686 -0.1553
31251W        W37851  25.701   6.008  25.135 -0.1120  0.3190 -0.1370
31252W        W37852  27.880   4.185   8.149 -0.1317  0.0775 -0.0764
31253W        W37853   0.184   3.213  25.111 -0.0764  0.4721 -0.1870
31254W        W37854   7.898   4.305  10.431 -0.1629  0.0095  0.3152
31255W        W37855  26.483   0.161  22.836  0.3849 -0.0089  0.0124
31256W        W37856  17.472   1.863   3.396 -0.1324 -0.1562 -0.0594
31257W        W37857  21.571   0.288   5.735 -0.0873 -0.2229  0.0982
31258W        W37858   6.725   1.949   1.150  0.2460 -0.3383  0.0682
31259W        W37859   4.942   7.132   9.485 -0.0832  0.1856 -0.0519
31260W        W37860  23.464   5.810  18.891 -0.2416  0.1143  0.1308
31261W        W37861  29.924   5.896  19.957  0.0466  0.1336 -0.2033
31262W        W37862  19.071   6.064   6.243 -0.2755 -0.5038  0.0335
31263W        W37863   2.111   3.506   0.831 -0.0727 -0.1560 -0.0415
31264W        W37864  28.305   2.619  21.919  0.2538  0.2310  0.1096
31265W        W37865  14.345   7.679  17.932  0.1196  0.1315 -0.0413
31266W        W37866  20.597   6.183  25.055 -0.0893  0.1211 -0.0418
31267W        W37867  29.048   0.914   7.882  0.2676  0.2300  0.2485
31268W        W37868   5.701   4.003   5.659  0.0734 -0.2679 -0.0263
31269W        W37869   8.566   2.219   5.704 -0.1630  0.1512  0.1022
31270W        W37870   5.327   1.487  21.672  0.0584 -0.2538  0.1864
31271W        W37871   5.323   4.826  17.943  0.0825 -0.1161  0.1000
31272W        W37872  22.235   4.947  17.412 -0.0471 -0.0748  0.1653
31273W        W37873   1.233   3.096  25.093  0.0071 -0.0879 -0.3657
31274W        W37874  28.825   1.982  19.119  0.0303  0.0273 -0.0802
31275W        W37875   0.252   0.739   3.906 -0.3664 -0.0157 -0.4142
31276W        W37876  22.836   0.978   8.327  0.1354  0.1165 -0.0278
31277W        W37877  19.832   5.688   0.910 -0.0990  0.1153 -0.0197
31278W        W37878  11.434   3.641   9.848 -0.0280 -0.0390 -0.0064
31279W        W37879  14.330   7.458  18.945  0.3141  0.0669  0.4673
31280W        W37880  14.928   2.204   1.275  0.1716  0.0184 -0.0553
31281W        W37881  14.702   6.850  23.491 -0.0261 -0.2168 -0.0687
31282W        W37882  18.742   1.577  10.596  0.2971  0.1008  0.0466
31283W        W37883  10.704   4.679  20.336 -0.0695  0.0439 -0.0612
31284W        W37884  10.110   0.149   5.836 -0.0213  0.1632  0.2785
31285W        W37885  14.768   6.154  19.297 -0.2394  0.0257  0.0389
31286W        W37886  22.694   6.990  16.730 -0.1048  0.1494  0.1207
31287W        W37887   9.333   2.518   1.725 -0.2815  0.0262 -0.2811
31288W        W37888  15.749   5.241  10.243  0.1146  0.0216 -0.0833
31289W        W37889  25.803   1.003  24.905  0.0567  0.0738  0.1698
31290W        W37890  12.071   7.711  16.825 -0.0464 -0.0752 -0.1821
31291W        W37891  28.071   7.582   7.061  0.3151  0.1137 -0.1127
31292W        W37892  25.225   4.602  19.200  0.2592 -0.1109 -0.3887
31293W        W37893  17.087   2.978   8.027 -0.1409  0.1048  0.0988
31294W        W37894  25.776   7.828   6.689  0.2163  0.1014 -0.0586
31295W        W37895  22.829   1.169  23.123  0.1333 -0.0860  0.2953
31296W        W37896   1.004   3.698  18.204 -0.1527  0.0983 -0.5849
31297W        W37897   3.271   5.318  17.266 -0.0809  0.0819 -0.0425
31298W        W37898  20.252   6.553   9.096 -0.0333  0.2808  0.1517
31299W        W37899  21.700   3.969  23.615  0.1489 -0.0108 -0.1105
31300W        W37900  28.146   3.594   5.196 -0.0098  0.1415 -0.1286
31301W        W37901  16.166   1.958  25.312 -0.1449  0.0811  0.0360
31302W        W37902  17.131   0.810  20.962 -0.0994 -0.2084 -0.2878
31303W        W37903   3.957   0.830  16.940  0.0199 -0.2763 -0.1530
31304W        W37904  11.988   7.550  22.516 -0.0374 -0.1632  0.1601
31305W        W37905  21.194   0.892   8.634  0.1453 -0.3081  0.1326
31306W        W37906   4.189   0.031   9.359  0.0760 -0.1947  0.1129
31307W        W37907  17.767   6.864  21.211  0.1530 -0.1131  0.0238
31308W        W37908  27.417   0.235  20.084 -0.2901  0.0019 -0.1819
31309W        W37909  21.780   3.171  24.085 -0.1005  0.2264 -0.0294
31310W        W37910   8.572   6.658  15.798  0.1582  0.0299 -0.1940
31311W        W37911   0.049   7.749  16.286  0.1524  0.0215  0.2363
31312W        W37912  17.740   0.263   1.235  0.3335  0.0746 -0.0831
31313W        W37913  15.888   2.699  18.844 -0.0174  0.1198 -0.0976
31314W        W37914   1.774   4.825  21.759 -0.1566 -0.1242 -0.0918
31315W        W37915   3.793   5.704  17.368 -0.2863 -0.0216 -0.1622
31316W        W37916   8.770   5.192  11.426 -0.1504 -0.0439 -0.1300
31317W        W37917   6.373   1.307   2.942  0.0730 -0.0269 -0.2354
31318W        W37918  25.795   0.312   7.681 -0.0224 -0.1049  0.3234
31319W        W37919   4.470   3.822  16.945 -0.4514  0.3071 -0.1425
31320W        W37920  24.743   6.434  16.310  0.0874 -0.0136  0.1961
31321W        W37921  25.773   2.318  18.891  0.1044  0.1586  0.0909
31322W        W37922  13.522   2.807  22.646 -0.1693  0.2003  0.0732
31323W        W37923  21.616   2.092  18.948 -0.0861  0.1070 -0.0715
31324W        W37924   9.992   0.080   7.468 -0.1409 -0.1604  0.2968
31325W        W37925   3.206   7.231  15.603  0.0039  0.2805  0.0632
31326W        W37926   0.146   7.153   3.806  0.0372 -0.1649 -0.1910
31327W        W37927  22.267   3.753  24.924 -0.1762 -0.0136 -0.1829
31328W        W37928   2.361   7.280  17.930 -0.2720  0.1733 -0.2572
31329W        W37929   5.088   5.906  10.504  0.0541 -0.0232 -0.1997
31330W        W37930   5.802   2.269   8.441 -0.1454 -0.2834 -0.2740
31331W        W37931  29.363   1.047  20.472  0.1115  0.2446  0.1130
31332W        W37932  12.996   0.130  19.942  0.0710 -0.2622 -0.0433
31333W        W37933  15.382   3.864  23.253 -0.0380  0.1366  0.1116
31334W        W37934  27.621   4.220  17.688  0.1567 -0.1242  0.1635
31335W        W37935   9.305   2.404   0.765  0.0641 -0.0376 -0.4565
31336W        W37936   5.479   4.154  15.674  0.4522 -0.0767  0.0589
31337W        W37937   9.184   2.918   6.522 -0.1734  0.2032  0.0979
31338W        W37938  26.577   1.460  20.995 -0.2114 -0.4850 -0.1437
31339W        W37939  28.226   4.615  23.151  0.0328 -0.3344  0.0274
31340W        W37940  16.593   2.100   5.241 -0.0935  0.0031 -0.0744
31341W        W37941  30.855   7.530  15.689 -0.0667  0.2894 -0.0309
31342W        W37942   2.592   0.867  18.091  0.2447 -0.1342  0.1300
31343W        W37943   1.795   3.076  18.956 -0.2412 -0.0310 -0.0196
31344W        W37944  23.737   5.740  16.086  0.2152 -0.1806  0.2035
31345W        W37945   4.085   5.589   7.483 -0.1761 -0.1291 -0.2108
31346W        W37946  12.908   6.275  23.330  0.0296  0.3347 -0.2228
31347W        W37947  30.178   5.494  23.718  0.1829 -0.4210  0.1284
31348W        W37948   5.701   4.884   0.980 -0.0959 -0.1167  0.1586
31349W        W37949  27.301   4.639   2.308  0.0591  0.0893  0.0627
31350W        W37950   2.362   2.548  15.196 -0.3333 -0.0648  0.0208
31351W        W37951  28.187   0.080   5.738 -0.1593 -0.0175 -0.0852
31352W        W37952   2.747   6.121  22.142  0.1819  0.2283 -0.0845
31353W        W37953   7.950   1.400   8.630  0.0012  0.0699 -0.2723
31354W        W37954  10.379   1.897   1.585  0.2245 -0.0473 -0.0121
31355W        W37955   1.232   1.065   7.161 -0.0390  0.2459  0.0126
31356W        W37956   7.862   2.935   8.893  0.0377  0.0392  0.0429
31357W        W37957  18.461   3.585   1.940 -0.1733  0.2976 -0.1296
31358W        W37958   8.824   3.628   6.052 -0.2248 -0.1010 -0.0733
31359W        W37959   7.950   2.709  16.306 -0.2073 -0.2739  0.0581
31360W        W37960  12.187   7.422   9.036  0.1702 -0.0365  0.1281
31361W        W37961  19.005   1.866   8.660  0.0940 -0.0593 -0.1902
31362W        W37962  20.624   1.597  10.302  0.1978  0.0076 -0.0668
31363W        W37963  25.269   6.228   7.442 -0.0780  0.0985  0.0836
31364W        W37964  23.321   1.721  15.283 -0.0410  0.2299 -0.0804
31365W        W37965   3.164   7.661  17.866 -0.1557 -0.3335 -0.4949
31366W        W37966  17.290   3.365  21.994  0.1444  0.0446 -0.0071
31367W        W37967  10.222   2.653   8.850  0.2918  0.0122  0.0854
31368W        W37968  23.407   0.915  18.740  0.0461 -0.1894 -0.2639
31369W        W37969  28.722   4.974  26.037  0.0097 -0.0244  0.2131
31370W        W37970   2.391   1.947   1.603  0.0343 -0.1767 -0.1670
31371W        W37971  31.039   2.279   3.310 -0.2330  0.1214  0.3087
31372W        W37972  18.896   0.380  22.023 -0.0738 -0.3163  0.0239
31373W        W37973  14.697   3.558   6.671  0.1547 -0.2067  0.1537
31374W        W37974   6.062   2.499  19.976  0.0522  0.4340  0.2985
31375W        W37975   0.403   1.493   8.938  0.0454 -0.0100  0.0436
31376W        W37976   4.956   4.693   2.629 -0.0973  0.0536 -0.0417
31377W        W37977  13.510   0.268  16.259  0.4482  0.0046  0.1495
31378W        W37978   2.144   1.762  22.787  0.2730  0.0217  0.1938
31379W        W37979  29.957   3.078  18.812  0.0407 -0.0531 -0.3538
31380W        W37980   8.387   7.385  18.425 -0.2095  0.0724 -0.2868
31381W        W37981   5.767   3.572  18.720  0.3578  0.3787 -0.1829
31382W        W37982   5.181   5.455   1.871  0.0324 -0.3754  0.0625
31383W        W37983  16.041   5.289  18.509 -0.2169  0.1806  0.2523
31384W        W37984  26.490   2.924  19.279 -0.1277  0.2083 -0.1498
31385W        W37985  13.851   0.933  15.722 -0.1369 -0.0249  0.1146
31386W        W37986  10.212   1.043  19.538  0.3477 -0.2347 -0.2230
31387W        W37987   6.720   4.607   6.951  0.0864 -0.2880  0.2770
31388W        W37988  11.519   5.482  10.870 -0.2648  0.1259 -0.3794
31389W        W37989  24.609   5.292   2.366 -0.1417 -0.0180 -0.1590
31390W        W37990  28.397   6.208   0.685  0.0624 -0.0489 -0.1118
31391W        W37991   9.258   3.534  18.239 -0.3933  0.0260 -0.3267
31392W        W37992  11.670   0.548   9.430  0.1200  0.0533  0.3510
31393W        W37993  20.006   1.221  17.337 -0.0836 -0.1127 -0.3112
31394W        W37994  23.521   5.898   5.029 -0.1636 -0.0885  0.1481
31395W        W37995  30.173   3.172   1.900 -0.2405  0.1656 -0.2054
31396W        W37996  14.853   6.434  16.809 -0.0711 -0.0444 -0.2570
31397W        W37997  21.164   2.126  23.557 -0.0939  0.0306 -0.1113
31398W        W37998  12.967   7.622   3.435  0.2559 -0.2300 -0.0733
31399W        W37999  15.813   6.230  26.062 -0.0642 -0.2941 -0.0953
31400W        W38000  24.679   1.698  18.638  0.0839 -0.0084 -0.0474
31401W        W38001  24.447   4.966  17.517  0.0962 -0.0193  0.0031
31402W        W38002  25.615   2.278   7.232 -0.1704  0.2522 -0.0116
31403W        W38003  17.690   0.908  10.262  0.0762  0.1319  0.1526
31404W        W38004  15.569   0.025  17.489 -0.2343  0.0462  0.4237
31405W        W38005  28.791   5.292  15.670  0.1911  0.1930 -0.2761
31406W        W38006   8.184   5.593  22.014  0.0593 -0.1238 -0.1167
31407W        W38007  22.093   5.284  25.887  0.2169  0.2192 -0.1417
31408W        W38008   1.329   5.437  24.684 -0.1788 -0.2058 -0.1270
31409W        W38009  14.844   5.884  16.643  0.1393 -0.1661  0.0019
31410W        W38010  11.017   7.420  16.606 -0.1409  0.0670  0.0916
31411W        W38011  29.383   0.602  24.283 -0.0094  0.2219 -0.2099
31412W        W38012  29.630   5.924  18.419 -0.0708  0.0638  0.4168
31413W        W38013   1.980   5.842   2.812  0.1188  0.0522  0.2691
31414W        W38014  28.262   2.597   0.073 -0.2237  0.1746  0.2869
31415W        W38015  12.249   7.675   6.702 -0.0941 -0.2053  0.1083
31416W        W38016  12.349   0.683   9.745  0.1185  0.2726 -0.0490
31417W        W38017  27.300   0.960   9.262  0.3031  0.2563  0.0535
31418W        W38018  20.821   5.491   6.830 -0.1964 -0.3803  0.0046
31419W        W38019   7.467   5.333  25.018 -0.3819 -0.1847 -0.0632
31420W        W38020  20.360   5.240  24.397 -0.0366 -0.1863 -0.1766
31421W        W38021  17.257   1.271  22.307 -0.1813 -0.0237 -0.1376
31422W        W38022  18.720   6.545   9.952 -0.0447  0.0259  0.1163
31423W        W38023  17.586   4.891  15.799 -0.2534  0.0174 -0.1929
31424W        W38024   7.927   1.469   6.931  0.1243 -0.0943  0.0626
31425W        W38025  16.316   2.290   5.712 -0.0101 -0.2258 -0.5501
31426W        W38026  22.367   1.871  23.661 -0.0680  0.0501  0.0805
31427W        W38027  27.128   1.159  17.941  0.0274  0.2006 -0.0432
31428W        W38028   5.057   5.703   8.636 -0.0956  0.1604  0.2770
31429W        W38029   9.090   5.335  25.583 -0.2135 -0.1212 -0.0806
31430W        W38030   7.856   4.253  17.411  0.0673 -0.0966 -0.2485
31431W        W38031  23.413   2.087  21.410  0.1659  0.1133 -0.0644
31432W        W38032  13.595   4.096   9.680 -0.3820  0.0443  0.1878
31433W        W38033  19.603   2.159  17.328 -0.2523  0.1783 -0.0779
31434W        W38034  13.309   7.248  24.445 -0.0704 -0.5711 -0.0416
31435W        W38035   7.718   6.207   1.574 -0.0830 -0.0964 -0.3857
31436W        W38036   5.629   2.782   1.939  0.1249 -0.0482  0.2255
31437W        W38037   8.202   6.769  14.705  0.0063  0.1032  0.1273
31438W        W38038  23.037   6.016   5.797  0.0912 -0.0615 -0.1275
31439W        W38039  26.795   6.605  20.747 -0.2299 -0.2254  0.1617
31440W        W38040  21.649   2.976  26.018  0.1066  0.1432  0.1618
31441W        W38041  14.255   4.942  19.360  0.0297 -0.0015  0.3658
31442W        W38042   4.871   6.165  25.928  0.0386  0.1031 -0.2041
31443W        W38043  13.584   0.743  16.661  0.1396  0.2450  0.0851
31444W        W38044  24.067   7.225   0.483  0.0148  0.2462 -0.4072
31445W        W38045  19.178   2.812   0.196  0.2873  0.3212  0.1180
31446W        W38046  16.166   7.071   0.994  0.2342  0.1273  0.1288
31447W        W38047  20.574   7.268   8.586 -0.1555  0.1610 -0.1552
31448W        W38048  20.929   2.820   7.828 -0.0755 -0.1130 -0.4223
31449W        W38049  12.645   5.281   4.091 -0.0140  0.3493  0.0058
31450W        W38050  24.647   4.087  20.976  0.1993  0.1443 -0.3588
31451W        W38051  27.393   1.054   9.868 -0.2161 -0.0811 -0.2423
31452W        W38052  18.294   3.235  20.166  0.1251  0.3233  0.1690
31453W        W38053  12.241   2.851   5.629 -0.1121 -0.2995 -0.1475
31454W        W38054  17.716   7.618   6.086 -0.0928  0.0728 -0.2031
31455W        W38055  15.783   3.698  22.408  0.0167 -0.0420 -0.1327
31456W        W38056  21.157   6.504  17.774  0.4080  0.1975  0.1846
31457W        W38057  22.125   6.309  25.158  0.0649 -0.2417 -0.0623
31458W        W38058   2.110   1.298  24.947 -0.0449  0.2386 -0.1328
31459W        W38059  23.285   3.774   3.277 -0.2678  0.2193 -0.0506
31460W        W38060   3.461   3.984   5.074 -0.2026  0.1147  0.4703
31461W        W38061   4.119   7.262  21.711 -0.1199 -0.2076 -0.0075
31462W        W38062   9.367   2.696   2.236  0.0287 -0.1707  0.2118
31463W        W38063  17.630   4.926  20.177 -0.2700 -0.1651  0.0349
31464W        W38064  20.083   2.271  15.840  0.1849 -0.0783 -0.0956
31465W        W38065   1.935   6.666   4.437  0.2594 -0.0102 -0.0138
31466W        W38066  27.605   6.216   7.908 -0.1432  0.4246  0.3003
31467W        W38067  15.718   1.616  16.374  0.2815 -0.0424  0.1185
31468W        W38068   5.008   2.672   7.497 -0.1435 -0.2049  0.0474
31469W        W38069  15.507   1.211   7.656 -0.1387  0.2429 -0.1799
31470W        W38070  18.379   5.480  21.743  0.1802  0.0820 -0.0089
31471W        W38071  18.384   3.492  19.154 -0.3221 -0.0960 -0.0103
31472W        W38072  14.827   1.180  23.786 -0.0659  0.1644 -0.0688
31473W        W38073  10.488   3.157   0.327 -0.0946 -0.1038  0.1356
31474W        W38074   1.605   6.308  16.391 -0.0304  0.1793  0.0488
31475W        W38075  30.356   5.787  10.023 -0.0312  0.2215  0.1543
31476W        W38076  22.287   0.835   4.562 -0.4271  0.0192 -0.1534
31477W        W38077  23.044   0.278  21.375  0.1019 -0.3436  0.1513
31478W        W38078  14.079   7.412  25.714  0.1370 -0.0217  0.1164
31479W        W38079   4.712   4.869  22.715 -0.0138 -0.2833  0.0181
31480W        W38080  19.804   2.242  24.052  0.0871  0.0573 -0.2113
31481W        W38081  12.792   6.021  19.891 -0.0203  0.1554  0.1529
31482W        W38082   4.278   6.841  20.915 -0.1231 -0.0368  0.0509
31483W        W38083  11.287   0.510  25.450  0.4471 -0.0766  0.3835
31484W        W38084  25.324   2.416  22.127  0.2505  0.2019 -0.0477
31485W        W38085  25.684   6.801   1.087 -0.0145  0.1536  0.3250
31486W        W38086   5.702   3.105   8.458  0.0833 -0.1084 -0.0819
31487W        W38087  23.473   2.515   2.182 -0.1594 -0.3155  0.0003
31488W        W38088   9.708   1.580  18.936 -0.0188  0.0061 -0.0100
31489W        W38089   8.669   2.020   5.231  0.0281 -0.2677  0.0650
31490W        W38090  25.973   4.987  19.460  0.1909 -0.3814  0.2328
31491W        W38091  14.767   6.243   8.121 -0.0918 -0.0347 -0.1191
31492W        W38092   3.936   6.721   7.578  0.2033 -0.0451 -0.0763
31493W        W38093  26.059   6.639  10.953  0.0962 -0.2800 -0.0740
31494W        W38094   6.664   4.811  10.996 -0.1175 -0.3913 -0.1974
31495W        W38095  11.551   4.378  17.806 -0.2468  0.2789  0.3386
31496W        W38096  21.583   1.673  10.547  0.3627 -0.2718  0.0166
31497W        W38097  10.780   6.670   6.616  0.1238 -0.0601  0.0538
31498W        W38098  10.628   5.481   0.799 -0.3456 -0.5291  0.1743
31499W        W38099  30.062   1.248  19.351 -0.2649 -0.2939 -0.0517
31500W        W38100  25.500   2.327   4.338  0.0694  0.0632 -0.1431
31501W        W38101   0.088   6.800  22.624 -0.3935 -0.1772  0.0624
31502W        W38102  12.527   5.703  15.117 -0.0995 -0.0422  0.0093
31503W        W38103  12.224   2.725  18.580  0.0831  0.2333  0.0983
31504W        W38104  18.517   2.160  20.943  0.2130 -0.3268 -0.1839
31505W        W38105  14.924   3.196  25.280 -0.3942 -0.2101  0.2836
31506W        W38106  18.043   1.143  22.090 -0.0665 -0.0112  0.0525
31507W        W38107  26.673   7.151   4.156 -0.1932 -0.1251 -0.2110
31508W        W38108  26.513   7.200  25.521 -0.0011 -0.1949 -0.3041
31509W        W38109   8.965   4.865  23.686 -0.1239 -0.2093 -0.0384
31510W        W38110   5.853   6.250   3.352 -0.2031  0.0652  0.1158
31511W        W38111   5.184   6.665  20.649 -0.0923 -0.1102 -0.3004
31512W        W38112   3.955   3.727  25.497  0.1121 -0.1288 -0.0394
31513W        W38113  16.346   0.291   7.190 -0.3610 -0.1776  0.0709
31514W        W38114  12.770   4.541   7.538  0.1779  0.1413 -0.0061
31515W        W38115   5.822   5.403   9.127 -0.0966  0.1186 -0.2998
31516W        W38116  22.477   5.010  15.309  0.2686 -0.1362 -0.0492
31517W        W38117   4.542   2.309  16.796  0.0596 -0.0944 -0.3346
31518W        W38118  25.303   1.971  20.200  0.0018  0.0923 -0.0977
31519W        W38119  29.109   6.795   5.280  0.2150 -0.0938  0.0479
31520W        W38120  24.352   7.494   0.761 -0.2610 -0.1073  0.0672
31521W        W38121   9.295   1.087  16.772  0.1680 -0.1055 -0.1531
31522W        W38122   2.757   7.702  14.986 -0.0821  0.0811  0.0131
31523W        W38123   8.011   5.783  10.454  0.1292  0.1395  0.2281
31524W        W38124  23.187   7.263  24.824  0.1250 -0.1150 -0.3053
31525W        W38125  24.572   0.764  18.294  0.4084 -0.2290 -0.1121
31526W        W38126  12.746   1.933   3.782 -0.2554  0.0215 -0.1279
31527W        W38127  10.663   5.232   2.295 -0.0226  0.0017  0.1702
31528W        W38128  16.451   6.604  24.377 -0.1464 -0.0734  0.2360
31529W        W38129  30.032   3.901   6.540 -0.0629  0.3809  0.0302
31530W        W38130  23.694   3.300   3.276  0.1005  0.1883 -0.1554
31531W        W38131  13.991   6.755   9.374 -0.0751 -0.2766  0.0273
31532W        W38132   5.728   5.072   8.246 -0.4011  0.2564 -0.1174
31533W        W38133   2.107   0.981  21.751  0.1794 -0.2223 -0.0326
31534W        W38134   9.655   3.177   4.416 -0.0581  0.0158 -0.0944
31535W        W38135  17.809   5.946  24.316  0.2602 -0.1227 -0.0386
31536W        W38136  25.540   1.349  10.059 -0.1896 -0.1238 -0.2426
31537W        W38137  16.619   7.103  15.990  0.0801 -0.0025 -0.0254
31538W        W38138  15.098   4.675  18.668  0.1108  0.1092  0.4223
31539W        W38139  30.446   2.603  15.642  0.0223 -0.0691 -0.1360
31540W        W38140  18.059   7.761  23.142 -0.0039 -0.3272  0.2845
31541W        W38141  30.630   0.745  22.841 -0.1299 -0.0308 -0.0750
31542W        W38142  12.264   3.330   0.609  0.0781 -0.3496 -0.1686
31543W        W38143  17.884   0.312  17.347  0.1973 -0.4166 -0.0496
31544W        W38144  23.619   1.437  17.466 -0.1922  0.1538  0.1039
31545W        W38145   9.042   6.589   8.218 -0.1210  0.5836 -0.1972
31546W        W38146  13.808   4.230  24.613 -0.0244  0.2352 -0.1299
31547W        W38147  12.394   2.671   8.509 -0.0448 -0.1291  0.2370
31548W        W38148  23.921   6.633   6.921 -0.0263  0.0358 -0.0748
31549W        W38149  28.821   4.482  22.973 -0.0264 -0.1953  0.0857
31550W        W38150  22.672   2.951   8.067  0.0986 -0.0493  0.0177
31551W        W38151  15.518   5.686   7.073  0.0640 -0.3462 -0.1819
31552W        W38152  13.946   2.605   9.738  0.0291  0.3679  0.3319
31553W        W38153   9.836   6.632  17.850  0.3305  0.1540 -0.3444
31554W        W38154  29.887   6.818   7.035 -0.2039  0.1374 -0.1406
31555W        W38155   8.450   7.352  25.633  0.0468  0.2813 -0.3620
31556W        W38156   0.487   2.614   9.698  0.0361 -0.0822  0.0502
31557W        W38157  16.331   4.585  23.942 -0.1690  0.1625 -0.1942
31558W        W38158   4.396   2.807  18.177  0.4007 -0.2126  0.0469
31559W        W38159  26.719   4.184  23.227  0.0434  0.2042 -0.4351
31560W        W38160  16.157   6.165  14.744  0.1458 -0.1038 -0.1316
31561W        W38161  26.849   6.504  24.366 -0.1742 -0.0094  0.0040
31562W        W38162  17.500   4.881   3.454 -0.1286  0.0268 -0.1831
31563W        W38163  25.642   0.369  15.609  0.0755  0.2524  0.2442
31564W        W38164  18.227   2.171  17.965 -0.0735  0.1060 -0.0681
31565W        W38165  31.357   0.727  21.716 -0.0785  0.2228 -0.1388
31566W        W38166  20.722   5.847  23.780  0.0370 -0.0543 -0.2621
31567W        W38167   3.594   6.546  18.951  0.1989  0.0556  0.0876
31568W        W38168  14.790   1.216   4.454 -0.2332 -0.1436  0.1184
31569W        W38169  24.674   2.749  22.310 -0.1041  0.1317 -0.1022
31570W        W38170  30.907   0.712  23.417  0.0986 -0.1772  0.3094
31571W        W38171  23.731   3.200   0.201 -0.1144 -0.2053 -0.3029
31572W        W38172   6.608   0.106   8.179 -0.1799 -0.0847 -0.1922
31573W        W38173  21.790   6.431  18.033  0.0359 -0.0563 -0.1200
31574W        W38174   2.288   5.137   7.423  0.0503 -0.0807  0.0810
31575W        W38175  13.403   6.934   4.499 -0.1918  0.1005  0.2784
31576W        W38176  22.416   1.472  16.328  0.0203  0.2141 -0.2075
31577W        W38177  26.017   7.066   8.032 -0.1260  0.0020  0.0732
31578W        W38178  16.367   3.074  21.481  0.0213  0.1211  0.0207
31579W        W38179   3.541   7.837  16.591  0.1864  0.0024 -0.2052
31580W        W38180  31.019   4.569   9.052 -0.1999  0.0402 -0.1636
31581W        W38181   7.582   0.091  22.246 -0.3128 -0.0051 -0.3649
31582W        W38182   8.785   3.579   8.750 -0.0782 -0.1382 -0.2239
31583W        W38183  31.209   4.040   4.250  0.3872  0.4048  0.2655
31584W        W38184   0.616   1.332  19.493 -0.1474  0.0287  0.0759
31585W        W38185   9.250   6.046  20.504 -0.1995 -0.0213  0.1504
31586W        W38186  20.872   0.014   1.125 -0.1262 -0.0993 -0.2136
31587W        W38187   5.653   6.420  21.883 -0.1167  0.1353 -0.0213
31588W        W38188   4.398   7.287  24.717  0.1104 -0.1024  0.0378
31589W        W38189  26.964   4.214   4.989 -0.0229  0.0224  0.0432
31590W        W38190   2.051   3.983  24.732  0.0330 -0.1186 -0.1613
31591W        W38191  11.476   6.340   2.768 -0.1288  0.0434  0.0122
31592W        W38192  25.681   7.446   6.318  0.0297  0.0949  0.0107
31593W        W38193  30.518   6.991  16.764 -0.0504  0.1071  0.0879
31594W        W38194  21.168   3.074   1.689  0.3250 -0.2062  0.0244
31595W        W38195   8.325   6.074   2.515  0.5709 -0.0913  0.0140
31596W        W38196   5.920   7.654  14.062 -0.1944  0.1506 -0.1531
31597W        W38197  13.884   5.787   4.781  0.3558 -0.1652 -0.1540
31598W        W38198  19.647   7.577  14.932  0.1398  0.1572  0.1490
31599W        W38199   3.331   6.150  25.064 -0.1489  0.2005 -0.0394
31600W        W38200  26.849   5.706  23.945  0.1995 -0.0639  0.2366
31601W        W38201  23.875   5.261  16.154  0.1914  0.3091 -0.0030
31602W        W38202  13.120   5.590  17.566  0.0317  0.1870 -0.0257
31603W        W38203   5.653   0.116  23.516  0.0123 -0.0072 -0.2298
31604W        W38204   7.902   3.286  22.045  0.1358 -0.2149 -0.0239
31605W        W38205  21.213   6.770  16.342 -0.2158  0.1705  0.0941
31606W        W38206   3.814   0.265   0.286  0.1087  0.0389 -0.0536
31607W        W38207  12.874   6.733  10.556  0.0182  0.1753 -0.4314
31608W        W38208  18.956   2.089  16.187  0.3852 -0.1003 -0.0788
31609W        W38209  16.878   0.849   3.746  0.1328 -0.1564 -0.2680
31610W        W38210  28.167   3.497  25.499 -0.1756 -0.2092  0.4090
31611W        W38211  28.145   2.279  19.758  0.1232  0.2799 -0.1172
31612W        W38212  21.032   7.020  10.227  0.0859 -0.0511 -0.1401
31613W        W38213  22.667   5.759   5.447  0.1839 -0.2480 -0.1321
31614W        W38214   5.172   3.982   8.502  0.0999 -0.0139  0.1624
31615W        W38215   7.158   6.699  18.934  0.0401  0.1881 -0.0639
31616W        W38216   1.113   7.398   4.178 -0.0008  0.0709 -0.3269
31617W        W38217  22.328   3.006  24.215  0.0938  0.1313  0.1235
31618W        W38218  20.048   6.146  20.563  0.0067  0.0395  0.1497
31619W        W38219  10.790   1.445   1.509  0.1936 -0.0013  0.2198
31620W        W38220  17.187   0.758  26.075 -0.2702  0.3289  0.1344
31621W        W38221   8.826   3.726   4.766  0.0189 -0.5837  0.0862
31622W        W38222  19.768   5.461   2.700 -0.3208  0.4253 -0.0593
31623W        W38223  18.278   4.575  11.228  0.1544 -0.0377  0.1111
31624W        W38224   4.018   6.646  22.971 -0.0972 -0.1376 -0.2375
31625W        W38225  13.798   0.116   0.928  0.0600 -0.0726 -0.1348
31626W        W38226  20.146   0.550  19.412  0.0049  0.1949  0.2472
31627W        W38227   2.604   7.453   9.633  0.1665 -0.2257 -0.2213
31628W        W38228   8.097   4.453  25.551 -0.1278  0.0591 -0.2950
31629W        W38229  13.090   4.610  20.785  0.3125 -0.1045 -0.3116
31630W        W38230  26.051   5.393  18.350  0.2067  0.0224 -0.0277
31631W        W38231   1.538   7.580  10.550 -0.0069 -0.1737 -0.2311
31632W        W38232  20.260   7.469  17.359  0.1430 -0.4970  0.2647
31633W        W38233   2.717   2.803   3.502 -0.0896  0.3113  0.1925
31634W        W38234  31.385   1.565  24.478 -0.0750  0.0875 -0.1512
31635W        W38235  29.924   3.959  25.264 -0.2369  0.0575 -0.0498
31636W        W38236  13.056   3.381   8.325  0.1177  0.0298  0.1095
31637W        W38237  11.215   0.368  18.094  0.0070  0.2518 -0.1339
31638W        W38238  13.087   7.715   9.688 -0.1099  0.0116 -0.3159
31639W        W38239  17.242   3.529   8.088 -0.0373 -0.2077  0.2027
31640W        W38240  24.881   0.964   2.674 -0.1912  0.0154  0.0115
31641W        W38241   2.104   0.660  18.177 -0.0538 -0.1179  0.4147
31642W        W38242  14.174   2.885  18.719 -0.0753 -0.0023 -0.2064
31643W        W38243  23.016   0.262  25.854  0.0918 -0.0677 -0.1614
31644W        W38244  24.099   2.212  16.213 -0.3735 -0.0753 -0.0967
31645W        W38245  20.431   4.700  16.554  0.2056  0.1834 -0.0643
31646W        W38246   2.804   6.264  18.016 -0.0581 -0.2231 -0.2734
31647W        W38247  25.652   0.440  21.073 -0.1133 -0.1140  0.0544
31648W        W38248  20.275   1.563  11.055 -0.1620  0.1038  0.1329
31649W        W38249   6.654   3.391  10.952 -0.1804  0.0581 -0.0578
31650W        W38250  13.678   4.035  18.414  0.0637 -0.0546  0.1223
31651W        W38251  19.229   0.584  10.482 -0.1255 -0.0733  0.1733
31652W        W38252  20.595   2.339  20.713 -0.0205  0.1468  0.2278
31653W        W38253   1.848   0.737   5.275 -0.1673 -0.2469  0.1386
31654W        W38254   4.356   4.532   8.695 -0.0416 -0.1499  0.0118
31655W        W38255  30.337   7.457   1.963 -0.0955 -0.0080 -0.1044
31656W        W38256   5.465   7.403   6.029 -0.3910  0.0547  0.3006
31657W        W38257  25.003   4.041   7.298  0.0977 -0.2071  0.2160
31658W        W38258  23.734   1.902   7.877  0.2114 -0.0553  0.1024
31659W        W38259  21.954   5.685  15.295 -0.2058  0.2276  0.2562
31660W        W38260  12.375   5.938  21.784  0.1435 -0.2094  0.1132
31661W        W38261  13.628   7.214  25.690  0.1340  0.1813  0.0124
31662W        W38262  23.935   6.663  23.876 -0.0970 -0.0308  0.1488
31663W        W38263  11.469   7.619  23.719 -0.0245  0.4685 -0.3037
31664W        W38264  26.415   1.998  14.914 -0.1524 -0.5493  0.0575
31665W        W38265  15.098   2.343   3.004 -0.0430 -0.0226  0.0085
31666W        W38266  18.457   4.946   1.826 -0.3782  0.1316  0.2215
31667W        W38267  22.790   7.197   0.822 -0.2100  0.0506  0.2384
31668W        W38268  19.496   2.736  17.424  0.3449 -0.0875  0.1403
31669W        W38269  18.827   5.894  19.155  0.1144  0.0652  0.2981
31670W        W38270  25.339   7.639   6.669  0.2754  0.1358 -0.0218
31671W        W38271  10.815   2.598  24.353  0.0876  0.0210  0.1774
31672W        W38272  24.241   5.256  25.040 -0.2826  0.0367  0.2034
31673W        W38273  10.644   6.147  19.112  0.0766 -0.0665  0.0954
31674W        W38274   1.908   4.791   9.574 -0.1667  0.0149  0.3948
31675W        W38275   1.281   6.895  25.041  0.1222 -0.0155 -0.1598
31676W        W38276  17.419   2.806   5.968  0.1464  0.1457  0.1427
31677W        W38277  30.059   7.848  15.410  0.3656  0.0522  0.0743
31678W        W38278   0.828   7.462  25.823 -0.1008  0.1540 -0.0754
31679W        W38279   2.480   4.842   1.351 -0.1006 -0.1705 -0.4717
31680W        W38280  18.378   4.797   0.894 -0.0487  0.0476 -0.0409
31681W        W38281   3.099   4.524  16.883 -0.0740 -0.0240 -0.0114
31682W        W38282   3.484   4.159   1.373  0.1002 -0.2198  0.0503
31683W        W38283  18.027   5.583   2.277 -0.2023 -0.0158  0.0913
31684W        W38284  24.749   7.626  17.070  0.0441 -0.0560 -0.0200
31685W        W38285  24.755   4.498   7.147 -0.0072  0.5010  0.1501
31686W        W38286  25.458   6.576  20.070  0.0283 -0.3193 -0.1428
31687W        W38287  15.576   1.641  18.010  0.0723 -0.2514 -0.4106
31688W        W38288  21.108   3.288   7.237 -0.3336  0.0324  0.0992
31689W        W38289   4.461   7.441   6.260  0.0286  0.0089 -0.1684
31690W        W38290  31.219   2.722   9.223  0.3027  0.1860 -0.0794
31691W        W38291  12.287   4.691   5.748  0.3996  0.4908  0.0845
31692W        W38292  19.861   3.498  23.477 -0.1649  0.2182 -0.0402
31693W        W38293  16.355   6.203  20.085 -0.2569 -0.1261  0.4618
31694W        W38294   8.835   4.125   1.104  0.1060  0.2810 -0.0104
31695W        W38295  11.790   0.202  16.560  0.0136  0.2375 -0.1834
31696W        W38296  20.439   4.259  18.933  0.0937  0.0525  0.2325
31697W        W38297  28.451   5.243  19.481 -0.4539 -0.2105 -0.2189
31698W        W38298  15.990   4.251  17.439  0.1542 -0.0259 -0.0418
31699W        W38299  25.325   4.477  21.275 -0.0622  0.0361 -0.0144
31700W        W38300  24.777   4.220   8.499  0.0695  0.0512  0.1046
31701W        W38301  18.247   4.044  24.525  0.1201  0.0851 -0.0548
31702W        W38302  15.252   2.091   9.151 -0.0150  0.0775  0.0012
31703W        W38303  23.369   3.487   8.297 -0.0316 -0.0474 -0.1058
31704W        W38304  21.995   2.630   1.072  0.0599 -0.2892 -0.0264
31705W        W38305  14.996   5.648   9.144 -0.1488  0.2585 -0.1398
31706W        W38306  17.622   1.916  10.339 -0.1926  0.2460  0.3917
31707W        W38307  27.148   0.063   6.116  0.1287  0.3233 -0.1787
31708W        W38308  22.687   6.072   3.234 -0.2113  0.0530  0.1989
31709W        W38309  21.652   6.323  19.926 -0.0585  0.0453  0.1431
31710W        W38310  25.221   6.036  19.928 -0.1378 -0.1440  0.1243
31711W        W38311  30.943   4.037  25.500 -0.3028 -0.1996  0.1408
31712W        W38312  26.853   1.862  17.470 -0.1496  0.2753  0.0579
31713W        W38313  20.746   7.663   2.484  0.1729  0.0785 -0.3630
31714W        W38314   2.391   7.378   1.774 -0.0102  0.0093 -0.0482
31715W        W38315  28.046   3.717   4.519  0.1724  0.2529  0.1154
31716W        W38316  26.739   5.229   4.978  0.0425  0.0110  0.5033
31717W        W38317   7.593   2.754   5.607 -0.2010 -0.0916  0.0391
31718W        W38318   8.816   6.595  21.623 -0.1173  0.0630  0.0623
31719W        W38319  19.562   0.039   4.254 -0.0278 -0.0524 -0.0100
31720W        W38320   1.853   2.223   0.617  0.0108 -0.1607 -0.0938
31721W        W38321  14.600   7.317  15.815 -0.0003 -0.0409 -0.1631
31722W        W38322  11.676   3.489   8.673  0.0080  0.0401  0.1675
31723W        W38323  28.691   1.181  14.744 -0.2457 -0.0821  0.0204
31724W        W38324  22.520   7.638  23.628  0.0204 -0.0415  0.0568
31725W        W38325  16.753   4.585  15.770 -0.1068  0.2126 -0.0631
31726W        W38326  24.931   0.781   0.469 -0.2423 -0.0104 -0.0375
31727W        W38327  13.401   2.153   5.305  0.1158  0.0648  0.1007
31728W        W38328  19.798   7.674   4.652 -0.1350  0.2085 -0.3070
31729W        W38329  23.926   5.140  18.761  0.0591  0.2824 -0.0913
31730W        W38330  21.801   2.365   9.742 -0.2084  0.0591 -0.0851
31731W        W38331  26.461   1.193   0.120 -0.1264  0.1114  0.0321
31732W        W38332   3.031   3.031  21.148 -0.0273 -0.3306  0.1008
31733W        W38333   6.528   0.615   7.138  0.1102  0.1301  0.1848
31734W        W38334  15.001   4.540  23.158  0.2096  0.0056  0.2285
31735W        W38335   1.054   3.967   6.617 -0.1908 -0.0547 -0.0369
31736W        W38336  30.671   0.712   4.930 -0.0257  0.2220 -0.2155
31737W        W38337  13.596   0.412   0.622 -0.1056 -0.2796 -0.0435
31738W        W38338  15.507   0.387  18.813  0.2176  0.2740  0.1387
31739W        W38339  24.795   0.422  24.241  0.2367 -0.3740  0.1229
31740W        W38340  30.866   3.980   3.808  0.0103 -0.0758  0.1673
31741W        W38341  20.303   3.428  19.560 -0.0660 -0.3252  0.1850
31742W        W38342   4.387   0.713  21.742 -0.2586 -0.0975 -0.0340
31743W        W38343  20.043   3.968  19.817  0.0447  0.3598 -0.3027
31744W        W38344   2.957   2.746  15.916 -0.4883 -0.0621  0.2149
31745W        W38345  24.876   4.753   1.065  0.2363 -0.4194  0.2646
31746W        W38346  11.583   4.176   8.654  0.1301 -0.0134 -0.2743
31747W        W38347   2.242   7.698  16.415 -0.0956 -0.1194  0.1230
31748W        W38348  28.024   7.541  17.807  0.0387 -0.1309  0.0746
31749W        W38349  13.372   2.143   4.061  0.0378 -0.1371 -0.0772
31750W        W38350  16.227   6.378   1.813 -0.0948 -0.0276 -0.0945
31751W        W38351  26.737   5.123   8.523 -0.0328 -0.0283 -0.0851
31752W        W38352  18.763   6.304  20.763 -0.2076 -0.0385 -0.1516
31753W        W38353  30.168   5.381  19.370 -0.2192 -0.0487 -0.3857
31754W        W38354   0.606   2.046   1.723  0.0659  0.0332  0.1941
31755W        W38355   9.624   3.377  25.072 -0.1897  0.0910  0.0613
31756W        W38356  22.926   0.798  24.648  0.0171 -0.1879  0.2388
31757W        W38357  16.161   4.346   6.470  0.0458 -0.3395 -0.0625
31758W        W38358  29.587   6.773  21.604 -0.3061 -0.1942  0.0206
31759W        W38359  15.026   2.296  17.951 -0.0718 -0.0265  0.3362
31760W        W38360  22.827   1.558  10.054  0.0105 -0.1699  0.0334
31761W        W38361  27.886   7.753   7.507 -0.0678 -0.0200 -0.0907
31762W        W38362   3.225   5.342   8.386  0.0173 -0.2218 -0.1425
31763W        W38363   7.377   7.213   6.968  0.0870  0.0958  0.0886
31764W        W38364  20.955   5.787  22.778 -0.3033 -0.1027  0.0541
31765W        W38365  14.155   0.133   1.873  0.0282 -0.0081  0.2729
31766W        W38366   1.523   4.546  22.645  0.0571  0.0105  0.0798
31767W        W38367  25.191   6.574  24.328 -0.3719 -0.0394  0.2174
31768W        W38368  19.375   3.440   4.160 -0.2148 -0.2307 -0.2704
31769W        W38369  22.697   5.830  23.049 -0.0841 -0.1686  0.2541
31770W        W38370   2.882   5.170   3.778  0.0505 -0.1306  0.3547
31771W        W38371  31.135   7.083   8.993  0.0350 -0.1116  0.0273
31772W        W38372  14.825   5.731   7.851 -0.1917 -0.3938  0.0111
31773W        W38373  25.868   3.470  15.029 -0.3601 -0.4331  0.1890
31774W        W38374  10.617   6.444   7.807  0.1519 -0.3979  0.3609
31775W        W38375   5.514   7.499  21.708  0.0732  0.2066  0.2586
31776W        W38376   8.554   4.458  15.717  0.2287 -0.3287 -0.0246
31777W        W38377   3.618   5.226  21.413  0.2149 -0.1027 -0.2923
31778W        W38378  16.448   0.600  24.480  0.2150 -0.2847  0.3282
31779W        W38379  12.108   5.706   5.137 -0.1976 -0.0131  0.0471
31780W        W38380  23.377   2.263  24.566  0.1918  0.0652  0.0044
31781W        W38381   6.624   3.391  19.626  0.0167 -0.0865 -0.1276
31782W        W38382  26.504   5.351   4.074 -0.0572  0.0888 -0.1283
31783W        W38383  19.610   0.744  24.223  0.1900  0.0407  0.0319
31784W        W38384   8.571   0.511  19.967 -0.3168 -0.1811  0.0289
31785W        W38385  24.926   3.029  22.729 -0.1660 -0.0335  0.0287
31786W        W38386  18.691   1.735  24.471  0.0326 -0.0878  0.1962
31787W        W38387  12.709   7.637  17.241 -0.1564 -0.1478  0.3615
31788W        W38388  12.370   7.116  23.641  0.0794  0.0016 -0.4075
31789W        W38389  27.312   0.043   1.528  0.1799 -0.0377 -0.3306
31790W        W38390  21.840   6.326  21.874 -0.0136 -0.0233 -0.1309
31791W        W38391  20.643   7.064  20.598 -0.4519 -0.1380 -0.2568
31792W        W38392   0.597   0.094  15.464 -0.4223  0.0431  0.1745
31793W        W38393   7.205   7.362  19.213 -0.1244 -0.1621  0.2369
31794W        W38394  25.647   2.425   6.217  0.1240  0.2278 -0.1340
31795W        W38395   3.767   3.385  15.557  0.1896 -0.0621  0.0864
31796W        W38396  19.009   3.538  10.674  0.1010  0.3726 -0.0743
31797W        W38397  16.763   5.077  16.554  0.1574  0.0026 -0.1366
31798W        W38398  28.133   1.260  23.928  0.1136  0.1267 -0.1812
31799W        W38399  20.373   1.635  15.710  0.1074  0.5315  0.2689
31800W        W38400  24.407   6.424   2.630 -0.0194 -0.0554 -0.0396
31801W        W38401  11.502   4.200   5.188  0.0805 -0.2549  0.2127
31802W        W38402  10.441   4.689  24.265  0.2255 -0.2069  0.5899
31803W        W38403  27.363   7.811   3.874 -0.0527  0.1051 -0.0713
31804W        W38404  29.727   5.766  17.205  0.3916  0.1261 -0.2405
31805W        W38405   5.423   6.208  16.213 -0.2373  0.1182  0.1281
31806W        W38406  27.151   5.431  23.609 -0.2218  0.1683 -0.2044
31807W        W38407   3.728   4.417  18.693 -0.2031  0.2334 -0.2266
31808W        W38408   6.023   1.737  18.483 -0.4917 -0.2012  0.3101
31809W        W38409   5.514   5.602  17.776 -0.1835 -0.1328  0.1616
31810W        W38410  28.781   5.444  18.520 -0.2473  0.0290  0.1214
31811W        W38411   7.035   7.506  15.002  0.1492 -0.3509  0.0273
31812W        W38412  20.540   5.110   5.403  0.1189 -0.2144 -0.0182
31813W        W38413   0.969   3.723  16.474  0.3457  0.0841  0.1327
31814W        W38414   9.922   6.064  23.667  0.1826  0.1719 -0.0287
31815W        W38415   7.102   3.542   8.772  0.0960 -0.0078 -0.0874
31816W        W38416   0.916   7.126   7.381 -0.2031  0.1406 -0.0896
31817W        W38417   3.093   4.043  17.604 -0.1274 -0.0096 -0.2083
31818W        W38418  29.418   5.252   2.042  0.0142 -0.1231  0.1311
31819W        W38419  28.692   4.447  16.163  0.2071 -0.0541 -0.0363
31820W        W38420  11.580   5.535   6.255  0.5121 -0.0904  0.0432
31821W        W38421  13.801   1.399  22.938 -0.1609  0.1396 -0.2266
31822W        W38422   3.781   3.148   6.166 -0.0351  0.3732 -0.0440
31823W        W38423   6.273   5.565  24.289  0.0103  0.1879  0.0542
31824W        W38424   2.499   0.068  23.744 -0.0404  0.0481 -0.0962
31825W        W38425   1.438   4.700  18.140 -0.1959  0.3427 -0.1562
31826W        W38426  11.383   5.569  18.673 -0.1286 -0.1322 -0.0728
31827W        W38427  27.706   7.067   2.802 -0.3547  0.3278  0.0102
31828W        W38428  22.976   3.066   8.805 -0.0444 -0.0415  0.0513
31829W        W38429  16.601   4.701  17.954 -0.2060  0.0090 -0.1044
31830W        W38430  12.982   3.470  15.271 -0.1158 -0.1732  0.1828
31831W        W38431  27.701   0.892   6.031 -0.0761  0.2652  0.1478
31832W        W38432   4.252   3.544   4.232  0.1524 -0.0612 -0.0195
31833W        W38433  30.892   7.193   9.751  0.0433  0.4234  0.0039
31834W        W38434  19.757   2.758  21.591  0.2459 -0.1570  0.1339
31835W        W38435  15.914   1.193  20.536  0.0230 -0.1027  0.1138
31836W        W38436  17.234   2.550  17.410 -0.1307 -0.1140  0.0145
31837W        W38437  24.065   1.940  24.299  0.1374  0.0207  0.1427
31838W        W38438  11.729   1.788   5.098  0.2135  0.2362 -0.3828
31839W        W38439   2.854   1.248   9.509  0.2521  0.0145  0.3041
31840W        W38440   7.163   6.033  15.944 -0.0220  0.1992  0.1877
31841W        W38441  10.074   6.459  21.318  0.1225  0.1656 -0.3778
31842W        W38442  24.817   0.448  19.970 -0.0734  0.1555  0.2528
31843W        W38443  17.661   2.338   5.976 -0.0199  0.0476  0.0244
31844W        W38444   2.967   3.972   0.348 -0.1784  0.0872 -0.0992
31845W        W38445  22.559   7.245  10.738 -0.1215 -0.0406 -0.1210
31846W        W38446  31.089   3.970  25.028  0.0287 -0.1758 -0.0011
31847W        W38447   3.935   3.077  25.000 -0.0237  0.1004 -0.2212
31848W        W38448  28.913   0.044   9.375  0.1134 -0.0550  0.2212
31849W        W38449  14.271   6.696   9.789  0.0586  0.0517  0.0203
31850W        W38450  29.401   5.801  24.042  0.1526 -0.1466 -0.1287
31851W        W38451   1.525   6.315   1.004 -0.3366  0.1270  0.0799
31852W        W38452   8.826   4.502   0.047 -0.2405  0.1160  0.1143
31853W        W38453   9.180   1.202  23.595  0.1275 -0.0464 -0.0193
31854W        W38454  18.798   0.878   2.217 -0.2287 -0.1597  0.2173
31855W        W38455  21.952   7.175  18.564  0.1662  0.1238 -0.2004
31856W        W38456   0.228   4.418   8.636  0.0850  0.0100 -0.1424
31857W        W38457  20.690   4.671  15.266 -0.0284 -0.0662 -0.3676
31858W        W38458  10.529   5.710  22.105  0.0802 -0.1329  0.1384
31859W        W38459  22.475   0.038   6.860  0.1051 -0.1391 -0.4435
31860W        W38460  12.967   1.679  19.778 -0.2747  0.0814 -0.2416
31861W        W38461   4.483   3.576   0.322 -0.2438 -0.1226 -0.0722
31862W        W38462  19.952   3.251  22.496 -0.0718  0.1603 -0.1012
31863W        W38463  16.244   4.318   8.922 -0.0745  0.1095 -0.2049
31864W        W38464  16.582   2.944   1.091  0.0113  0.4839 -0.3998
31865W        W38465  22.681   4.176  21.495 -0.0081  0.1999 -0.2663
31866W        W38466  14.538   4.040  25.193 -0.4437 -0.0441  0.0609
31867W        W38467   9.308   5.373   0.821  0.2604 -0.0195  0.0386
31868W        W38468   2.146   3.332  16.645 -0.0349 -0.3771 -0.0607
31869W        W38469  23.850   6.973   1.992  0.1268 -0.0702 -0.0113
31870W        W38470   5.201   5.833   5.102  0.0224 -0.1638 -0.2113
31871W        W38471  30.965   7.076  15.492  0.1524  0.2607  0.1362
31872W        W38472  20.612   3.101   8.076 -0.2708  0.2308  0.0496
31873W        W38473   3.364   1.178  19.078  0.1885 -0.0101  0.1639
31874W        W38474  23.649   5.925   6.475 -0.1603 -0.0074 -0.0562
31875W        W38475  21.729   2.856  20.586  0.0526  0.4691  0.2291
31876W        W38476  18.420   1.695  21.211  0.1215 -0.1453 -0.2304
31877W        W38477  21.783   2.780   3.874  0.1199 -0.0249 -0.0836
31878W        W38478  26.800   0.332   8.847 -0.0283 -0.1421  0.1756
31879W        W38479  22.861   0.047  16.182 -0.2200 -0.0073  0.2032
31880W        W38480  26.957   6.330   6.020 -0.1256 -0.0678  0.3972
31881W        W38481  25.555   0.547   8.471 -0.0457  0.1995 -0.0838
31882W        W38482   1.151   5.697   3.309  0.2728 -0.0026  0.0363
31883W        W38483  30.391   4.038  25.966  0.1009  0.0993 -0.0743
31884W        W38484  16.570   3.839   8.460  0.2560 -0.1199  0.1084
31885W        W38485  23.070   1.975  20.995  0.1567  0.2279 -0.1175
31886W        W38486  10.140   4.376   9.004 -0.1967  0.1735 -0.0136
31887W        W38487  18.365   0.471  21.202  0.0054  0.1882 -0.1069
31888W        W38488   3.768   7.606   0.232 -0.0222 -0.0305  0.2674
31889W        W38489  19.603   3.868   4.032  0.2897 -0.0611 -0.3014
31890W        W38490   8.103   7.689  25.544  0.1842 -0.2281  0.1426
31891W        W38491   7.327   1.079  19.552 -0.0797 -0.0544  0.0162
31892W        W38492   1.176   1.937  20.996 -0.1395 -0.3494 -0.1333
31893W        W38493   0.398   0.937   1.747 -0.1614 -0.1112 -0.1119
31894W        W38494  16.003   6.654   6.044 -0.2195 -0.1822 -0.3154
31895W        W38495  10.544   1.500   9.824  0.4201 -0.1419  0.1929
31896W        W38496  25.074   0.021   7.919 -0.0895 -0.1821 -0.0995
31897W        W38497   9.745   5.536  21.072 -0.2731 -0.0402 -0.1468
31898W        W38498   4.115   6.031  22.580  0.0603 -0.1583  0.0887
31899W        W38499  10.183   4.159  20.987 -0.3370  0.2483  0.1961
31900W        W38500  24.679   3.441   9.740 -0.1606  0.1106 -0.3921
31901W        W38501  25.338   2.916  25.251  0.1044 -0.0549  0.2034
31902W        W38502  21.261   5.586   0.782 -0.2058  0.0333 -0.1136
31903W        W38503  26.258   0.284   3.844 -0.1572 -0.0595  0.1451
31904W        W38504  25.450   0.565   0.368 -0.1204  0.1143  0.0554
31905W        W38505   6.736   1.639  16.221  0.0185  0.0628  0.0595
31906W        W38506   2.585   3.083  23.040 -0.0018  0.2255 -0.0756
31907W        W38507   7.243   0.317  22.531  0.0201 -0.1438 -0.1323
31908W        W38508  25.633   4.066   7.911  0.2811  0.2487 -0.0666
31909W        W38509  17.784   1.641   6.526 -0.1650 -0.5890 -0.0686
31910W        W38510  16.752   7.068   7.039 -0.2391 -0.0833 -0.0316
31911W        W38511   9.317   0.129  20.047  0.0954  0.0874  0.1873
31912W        W38512   5.872   6.875  24.543  0.2373  0.0051 -0.0543
31913W        W38513   2.830   1.184   5.005  0.2849  0.2902 -0.0168
31914W        W38514  29.325   6.089   3.147  0.1254  0.0483  0.2762
31915W        W38515  10.057   4.777   5.013 -0.2030  0.0348 -0.0567
31916W        W38516  23.274   6.786   2.220  0.2891 -0.1531  0.0368
31917W        W38517  29.780   3.706   3.887  0.0786  0.1464  0.0840
31918W        W38518  12.243   5.649  19.124  0.1069 -0.0398  0.0444
31919W        W38519  18.623   7.272  10.005  0.1948 -0.1634  0.1103
31920W        W38520   3.327   3.216   9.398  0.1985  0.0294  0.1764
31921W        W38521  26.254   2.125  22.457  0.0989 -0.1480 -0.1365
31922W        W38522  11.249   0.645   8.403  0.1339  0.3046  0.1295
31923W        W38523   4.735   5.503  23.585 -0.0634  0.2361 -0.1248
31924W        W38524  11.009   2.461  22.719 -0.3767 -0.0469  0.2173
31925W        W38525   0.217   6.901  14.407 -0.1217  0.0768 -0.0072
31926W        W38526   8.536   4.846  17.049 -0.1616 -0.0224 -0.1064
31927W        W38527   5.001   0.875  18.771 -0.0974 -0.1098  0.2806
31928W        W38528  20.922   3.438  15.923  0.0518 -0.0479 -0.1520
31929W        W38529   2.142   4.226  22.028 -0.2118  0.1799  0.1801
31930W        W38530   9.824   6.007  11.153 -0.2982  0.1410  0.1874
31931W        W38531   3.943   6.729  15.513  0.0683 -0.0006  0.2387
31932W        W38532  20.094   5.029   5.277 -0.2007  0.0395 -0.0535
31933W        W38533   3.041   4.819   2.971 -0.0811  0.0755 -0.0885
31934W        W38534  10.616   4.105  16.418  0.0752  0.1934  0.0993
31935W        W38535   8.643   3.262   2.634  0.0195  0.0373 -0.0306
31936W        W38536  27.907   6.643   8.311  0.3429  0.3328  0.1317
31937W        W38537  14.307   2.158   5.526  0.1148  0.1873  0.2456
31938W        W38538  26.724   6.328  22.589  0.0828  0.0677  0.3120
31939W        W38539   1.412   2.988  15.454  0.4241 -0.2022 -0.2437
31940W        W38540   2.398   3.806   3.747  0.2946 -0.4633 -0.2530
31941W        W38541  24.807   0.982   4.967 -0.1604 -0.0151  0.1547
31942W        W38542   2.666   2.334  17.266  0.2176  0.0594  0.0253
31943W        W38543  10.165   2.334  24.922 -0.1020 -0.0253  0.0702
31944W        W38544  27.866   6.584  19.499  0.1265  0.1934 -0.0980
31945W        W38545   9.145   1.902   4.393 -0.0254 -0.0492 -0.2254
31946W        W38546  18.758   7.559   1.818  0.4085 -0.0613  0.2694
31947W        W38547   3.652   3.747  16.496  0.0437  0.1294  0.2474
31948W        W38548   2.008   3.351  22.117 -0.1168  0.2886 -0.1957
31949W        W38549  24.579   3.457   5.622  0.1069  0.1365  0.1815
31950W        W38550  26.133   6.784  16.484 -0.3307  0.0815 -0.0083
31951W        W38551   1.006   7.317   9.842 -0.0662  0.2217 -0.0761
31952W        W38552   0.055   0.233   2.388  0.0139  0.0040  0.1390
31953W        W38553  30.011   4.823  25.495  0.1544  0.0668  0.0304
31954W        W38554  31.255   5.467  16.008 -0.1615 -0.1824 -0.0241
31955W        W38555  16.927   1.199  17.941 -0.0202 -0.0338  0.0585
31956W        W38556  22.134   5.797   3.619  0.2385  0.1393  0.1780
31957W        W38557  26.610   4.540  18.368  0.1291 -0.3454  0.1737
31958W        W38558  14.279   5.312  19.033  0.0691 -0.0842  0.0902
31959W        W38559  22.893   6.625  16.974  0.0515  0.2173 -0.1319
31960W        W38560  23.122   4.215   5.990  0.0373 -0.1080  0.1748
31961W        W38561  15.120   4.740  20.708 -0.1762 -0.5499  0.0730
31962W        W38562   2.510   3.496  23.998  0.1827 -0.3466  0.1923
31963W        W38563   0.193   1.171   8.552 -0.3025 -0.1736  0.1884
31964W        W38564  29.088   1.540  24.421 -0.1612 -0.2203  0.0249
31965W        W38565  17.772   7.054  24.814  0.0765 -0.3536  0.2394
31966W        W38566  17.175   6.054  16.149  0.1158 -0.0136  0.0927
31967W        W38567  31.221   1.346  20.836 -0.4340  0.4041 -0.1070
31968W        W38568  26.695   0.798   0.133  0.1978  0.1478  0.1581
31969W        W38569   4.212   4.264  21.613  0.0271 -0.0349  0.0365
31970W        W38570   4.046   5.444  17.870 -0.1803  0.0156  0.2106
31971W        W38571   3.064   6.591  21.286 -0.1790  0.0847 -0.1852
31972W        W38572   4.073   3.261  17.786  0.0302  0.0866  0.3355
31973W        W38573  21.564   4.519  20.173  0.0317 -0.1613  0.0406
31974W        W38574  16.539   6.191  11.672  0.0154  0.1407  0.4591
31975W        W38575  28.791   6.856  19.337 -0.2006 -0.0405 -0.5035
31976W        W38576   4.412   6.803  17.311  0.0511 -0.2976 -0.1950
31977W        W38577   9.339   4.318  16.646 -0.0048 -0.3340 -0.0179
31978W        W38578  28.297   5.989   2.255 -0.2063 -0.0857  0.1219
31979W        W38579   7.133   5.002   5.186  0.1694  0.0253 -0.2446
31980W        W38580  13.728   3.706   1.478 -0.2170 -0.0043  0.0795
31981W        W38581  26.611   2.255   1.056  0.1113 -0.1052  0.0985
31982W        W38582  24.111   2.399  10.414  0.0348 -0.3309 -0.1313
31983W        W38583  22.763   1.058  20.008 -0.4706  0.3538  0.1131
31984W        W38584  14.096   4.535  22.881 -0.0529  0.0211 -0.2533
31985W        W38585  16.579   2.253  16.835  0.2723 -0.2573  0.0332
31986W        W38586   2.420   4.972   3.633  0.2330  0.2454 -0.1197
31987W        W38587  13.551   4.572   1.878  0.1814 -0.0421  0.0081
31988W        W38588   5.886   1.798  22.510 -0.0407  0.0563 -0.2839
31989W        W38589   9.367   6.771  22.737  0.2894 -0.0675 -0.0631
31990W        W38590   5.512   2.403  15.436  0.1026 -0.3267 -0.0522
31991W        W38591  17.649   0.391  16.892  0.0044  0.1064  0.1000
31992W        W38592  31.165   2.787   4.484  0.1281  0.2178 -0.1479
31993W        W38593  23.470   4.941  23.891  0.0638 -0.1452  0.0388
31994W        W38594  27.535   0.409  23.201 -0.1448 -0.0093  0.0060
31995W        W38595  21.030   2.988  21.182 -0.2577 -0.1094 -0.0229
31996W        W38596  21.086   4.326  11.032 -0.0534 -0.5490  0.3816
31997W        W38597  29.383   1.365   6.642 -0.3081  0.0418 -0.1470
31998W        W38598  16.415   3.752  24.160  0.1331 -0.0714  0.1391
31999W        W38599  21.090   6.777  10.683  0.0083  0.2576 -0.1534
32000W        W38600  14.439   0.080   3.124  0.1220  0.0584 -0.0078
32001W        W38601  23.313   7.821   4.723  0.1256  0.0189  0.0358
32002W        W38602  24.106   7.205   8.570  0.2061 -0.2050 -0.0075
32003W        W38603  30.529   4.008  16.559 -0.0504 -0.0321  0.0861
32004W        W38604  13.878   5.673  16.847 -0.0820  0.2583  0.0889
32005W        W38605  19.741   0.570   0.996 -0.2352  0.0985 -0.3648
32006W        W38606   4.601   2.213  18.709 -0.1028  0.3665  0.0219
32007W        W38607  20.985   6.065  17.577 -0.0021 -0.1032  0.1169
32008W        W38608   7.210   3.386   7.172 -0.0739  0.0732 -0.2864
32009W        W38609  11.828   1.069  24.997  0.3809 -0.2137  0.1159
32010W        W38610   6.205   7.007   4.607 -0.2023  0.0865  0.2943
32011W        W38611  19.094   5.928   5.670  0.0091 -0.1592 -0.3238
32012W        W38612   2.724   4.870   0.404 -0.1388  0.0012  0.0926
32013W        W38613  17.328   6.949   6.456  0.0290 -0.1906 -0.3435
32014W        W38614  29.252   5.059  17.608  0.1872  0.1654 -0.0275
32015W        W38615  27.119   2.260   8.135 -0.0862 -0.0186  0.1757
32016W        W38616  21.850   4.850  19.956 -0.0348 -0.1020 -0.0874
32017W        W38617  22.310   6.568   3.857  0.0084 -0.0544  0.0496
32018W        W38618  25.314   3.353   3.742 -0.0657 -0.0213 -0.1518
32019W        W38619  26.550   7.288   6.900  0.1994  0.0899 -0.0228
32020W        W38620   7.694   4.403  24.295 -0.2225 -0.0440  0.2075
32021W        W38621   3.846   5.463  20.509  0.1213 -0.3433 -0.1083
32022W        W38622   8.900   1.569  23.530  0.1674  0.1092  0.0851
32023W        W38623   7.864   5.705  25.511  0.5165 -0.1018 -0.1659
32024W        W38624  20.112   7.179  23.237  0.0266 -0.2933  0.3024
32025W        W38625  26.854   1.746   8.617 -0.1107 -0.0090  0.1126
32026W        W38626  17.645   3.523   0.303 -0.0290  0.0219  0.3086
32027W        W38627  18.691   1.728  21.626 -0.0438  0.1488 -0.1155
32028W        W38628  15.681   4.600  17.514  0.0697 -0.0402  0.2074
32029W        W38629  14.678   1.486   2.675  0.0967  0.1637  0.1229
32030W        W38630  10.040   0.914  17.305  0.0258 -0.0049  0.1330
32031W        W38631   4.421   4.277   0.941  0.1299  0.2706  0.3086
32032W        W38632   1.872   1.669   9.387  0.1499  0.0966 -0.0827
32033W        W38633   0.831   5.524   0.656 -0.0314 -0.2370  0.0777
32034W        W38634   1.198   7.743  14.682 -0.1082  0.1020  0.0871
32035W        W38635   0.004   1.401   9.190 -0.1096  0.1517  0.0645
32036W        W38636   0.156   6.062   3.930 -0.2703 -0.1809  0.0260
32037W        W38637   9.832   6.835  16.328  0.0892 -0.2234  0.0825
32038W        W38638   3.516   2.402  23.446 -0.0537 -0.0169 -0.0696
32039W        W38639  12.599   5.824  19.453  0.1850 -0.2735 -0.5014
32040W        W38640   2.170   7.257  22.676 -0.1994  0.1911  0.1310
32041W        W38641  29.260   4.429   5.435  0.3778  0.1535 -0.0231
32042W        W38642  23.696   4.861  23.111  0.0978  0.1610 -0.0323
32043W        W38643   3.503   1.607  24.454 -0.2171 -0.1943  0.1772
32044W        W38644  24.495   7.659   6.479  0.0350 -0.0860  0.1040
32045W        W38645  17.446   3.863  11.096  0.2565  0.0667  0.0106
32046W        W38646  31.162   7.149   4.086  0.0925  0.3409  0.1605
32047W        W38647  10.864   4.821  24.996 -0.2393  0.3607 -0.3724
32048W        W38648  28.985   0.692  24.543  0.2661 -0.0273  0.0271
32049W        W38649   2.302   7.476  17.471 -0.1946  0.0005  0.0753
32050W        W38650   2.322   5.035   0.046 -0.0302  0.2064  0.3124
32051W        W38651  13.174   0.172   5.785 -0.0546 -0.0465  0.3007
32052W        W38652  24.182   6.737   4.975 -0.0304 -0.0517 -0.2011
32053W        W38653   3.528   4.443   0.930  0.4106  0.1643 -0.1304
32054W        W38654  21.133   4.273  22.134  0.2679  0.0312 -0.0844
32055W        W38655  24.421   3.416   7.989  0.3611  0.1618 -0.1936
32056W        W38656  25.485   1.502   8.507 -0.3141 -0.3269  0.2707
32057W        W38657  24.742   0.448  20.569  0.0248  0.0901 -0.2723
32058W        W38658  29.538   0.171  24.016  0.0863 -0.2070  0.1940
32059W        W38659   7.678   7.089  21.771  0.2910 -0.1361 -0.1005
32060W        W38660  30.455   3.281   5.077  0.1680  0.3553 -0.1511
32061W        W38661   4.722   1.405  15.052 -0.0228 -0.0990 -0.2459
32062W        W38662  28.675   7.209   8.121 -0.0164 -0.0177  0.1506
32063W        W38663   3.705   1.497  23.477  0.0719  0.0781  0.1116
32064W        W38664  11.090   6.464  17.537 -0.4538  0.1515 -0.1223
32065W        W38665   8.341   1.910   1.985 -0.1125 -0.0881 -0.1235
32066W        W38666   7.896   4.928  19.078 -0.0846 -0.2995 -0.0745
32067W        W38667  29.911   7.534   6.231 -0.1370 -0.2085  0.0041
32068W        W38668  27.411   4.716   0.066  0.1038  0.3021  0.2115
32069W        W38669  17.753   6.877  19.831  0.2282 -0.1415 -0.4607
32070W        W38670  13.829   7.689  22.157  0.1612  0.3906  0.1781
32071W        W38671  21.404   3.263  21.988 -0.1362  0.2119 -0.1315
32072W        W38672  24.833   1.328  20.286 -0.3685 -0.0074 -0.0392
32073W        W38673   3.640   1.271  10.005  0.2415  0.0397  0.0470
32074W        W38674  27.743   3.213   4.590 -0.2738  0.0422 -0.1379
32075W        W38675  24.154   0.733   1.398 -0.1531  0.1571 -0.0462
32076W        W38676  17.103   5.310   3.064 -0.1241 -0.1313  0.0404
32077W        W38677  30.112   2.912   8.230 -0.0703 -0.2656 -0.2803
32078W        W38678  10.193   4.486  16.181  0.2135  0.3166 -0.1658
32079W        W38679  11.042   0.347  24.378  0.1771 -0.1492  0.1739
32080W        W38680  21.478   5.321   7.952 -0.2188 -0.3471 -0.3191
32081W        W38681   7.518   7.796  21.197  0.1121  0.1063 -0.0220
32082W        W38682  26.341   1.261   6.552 -0.2147 -0.0928  0.0144
32083W        W38683   7.644   0.000   1.701 -0.2048 -0.1367 -0.2775
32084W        W38684  23.803   7.813  24.209 -0.0385  0.1391  0.1494
32085W        W38685  16.201   4.212  25.012 -0.2517  0.2121 -0.1085
32086W        W38686  16.686   5.672   5.162  0.0121  0.0082 -0.1803
32087W        W38687  30.483   0.695   0.395  0.0887  0.0149  0.1186
32088W        W38688  26.177   2.213   0.175  0.0474 -0.1226 -0.0264
32089W        W38689   5.443   2.174  22.397  0.1110  0.2383 -0.2924
32090W        W38690  24.566   0.328  25.738 -0.2608  0.4117  0.2350
32091W        W38691  23.155   4.202  21.284  0.1218  0.1964  0.0216
32092W        W38692   7.176   1.005   0.644  0.1931 -0.1841 -0.0155
32093W        W38693   9.275   0.469  25.022 -0.0223  0.1742  0.1316
32094W        W38694  24.926   6.000  17.563 -0.1705  0.1277  0.0329
32095W        W38695  10.181   6.092   5.005 -0.0439 -0.3372  0.1308
32096W        W38696  14.071   5.332  24.402  0.2748 -0.2823  0.1986
32097W        W38697  31.333   4.485   4.692  0.0347 -0.1637  0.3618
32098W        W38698  25.505   6.616  15.467 -0.1771  0.1808 -0.1926
32099W        W38699  15.618   2.580   3.966  0.0428 -0.2135 -0.0528
32100W        W38700  23.792   4.121   3.550  0.2137 -0.1006 -0.1511
32101W        W38701   4.457   6.826  24.809  0.0262  0.2630  0.0427
32102W        W38702   2.561   7.432   5.460 -0.1181  0.0732  0.1145
32103W        W38703  25.365   6.590   6.721 -0.1040  0.0818 -0.0803
32104W        W38704  25.832   7.754  18.669  0.0228 -0.2142 -0.1028
32105W        W38705   5.861   4.537  20.752  0.1639  0.3355  0.0974
32106W        W38706  19.536   5.278  18.551 -0.0283  0.2230  0.0431
32107W        W38707   4.211   3.486  18.846 -0.0578  0.1346  0.2506
32108W        W38708   0.700   0.288  16.831 -0.1092  0.3743  0.1243
32109W        W38709   0.625   7.574  24.237 -0.0931  0.0153  0.0253
32110W        W38710  16.785   7.677  23.722 -0.0513 -0.0516  0.1215
32111W        W38711  10.926   1.769  16.135  0.0221  0.4837 -0.4084
32112W        W38712   9.811   5.912   7.295 -0.1292  0.1643 -0.0486
32113W        W38713   3.663   3.214   8.584  0.2036 -0.2656 -0.1771
32114W        W38714  24.774   5.468  20.649  0.1232  0.1088 -0.0486
32115W        W38715   7.941   1.364   5.648  0.4030  0.0824 -0.2665
32116W        W38716  14.642   6.979   3.218 -0.1755  0.2560  0.1957
32117W        W38717  29.788   2.667   8.629  0.0909 -0.1091  0.0231
32118W        W38718  13.581   3.488   7.663 -0.0906  0.6943  0.0400
32119W        W38719  10.334   4.143  18.975  0.3060 -0.1173 -0.2147
32120W        W38720  24.250   3.625   6.676  0.3614 -0.1841 -0.1928
32121W        W38721   6.996   5.969  17.885 -0.0875  0.1635  0.0916
32122W        W38722   9.031   6.986  19.399  0.0793  0.0337  0.1103
32123W        W38723   3.314   4.832  14.891 -0.3188  0.1527  0.0243
32124W        W38724  22.935   0.786  20.772  0.0609  0.0144  0.1875
32125W        W38725  11.205   3.415  22.036  0.1983  0.1273 -0.1020
32126W        W38726  18.002   0.124   2.498  0.1270  0.3005  0.0983
32127W        W38727  13.054   6.148  19.111 -0.2229  0.0337 -0.3226
32128W        W38728  20.413   1.663  19.697 -0.0685  0.1228 -0.1860
32129W        W38729  15.022   6.612  24.383 -0.0926 -0.1720  0.2550
32130W        W38730   1.674   5.960   0.510  0.0628 -0.3467  0.1956
32131W        W38731  31.343   5.226  17.902  0.1000  0.1182  0.0633
32132W        W38732   0.360   7.617   1.712  0.1452  0.0706 -0.2045
32133W        W38733   0.218   2.771   7.519  0.0275  0.1688  0.0876
32134W        W38734   9.669   6.120  17.906  0.1880  0.2418 -0.0995
32135W        W38735  15.699   7.278  25.241 -0.0915  0.0397  0.1756
32136W        W38736   2.833   3.492  15.452 -0.1589 -0.1308  0.0457
32137W        W38737  19.818   3.059  25.285  0.1706 -0.0570  0.2553
32138W        W38738   3.852   0.075   5.425  0.1423 -0.1805 -0.2622
32139W        W38739  27.896   7.007  19.935  0.1158  0.0203  0.1884
32140W        W38740  18.566   4.964   5.481  0.1894  0.4238 -0.3476
32141W        W38741  24.616   6.492  18.274 -0.2122  0.5392 -0.1415
32142W        W38742   7.848   6.457   7.222 -0.1180  0.0957 -0.1437
32143W        W38743  11.145   4.350   3.418 -0.0123 -0.2800  0.2497
32144W        W38744  20.110   0.470   6.511  0.1906 -0.3405 -0.1515
32145W        W38745   0.031   0.314   5.216 -0.1606 -0.0343 -0.0573
32146W        W38746   6.497   4.043  23.100  0.4445  0.3679  0.2473
32147W        W38747   3.270   3.436   2.233 -0.1270  0.3668 -0.4142
32148W        W38748  31.367   3.356  17.354  0.0099  0.0177  0.1353
32149W        W38749   2.857   5.933  16.574 -0.0451 -0.0258  0.1517
32150W        W38750   5.855   5.172   1.881 -0.3114 -0.2007 -0.0616
32151W        W38751   9.081   6.911  17.963  0.1419 -0.0971 -0.0727
32152W        W38752  24.111   7.634   8.321 -0.2048 -0.0927 -0.1169
32153W        W38753   5.365   0.260   9.806  0.4116  0.1917  0.2925
32154W        W38754   6.443   3.913   4.747  0.0370  0.2312  0.1253
32155W        W38755  18.461   5.715   0.407  0.2539 -0.0881 -0.2643
32156W        W38756   3.758   2.561  22.428  0.0879  0.2237  0.1035
32157W        W38757  12.289   2.904   4.553 -0.0593 -0.0819  0.1626
32158W        W38758  19.477   5.857   9.085  0.1293 -0.1316  0.1120
32159W        W38759  14.993   2.867   4.230 -0.0586  0.1910  0.2096
32160W        W38760   2.314   4.357   4.076 -0.3399  0.2251 -0.3271
32161W        W38761  12.140   1.680   7.059 -0.2874 -0.2494  0.2653
32162W        W38762  21.047   7.179  24.708 -0.1236 -0.1903 -0.0876
32163W        W38763  27.600   0.274  25.413 -0.0954 -0.0346 -0.0657
32164W        W38764   3.718   6.990  21.808 -0.2169 -0.0460  0.0827
32165W        W38765   1.816   2.610   1.087 -0.3970 -0.1141 -0.1113
32166W        W38766  30.614   2.852  16.128  0.2431 -0.0781 -0.1340
32167W        W38767   0.907   4.117   0.820 -0.2810  0.0096 -0.2552
32168W        W38768  21.139   3.645  19.935 -0.0379  0.0359 -0.1921
32169W        W38769  11.985   2.184   0.807  0.2707 -0.2474 -0.1135
32170W        W38770  18.209   0.278  17.731  0.3318 -0.3522 -0.4090
32171W        W38771   6.647   6.692   1.767 -0.1847  0.0906 -0.2806
32172W        W38772  30.164   7.258  21.370  0.1827 -0.1262 -0.2928
32173W        W38773  28.868   4.106   8.359 -0.1840  0.0639 -0.0233
32174W        W38774  22.259   6.592   5.133  0.3495 -0.0007  0.1536
32175W        W38775   1.908   3.206   0.360  0.1989 -0.4126 -0.2258
32176W        W38776  23.579   4.979   8.993  0.0459 -0.0294  0.0021
32177W        W38777   8.262   2.352   2.674  0.0886 -0.0318  0.2387
32178W        W38778  30.386   0.904   7.847 -0.0036  0.0783  0.1887
32179W        W38779  19.281   1.960   5.463  0.6332 -0.3946 -0.4111
32180W        W38780  23.966   7.795   1.229  0.1136 -0.1054  0.0920
32181W        W38781  22.835   6.236   4.054  0.0267 -0.0432 -0.2083
32182W        W38782   2.782   5.852   2.074 -0.2130 -0.1957 -0.0870
32183W        W38783  12.261   4.891  23.897  0.0363 -0.3444 -0.3081
32184W        W38784  25.471   3.566   4.228 -0.0722 -0.3529 -0.1216
32185W        W38785   9.932   7.712   4.525 -0.4372 -0.1386 -0.0147
32186W        W38786  16.998   6.475  21.017  0.2293 -0.0352 -0.2546
32187W        W38787  15.265   5.301   1.320 -0.0766 -0.0125  0.2799
32188W        W38788   0.517   2.812  16.713 -0.3805  0.4236 -0.0936
32189W        W38789   6.901   7.752  11.120  0.0786 -0.2043  0.0477
32190W        W38790  17.128   0.328  21.077 -0.1123  0.3481  0.0381
32191W        W38791   1.572   6.067   9.244 -0.2498 -0.1438  0.2101
32192W        W38792   3.572   3.427  25.206 -0.0723  0.0794 -0.1960
32193W        W38793   0.524   2.299  23.919 -0.0455 -0.1813  0.2882
32194W        W38794  20.125   5.829   1.481 -0.0724 -0.2253 -0.4344
32195W        W38795  13.655   0.880  10.654  0.1821  0.0545  0.2250
32196W        W38796  14.191   5.998  16.144  0.2134 -0.1812 -0.0946
32197W        W38797  11.054   5.603  10.258 -0.0786 -0.1256  0.0140
32198W        W38798   4.431   6.318  14.921 -0.1537 -0.0318 -0.1033
32199W        W38799  18.544   2.484   1.907  0.0390 -0.1187  0.0314
32200W        W38800  25.143   7.283   4.040  0.1006  0.0116  0.0942
32201W        W38801  19.376   3.359  25.272 -0.1213  0.3319 -0.0659
32202W        W38802   5.163   0.231   4.133  0.0306 -0.2018 -0.0185
32203W        W38803  27.753   6.720   8.798 -0.2715  0.0689 -0.1064
32204W        W38804   5.519   2.505   2.770  0.1169 -0.1982 -0.0635
32205W        W38805   1.503   3.044   1.777 -0.2268  0.2575  0.0031
32206W        W38806  18.250   6.399   2.935  0.2215  0.1488 -0.2381
32207W        W38807   5.250   2.799   8.967  0.0054 -0.2167  0.1265
32208W        W38808  21.862   7.241  16.434 -0.1343 -0.0547 -0.0571
32209W        W38809  17.312   7.146   2.753 -0.0748  0.0395 -0.0454
32210W        W38810  12.906   3.518  18.302 -0.0298  0.0316 -0.4342
32211W        W38811  24.584   3.920   5.412  0.0753 -0.3466 -0.0841
32212W        W38812  18.752   5.976   0.777 -0.1954  0.1626 -0.2105
32213W        W38813  24.641   7.304  24.535 -0.1999  0.3208  0.3254
32214W        W38814   3.521   4.887  15.761  0.0852  0.1166  0.1790
32215W        W38815  13.927   1.442  22.351  0.1177 -0.0115 -0.0148
32216W        W38816  22.953   7.330   2.761 -0.1843  0.3308  0.1797
32217W        W38817  14.948   7.605   8.654 -0.0779 -0.0161 -0.1473
32218W        W38818  30.760   2.146   0.613  0.0354 -0.0817 -0.0727
32219W        W38819  12.994   1.124   8.907 -0.0103  0.1820  0.1933
32220W        W38820   5.899   0.923   4.409 -0.1431 -0.2858  0.1809
32221W        W38821  20.468   7.720   5.770  0.2050 -0.1536  0.0243
32222W        W38822   1.136   1.531   0.866  0.3471 -0.2212 -0.1556
32223W        W38823   9.120   3.435   5.687 -0.2721  0.0930  0.5364
32224W        W38824  23.579   5.250   5.231  0.1333 -0.0963  0.1142
32225W        W38825  19.154   4.754  25.886  0.1758  0.1962  0.0545
32226W        W38826   3.475   4.801  25.587  0.1714  0.0201 -0.2083
32227W        W38827  26.965   5.920  15.755 -0.3629 -0.1385 -0.0106
32228W        W38828   7.963   7.025  24.751 -0.0563 -0.0927 -0.1374
32229W        W38829  17.593   4.188  21.337  0.0892 -0.0607  0.0923
32230W        W38830  15.412   0.299  21.887 -0.1924 -0.0282  0.0146
32231W        W38831  11.441   5.414  16.839 -0.1637  0.2466 -0.0413
32232W        W38832  19.303   4.222  10.960  0.1696 -0.1325 -0.2918
32233W        W38833  13.809   0.245  20.549  0.2405 -0.1041 -0.0622
32234W        W38834  24.161   2.365  20.265  0.0775 -0.1394 -0.2312
32235W        W38835  24.728   1.625   9.303 -0.1909 -0.0943  0.1331
32236W        W38836  29.423   6.878   2.842  0.4657 -0.0966 -0.4048
32237W        W38837  15.959   5.470   5.351 -0.2538  0.3187 -0.0050
32238W        W38838  30.504   6.429  21.801 -0.1515  0.1381  0.0046
32239W        W38839  17.780   4.273   4.933 -0.1943 -0.0239  0.0680
32240W        W38840   0.954   7.122  17.352  0.3076  0.0269  0.0510
32241W        W38841  26.458   3.684   3.779  0.3352  0.1071  0.3452
32242W        W38842  12.291   2.381   7.690  0.1066  0.1412  0.0851
32243W        W38843   1.613   4.478   4.517 -0.0307  0.1685 -0.2668
32244W        W38844  18.022   7.854  16.933  0.4063 -0.0116  0.2727
32245W        W38845  17.983   2.541  19.402 -0.2436  0.3496  0.1915
32246W        W38846  24.697   5.428  19.304  0.1785 -0.0448 -0.0042
32247W        W38847   9.177   0.973   9.735  0.0318  0.2478  0.0388
32248W        W38848  13.711   4.916  21.897  0.2487 -0.1856 -0.2552
32249W        W38849  22.396   7.304  20.626  0.1963 -0.1501  0.1485
32250W        W38850  27.185   3.943   9.377 -0.0503 -0.0429  0.0179
32251W        W38851   5.943   6.233  24.146  0.2730  0.1257  0.4030
32252W        W38852  24.499   1.048   3.416  0.2460 -0.2164 -0.3646
32253W        W38853   5.346   2.889  25.600 -0.3480 -0.2599 -0.0004
32254W        W38854  30.482   6.737  17.323 -0.3839  0.3926 -0.3667
32255W        W38855  19.358   4.303  24.762 -0.2239  0.0039 -0.1411
32256W        W38856  19.345   6.620  23.464 -0.0838  0.0703  0.0336
32257W        W38857   8.471   7.493   2.218 -0.0974 -0.0767  0.0924
32258W        W38858   7.428   5.190  16.770  0.3351 -0.0812 -0.0791
32259W        W38859  28.398   2.312  17.489 -0.1993 -0.0656 -0.0955
32260W        W38860   9.745   2.959  16.168 -0.0061 -0.0237  0.0296
32261W        W38861  18.756   7.315  23.642 -0.0672  0.2815  0.3522
32262W        W38862   8.589   0.142   0.677 -0.0211  0.2049  0.2098
32263W        W38863  26.507   6.772  16.094  0.1285 -0.1446  0.0864
32264W        W38864  11.821   5.347   2.971 -0.2567  0.0624 -0.0835
32265W        W38865  15.225   0.160  11.007 -0.0168 -0.0554  0.0585
32266W        W38866  11.136   5.122  19.350  0.0701 -0.2150 -0.2740
32267W        W38867  12.856   2.028  17.990  0.0258  0.0526  0.0563
32268W        W38868  17.611   1.920  24.674  0.0231  0.2689  0.3496
32269W        W38869  10.750   6.269   6.243  0.0840 -0.0602 -0.2740
32270W        W38870   4.323   0.134  24.252  0.3053  0.3014 -0.0472
32271W        W38871  16.855   1.427  10.322 -0.1838  0.1332  0.2355
32272W        W38872  14.924   1.523  19.667  0.1771  0.1012 -0.0777
32273W        W38873   7.736   2.324   3.292  0.0249 -0.0209 -0.1706
32274W        W38874   8.358   3.082  19.542 -0.2850  0.0190  0.1683
32275W        W38875  12.659   6.901  10.114 -0.2063  0.0975 -0.2101
32276W        W38876  27.681   5.706   4.332 -0.0471 -0.1307  0.0866
32277W        W38877  23.139   5.048  25.469  0.2579  0.1369  0.0569
32278W        W38878  22.862   0.592  16.230  0.1878 -0.0037  0.1481
32279W        W38879   1.792   3.468   6.817 -0.0068 -0.0695  0.4130
32280W        W38880  15.045   7.528  15.968  0.1823  0.4764 -0.2345
32281W        W38881  19.417   5.285   1.794 -0.2861  0.0194 -0.0685
32282W        W38882   7.509   7.418   0.188 -0.2335 -0.1343  0.0297
32283W        W38883  19.609   1.715   0.223 -0.3402 -0.0705  0.0405
32284W        W38884   9.337   3.029   0.301 -0.1167  0.1178 -0.0757
32285W        W38885  14.699   4.311  18.836 -0.0273  0.0796  0.1183
32286W        W38886  27.009   3.219   6.836 -0.3670 -0.2716  0.0405
32287W        W38887  17.611   2.996   8.915  0.1506  0.1865 -0.2801
32288W        W38888   3.694   7.826  25.077  0.1682  0.0266 -0.2790
32289W        W38889  15.579   0.665   4.228 -0.2027  0.0067  0.2141
32290W        W38890   1.342   4.929   6.302 -0.0392  0.1741 -0.1827
32291W        W38891  12.073   2.767  21.029 -0.0777 -0.0054 -0.0851
32292W        W38892  26.928   7.312  19.710  0.0972 -0.0147  0.0201
32293W        W38893  24.085   0.215  21.715 -0.1956  0.1735 -0.1449
32294W        W38894   0.273   7.482  25.881  0.1758  0.1080 -0.0410
32295W        W38895  31.131   7.166  19.151  0.1943 -0.5288 -0.1441
32296W        W38896  19.059   2.097  17.049  0.5144  0.2104  0.0030
32297W        W38897  21.121   6.545  23.004 -0.0381  0.0563  0.0512
32298W        W38898  14.438   3.681   7.098 -0.1336 -0.3958  0.0126
32299W        W38899  10.685   5.221   5.428 -0.1101  0.1052 -0.3462
32300W        W38900  18.019   2.144  24.572  0.0904 -0.0197 -0.1227
32301W        W38901   5.234   3.922   5.467  0.0523 -0.2331  0.2841
32302W        W38902  12.454   1.059   4.394  0.0943  0.0999 -0.0227
32303W        W38903   2.697   4.005  16.352  0.2441  0.0748 -0.2866
32304W        W38904  18.885   7.013   4.044 -0.0705  0.0119 -0.1151
32305W        W38905  29.259   2.246   5.975 -0.1917  0.0892  0.0697
32306W        W38906   5.838   6.784   9.513 -0.3012  0.0375  0.2830
32307W        W38907   1.458   6.972   4.289 -0.3771  0.1128 -0.1338
32308W        W38908  29.226   1.817   6.730  0.0272  0.0692 -0.1757
32309W        W38909  23.602   3.389   0.708  0.2001 -0.0085  0.0004
32310W        W38910   4.687   6.834  10.292  0.0413 -0.2335  0.3330
32311W        W38911   2.569   1.441  24.630 -0.2298 -0.1126 -0.2393
32312W        W38912  21.346   1.937   3.883 -0.0272  0.2287  0.0367
32313W        W38913  22.093   0.510  24.240 -0.0691 -0.0250 -0.0563
32314W        W38914  13.596   4.811  22.706  0.3625  0.1032 -0.1584
32315W        W38915  23.037   3.941  23.454  0.0476 -0.3379  0.3505
32316W        W38916   7.888   6.812   1.417 -0.1451 -0.1054  0.0126
32317W        W38917   2.365   0.060   2.433 -0.1554  0.1047  0.0352
32318W        W38918   2.628   1.677   0.218 -0.3320  0.1792  0.0310
32319W        W38919  13.022   1.512  17.916 -0.1154 -0.1810 -0.2796
32320W        W38920  30.639   3.753   0.346  0.0954 -0.0256  0.3229
32321W        W38921   5.720   3.295   7.989  0.0588 -0.2310 -0.1156
32322W        W38922   8.669   0.916   7.420 -0.0076 -0.2472 -0.0606
32323W        W38923  24.560   1.596   1.660  0.0063  0.1288  0.0642
32324W        W38924  16.823   4.491   4.705 -0.1285  0.3119 -0.0844
32325W        W38925   5.223   6.625  21.730  0.0639  0.0432 -0.3654
32326W        W38926  11.311   5.958   0.665 -0.2213 -0.2634  0.1666
32327W        W38927  10.992   0.255  20.575 -0.1218  0.2352  0.0320
32328W        W38928   9.918   4.178   3.147 -0.4732  0.2883  0.1372
32329W        W38929  24.469   1.369  25.194  0.4433 -0.1321 -0.3569
32330W        W38930  27.905   2.535   6.504  0.1352  0.1575 -0.1728
32331W        W38931   1.323   5.786   6.618  0.2153  0.0953 -0.1153
32332W        W38932  17.571   0.930  20.048 -0.1014 -0.1422 -0.2276
32333W        W38933  31.430   0.644  20.956 -0.0647  0.0301 -0.1904
32334W        W38934  18.467   0.917   0.912  0.0853  0.2554  0.3135
32335W        W38935  20.933   7.578  23.315 -0.0977 -0.1278 -0.0982
32336W        W38936  28.836   1.244  25.563 -0.0199 -0.2859  0.1303
32337W        W38937  18.863   2.721   8.127 -0.1828  0.2473  0.0652
32338W        W38938  16.461   2.982  19.132  0.0680  0.1581  0.0688
32339W        W38939  19.734   7.786   9.398  0.1433  0.0804  0.1231
32340W        W38940  10.993   7.643  21.748 -0.3750  0.2855 -0.3085
32341W        W38941  18.051   1.311   0.092  0.2219  0.0190  0.0057
32342W        W38942  11.323   4.314  22.792  0.1236  0.1907  0.0267
32343W        W38943  12.412   2.721  20.211  0.2861 -0.0136  0.1275
32344W        W38944  15.334   1.420  18.507 -0.1354  0.0342 -0.0224
32345W        W38945  25.612   3.621  21.164  0.0006  0.0295 -0.3481
32346W        W38946  19.262   4.566   2.489 -0.1637  0.0273  0.1805
32347W        W38947   8.982   1.408  17.911  0.1672 -0.1181 -0.1281
32348W        W38948   5.761   0.627   0.292  0.1257 -0.0807  0.0782
32349W        W38949  22.050   1.301  20.355 -0.1716  0.2407 -0.0545
32350W        W38950  12.395   3.120   1.946  0.1629  0.1576 -0.1151
32351W        W38951   3.345   3.893  18.045 -0.1148 -0.0477 -0.2459
32352W        W38952  16.682   6.563  10.555  0.1482 -0.2464 -0.0122
32353W        W38953   9.332   6.470  20.862  0.0809 -0.1080 -0.0606
32354W        W38954  30.476   1.971   3.306 -0.0213 -0.2244  0.1598
32355W        W38955   0.720   5.561   7.008  0.0057  0.0228  0.0048
32356W        W38956  29.731   3.841  16.108  0.1068 -0.0811 -0.0237
32357W        W38957  17.670   3.300  10.578  0.2018  0.2674 -0.0237
32358W        W38958  18.335   1.493  25.398  0.1085  0.0151 -0.1840
32359W        W38959   3.333   1.958   6.893 -0.3104  0.0148  0.0515
32360W        W38960  26.864   1.604   9.587  0.0947 -0.2208 -0.0806
32361W        W38961   7.115   2.097   1.422  0.1139 -0.0623  0.0714
32362W        W38962  21.170   4.976   6.990 -0.1614  0.0863 -0.1456
32363W        W38963  19.563   7.167  18.379  0.1477  0.5159  0.2517
32364W        W38964  27.112   6.351  10.677 -0.0716  0.2892  0.0730
32365W        W38965   8.331   1.359  10.295 -0.0952 -0.0338  0.1913
32366W        W38966  16.109   6.460   5.572  0.1177  0.0436  0.1826
32367W        W38967  18.373   4.063  22.239  0.0647  0.1258 -0.1733
32368W        W38968   4.367   3.445   7.483  0.0809  0.1044 -0.0490
32369W        W38969   7.186   0.051  14.839 -0.0260 -0.3942 -0.0661
32370W        W38970  14.014   0.789   3.121 -0.2066 -0.2420  0.4714
32371W        W38971  20.543   0.770  17.939  0.1585 -0.0407 -0.0272
32372W        W38972   4.429   4.092   6.914 -0.0765  0.0411  0.1011
32373W        W38973  23.282   1.208   0.729 -0.2589 -0.0681  0.0413
32374W        W38974  20.438   1.846   3.346  0.0979 -0.4353  0.1056
32375W        W38975  29.536   3.850  18.530  0.3249 -0.1476 -0.0035
32376W        W38976   6.569   7.691   6.565 -0.3552 -0.1040  0.0076
32377W        W38977  19.044   7.608   6.105 -0.0831 -0.2169 -0.3497
32378W        W38978  19.709   6.243  23.591 -0.1757 -0.0818 -0.4140
32379W        W38979  25.612   3.065  22.700 -0.2702  0.0336  0.2615
32380W        W38980   5.501   2.345  25.385  0.0945  0.2371 -0.4697
32381W        W38981  23.060   7.495   8.679 -0.1388  0.0307 -0.0129
32382W        W38982   9.648   4.009  25.754 -0.0522 -0.3201  0.1256
32383W        W38983   3.261   6.959  18.578  0.0270  0.0946 -0.0523
32384W        W38984  14.891   5.106  15.964 -0.1762  0.1074  0.0635
32385W        W38985   8.372   2.382   6.532  0.1602  0.3200  0.1581
32386W        W38986   1.701   4.129  18.715  0.0918  0.0565 -0.0707
32387W        W38987  29.754   2.719  21.324 -0.1589  0.0718 -0.1937
32388W        W38988  13.920   0.550  21.001 -0.0255  0.2158  0.0140
32389W        W38989  18.170   3.233   6.218 -0.3634 -0.2472  0.1750
32390W        W38990   6.824   5.517  23.200  0.2014 -0.2032 -0.3154
32391W        W38991   2.536   3.916  20.168  0.0885 -0.4343 -0.1484
32392W        W38992  26.627   3.729  10.188  0.1015 -0.0872  0.3753
32393W        W38993  15.235   5.320  20.089 -0.3732  0.0914  0.1851
32394W        W38994   4.452   2.339   5.376  0.1315  0.1167  0.2149
32395W        W38995   1.754   6.742   0.631 -0.3827 -0.1428 -0.1144
32396W        W38996  29.759   4.997   8.994 -0.1676 -0.0399  0.0438
32397W        W38997  15.841   6.212  19.733  0.1725  0.3065 -0.1488
32398W        W38998  15.322   0.578  20.553 -0.0521  0.0283 -0.1871
32399W        W38999  29.370   6.784   8.700 -0.1372 -0.0099 -0.0231
32400W        W39000  23.711   4.452   6.706 -0.2765  0.2568  0.0308
32401W        W39001  31.284   4.030   2.342  0.0189  0.0258 -0.2785
32402W        W39002  16.790   2.296   9.009 -0.1558 -0.0789  0.1427
32403W        W39003   2.105   4.708  25.384  0.1544  0.1321 -0.1412
32404W        W39004  28.353   1.964  21.756  0.1486  0.0735  0.1482
32405W        W39005   0.799   7.053   5.059 -0.0493  0.1130  0.0732
32406W        W39006  20.472   4.380   2.564  0.1111  0.1397 -0.0099
32407W        W39007  22.880   3.630   1.520 -0.2824 -0.0646  0.2129
32408W        W39008   5.788   0.041   6.742 -0.1160  0.2067 -0.1560
32409W        W39009  27.158   7.458  16.880 -0.0036 -0.0378 -0.0279
32410W        W39010   1.283   6.886   6.378 -0.1813  0.1534 -0.0637
32411W        W39011   2.517   0.865   9.191  0.1357  0.0334  0.1485
32412W        W39012   5.371   1.952   1.479  0.0558 -0.1183 -0.1979
32413W        W39013   3.516   2.873  15.836  0.1702  0.1701 -0.0202
32414W        W39014  24.563   0.428  17.859  0.3037 -0.1607  0.0551
32415W        W39015  21.519   5.800  19.052  0.2509  0.3496 -0.4123
32416W        W39016  21.374   2.496  25.936  0.0274 -0.1119 -0.0135
32417W        W39017  30.946   7.381  10.230 -0.0475 -0.0731  0.1031
32418W        W39018  12.494   7.306  25.741 -0.1684  0.1786  0.0942
32419W        W39019  17.519   1.719  19.413  0.3471  0.0098 -0.0902
32420W        W39020  16.244   0.092   5.761  0.0495 -0.0554  0.0200
32421W        W39021  23.300   7.741  16.343 -0.0961  0.4614 -0.0611
32422W        W39022  22.715   0.557   4.627 -0.1578 -0.1564  0.2054
32423W        W39023  27.491   7.847  16.618  0.0987  0.2526  0.0575
32424W        W39024  16.575   3.464   7.676 -0.0601 -0.3645 -0.0419
32425W        W39025  14.396   6.849  20.126 -0.0554 -0.0289 -0.0609
32426W        W39026   6.450   1.575  25.201  0.0663  0.3258  0.0491
32427W        W39027  20.413   2.642   0.312  0.1971  0.1932  0.1653
32428W        W39028  18.264   0.567  19.095  0.2337  0.1008  0.1033
32429W        W39029  22.168   6.369   2.878 -0.3711  0.0125  0.3376
32430W        W39030   1.493   7.686  16.037  0.1107  0.0264 -0.1234
32431W        W39031   5.640   1.406  23.658  0.0170 -0.1344  0.3427
32432W        W39032  15.393   6.160   9.235 -0.2780 -0.1411 -0.1126
32433W        W39033  12.240   4.199  10.526 -0.1231 -0.2099  0.0336
32434W        W39034  26.181   2.633  22.195  0.1685  0.1619  0.1593
32435W        W39035   4.680   1.779   5.072 -0.0510  0.2988 -0.2960
32436W        W39036  17.069   1.925  25.742 -0.2691 -0.0982  0.0267
32437W        W39037   3.502   3.132  20.791 -0.5208 -0.2782 -0.0728
32438W        W39038   8.504   1.056  25.870 -0.1749 -0.2488  0.1737
32439W        W39039  19.431   1.561   6.165  0.1200  0.3019 -0.0252
32440W        W39040   9.418   6.857  18.436 -0.0128 -0.3292 -0.0449
32441W        W39041  21.096   6.686  16.809 -0.0510  0.4076 -0.0956
32442W        W39042  20.769   1.455   1.377  0.0832  0.0328 -0.3446
32443W        W39043  18.508   3.087  10.128 -0.1843  0.1825 -0.0417
32444W        W39044  25.052   2.747  21.354 -0.3438  0.0952  0.0259
32445W        W39045  17.704   3.018   4.430  0.0623  0.0660  0.2325
32446W        W39046  21.113   6.429   9.285  0.2844  0.0294 -0.0386
32447W        W39047   1.849   5.264   0.905 -0.0846  0.1941 -0.4176
32448W        W39048  11.579   2.701   3.576  0.0266  0.2842 -0.0813
32449W        W39049  10.110   2.577   9.340  0.2232 -0.1425  0.2888
32450W        W39050  13.128   0.355  17.886 -0.1461  0.2766 -0.1127
32451W        W39051   7.568   5.010   9.189 -0.0383  0.1190  0.0109
32452W        W39052  23.624   4.848  21.181  0.0501 -0.1919 -0.1849
32453W        W39053  20.004   1.688  18.448 -0.0005  0.0662  0.0594
32454W        W39054  16.189   7.297  18.066 -0.0659  0.0291 -0.0078
32455W        W39055   1.584   1.558  10.124  0.1950 -0.1247 -0.0087
32456W        W39056  14.983   0.869  20.231  0.2111  0.2734  0.2379
32457W        W39057   0.668   2.306  14.043  0.3100  0.0675  0.1547
32458W        W39058  18.835   3.394   1.007  0.0962  0.0140  0.0208
32459W        W39059  16.360   3.031  10.887  0.1721  0.1078  0.0633
32460W        W39060  27.421   5.810   8.108 -0.0831  0.0680 -0.0163
32461W        W39061  18.759   1.514  19.171  0.2580 -0.1637 -0.0740
32462W        W39062  18.839   2.168  17.914  0.0219  0.2046  0.1464
32463W        W39063   9.226   7.355  24.839  0.0998  0.2946 -0.0178
32464W        W39064   0.727   0.425  19.172 -0.0341  0.2312  0.2270
32465W        W39065  26.136   2.566   3.472  0.1437 -0.0345  0.0475
32466W        W39066   9.117   1.500  15.611  0.1112 -0.2824 -0.0029
32467W        W39067  15.424   6.311  19.990  0.4010 -0.1434 -0.2144
32468W        W39068  24.902   1.875   9.837 -0.0190 -0.1160 -0.0942
32469W        W39069   9.628   1.794   6.076  0.0890 -0.0502 -0.2016
32470W        W39070  28.466   7.795   6.809  0.1557  0.4776 -0.0510
32471W        W39071  20.703   4.418   3.031 -0.0449  0.2116  0.0347
32472W        W39072  29.339   0.886  22.497 -0.0885 -0.0890 -0.3269
32473W        W39073  25.684   6.008   9.589 -0.0096  0.0244 -0.4207
32474W        W39074  11.062   7.240   0.694  0.1629  0.1334  0.2310
32475W        W39075  21.510   4.584   1.630  0.1717  0.1811 -0.2298
32476W        W39076   2.360   1.584  16.993  0.1029  0.2853  0.1660
32477W        W39077   0.347   3.521   4.383  0.3376 -0.0647  0.0504
32478W        W39078  28.903   0.770  22.263 -0.0267 -0.3926 -0.1326
32479W        W39079   3.845   6.628  25.708 -0.2148 -0.0069  0.0516
32480W        W39080  11.466   2.133  19.055  0.1993  0.0692  0.1591
32481W        W39081   7.878   7.447   5.985  0.2271  0.0044  0.0635
32482W        W39082   1.094   4.898  22.735  0.0211 -0.0268  0.2030
32483W        W39083  25.064   2.663   4.529  0.1750  0.2089 -0.0958
32484W        W39084  23.651   0.493  16.966  0.1773  0.0417  0.2253
32485W        W39085  19.750   2.536  21.106  0.1099  0.0210 -0.0800
32486W        W39086   7.221   7.817  23.518 -0.1074  0.0410  0.0783
32487W        W39087   0.820   1.828  24.685  0.2063 -0.1286  0.1585
32488W        W39088   2.108   0.431  18.638 -0.0467 -0.0096  0.0892
32489W        W39089   2.058   0.020   9.360 -0.1030  0.0214 -0.1685
32490W        W39090  14.853   3.002   7.492 -0.0102 -0.2867  0.2681
32491W        W39091  15.779   7.582   5.107  0.0859 -0.1018  0.2387
32492W        W39092  23.499   4.492  18.967  0.0392  0.0968  0.0097
32493W        W39093  19.721   5.186   6.550  0.1320  0.1006 -0.1436
32494W        W39094  15.482   1.820  18.763  0.2368 -0.0563 -0.0941
32495W        W39095  10.319   7.779  15.153 -0.2081 -0.0780 -0.1547
32496W        W39096   1.135   7.492  10.820  0.2534 -0.1208  0.0485
32497W        W39097  11.706   0.787  11.532 -0.2452 -0.1113 -0.1138
32498W        W39098   3.640   2.843   0.979  0.0687  0.2053 -0.1546
32499W        W39099  27.681   7.560  19.997 -0.0050 -0.2142 -0.0486
32500W        W39100   9.425   5.036   1.378 -0.1287 -0.2950  0.0283
32501W        W39101  29.742   2.572   3.235  0.2061 -0.0613  0.1227
32502W        W39102   9.951   0.381  23.805 -0.0605 -0.0915  0.2474
32503W        W39103   6.268   6.619  19.953 -0.0262 -0.1305 -0.0481
32504W        W39104  15.505   1.511  23.062  0.1033 -0.0866 -0.1860
32505W        W39105  28.465   4.191  17.135  0.0588 -0.2899 -0.0022
32506W        W39106   3.360   4.753   1.285  0.0250 -0.0933 -0.0567
32507W        W39107  24.081   0.168  21.179  0.2041 -0.3455  0.3160
32508W        W39108  25.474   1.137  19.466  0.1089 -0.0250  0.2468
32509W        W39109  12.837   2.887   9.447 -0.3067 -0.0785  0.0147
32510W        W39110  24.718   1.131   9.447 -0.0340  0.2573 -0.2852
32511W        W39111   8.199   3.249   2.144 -0.0118  0.3196  0.1739
32512W        W39112   2.060   3.673  23.398 -0.0387 -0.2107  0.3613
32513W        W39113   3.322   4.683  18.740  0.0707  0.0689  0.2825
32514W        W39114  23.961   1.950   6.027 -0.0600  0.0383 -0.1191
32515W        W39115  18.887   4.261   7.757 -0.4326  0.3430 -0.0993
32516W        W39116   0.397   6.631   5.158  0.1260 -0.0867 -0.0038
32517W        W39117  28.515   4.878  15.323  0.0978  0.1274  0.0444
32518W        W39118   3.211   0.320   0.694  0.1828 -0.0072 -0.1382
32519W        W39119   8.117   6.206   7.750 -0.0528  0.2014 -0.0775
32520W        W39120  10.246   1.250  22.041  0.0627 -0.0299  0.1967
32521W        W39121  24.436   4.620   0.305  0.0164  0.0613 -0.2287
32522W        W39122  10.907   5.483  22.298 -0.5035 -0.0646 -0.0658
32523W        W39123   4.047   2.731  14.959  0.0408 -0.0453 -0.0468
32524W        W39124   1.003   0.462   2.355 -0.3897 -0.0308  0.1372
32525W        W39125  25.744   7.683  26.081  0.2181  0.2639  0.1247
32526W        W39126  17.214   7.275   6.047 -0.2622 -0.0630 -0.0034
32527W        W39127   9.093   4.177  25.810 -0.0807 -0.2362  0.0670
32528W        W39128  23.177   1.692   5.377 -0.1453  0.1253 -0.0267
32529W        W39129  12.145   2.628  16.440 -0.1205 -0.0729 -0.0363
32530W        W39130  28.089   1.617  24.272 -0.1109  0.0108 -0.0834
32531W        W39131   2.098   2.659  23.097  0.0853  0.3254  0.1318
32532W        W39132   7.921   7.106  10.134  0.0933 -0.0234  0.0850
32533W        W39133   2.103   0.043  17.333  0.0825  0.2229  0.1483
32534W        W39134   1.681   0.279   6.265  0.0111 -0.0014  0.1702
32535W        W39135   1.497   2.504   3.083  0.0338 -0.0294  0.0645
32536W        W39136  13.855   1.333  21.243  0.0366  0.0226 -0.2885
32537W        W39137   5.217   1.097  23.117 -0.0927  0.1680  0.1067
32538W        W39138  20.329   5.810   0.997 -0.0479  0.2723 -0.0801
32539W        W39139   1.925   3.943   8.225  0.2837 -0.2469 -0.3241
32540W        W39140  24.254   3.826  21.740 -0.0338  0.2135 -0.0050
32541W        W39141  12.750   4.060  18.726 -0.0908  0.0901 -0.1321
32542W        W39142  13.097   5.854   7.780 -0.1105  0.0897 -0.0496
32543W        W39143  26.708   7.333   0.762  0.0461  0.2811 -0.0537
32544W        W39144  27.555   5.794   4.767  0.1488 -0.1219 -0.2417
32545W        W39145   0.435   7.293   7.355 -0.1480  0.0375 -0.2162
32546W        W39146   5.449   5.963  25.114  0.1993  0.0242  0.2622
32547W        W39147   9.361   7.718   2.774 -0.1500  0.0421  0.1332
32548W        W39148  27.517   4.790  17.835 -0.1856  0.1976 -0.0003
32549W        W39149  18.668   0.139  10.298  0.0240 -0.0639 -0.2067
32550W        W39150  16.531   2.767   4.168 -0.0011  0.1705  0.0216
32551W        W39151   6.326   1.438   3.669  0.0688  0.2699 -0.0912
32552W        W39152  11.747   6.018  22.649  0.0852 -0.1339  0.1969
32553W        W39153  14.658   2.932  10.113 -0.0339 -0.1143  0.2950
32554W        W39154  28.109   4.309  24.077 -0.0964 -0.0513  0.0337
32555W        W39155   4.327   0.829  22.254 -0.1315  0.1301  0.2381
32556W        W39156  11.905   7.308   5.783 -0.3172 -0.3067 -0.0296
32557W        W39157  29.998   2.799  19.924 -0.2552 -0.0754  0.1770
32558W        W39158  28.088   1.030  25.915  0.1129  0.1385 -0.2396
32559W        W39159  31.093   1.635   2.639 -0.1465  0.2071  0.0718
32560W        W39160  18.383   6.726   8.729  0.1173  0.2496 -0.1349
32561W        W39161  28.195   1.661  18.636  0.0378  0.0260 -0.2612
32562W        W39162  23.660   4.265   3.039  0.1350  0.1228  0.3115
32563W        W39163  24.968   2.067  24.158 -0.0624 -0.0061 -0.2393
32564W        W39164  26.239   6.585   8.208 -0.0622  0.2760 -0.1136
32565W        W39165   0.119   5.371   9.003 -0.3122  0.0571  0.2185
32566W        W39166   9.262   2.751  18.860  0.0319  0.0557  0.1618
32567W        W39167   7.371   4.339  23.641  0.1532  0.0685 -0.0191
32568W        W39168  25.000   1.446  24.175  0.0718 -0.1817 -0.0593
32569W        W39169  14.251   6.561   6.767  0.1328 -0.1904  0.0003
32570W        W39170  28.487   6.018  24.841 -0.1449  0.3162 -0.0525
32571W        W39171  10.317   7.230   2.490  0.0353  0.0274 -0.0008
32572W        W39172   6.886   7.552  16.063 -0.2237 -0.0581  0.0225
32573W        W39173  24.212   5.340  20.469 -0.2295 -0.1077  0.1299
32574W        W39174  22.883   7.111   3.666 -0.0262  0.2028 -0.0499
32575W        W39175  19.232   5.255   5.269  0.0679 -0.1866 -0.0332
32576W        W39176  16.567   1.622   1.821  0.3508 -0.1491  0.1746
32577W        W39177  16.140   5.626  10.669  0.0838 -0.1620  0.2470
32578W        W39178  16.274   4.352   7.445  0.0261  0.2001  0.1054
32579W        W39179   6.381   3.403   2.490 -0.0429  0.0399 -0.2701
32580W        W39180   2.046   7.537   2.267 -0.0162 -0.2100 -0.1377
32581W        W39181  16.317   3.482   3.173  0.1511  0.4286  0.0716
32582W        W39182  24.924   0.274  19.426 -0.0358  0.0253 -0.4507
32583W        W39183  17.064   5.914   1.701 -0.3334 -0.3686  0.1315
32584W        W39184   7.313   4.257   5.605  0.1072  0.0700  0.0359
32585W        W39185  15.961   2.250  23.233 -0.1078  0.0633 -0.1344
32586W        W39186  16.946   4.303  18.084  0.1495  0.1948 -0.2757
32587W        W39187   8.797   2.113  17.592  0.0069  0.1901  0.1624
32588W        W39188  16.237   7.345  24.572 -0.1105 -0.0327 -0.0139
32589W        W39189   3.559   1.267  17.527 -0.1002 -0.0264 -0.1403
32590W        W39190  20.640   7.053   5.260 -0.4208  0.1421  0.1206
32591W        W39191  28.170   5.365  18.597 -0.0742  0.1447  0.1873
32592W        W39192  11.383   2.017  24.614 -0.3648 -0.1228  0.1470
32593W        W39193  18.153   0.908  10.110  0.0310 -0.2064 -0.0870
32594W        W39194  17.367   1.883  21.978 -0.3702  0.1457 -0.0042
32595W        W39195  17.533   4.037   9.419  0.3387  0.0138  0.0695
32596W        W39196   5.220   2.518   3.158  0.1930  0.0680 -0.0881
32597W        W39197   3.791   2.779  19.803 -0.3801  0.2572 -0.1348
32598W        W39198   6.747   2.664  17.682 -0.0334  0.2126  0.0001
32599W        W39199   6.628   3.617  21.532 -0.2608 -0.0793 -0.2202
32600W        W39200   5.328   3.593   6.598  0.1491  0.3015  0.0589
32601W        W39201   0.906   3.161  18.159  0.2630  0.2282 -0.3350
32602W        W39202  17.678   5.826  20.064  0.4945  0.0536 -0.1215
32603W        W39203  28.821   1.706  20.840  0.0922 -0.1334 -0.0450
32604W        W39204  16.127   0.987   0.311 -0.1847  0.0754 -0.1160
32605W        W39205  30.806   2.081  23.414 -0.1654  0.2363 -0.0200
32606W        W39206  19.424   2.478   5.154 -0.0792  0.0583  0.1717
32607W        W39207  14.799   5.361  11.862  0.0875 -0.0391  0.0616
32608W        W39208  11.942   2.134  25.831  0.0848 -0.0611 -0.2206
32609W        W39209  11.637   2.416   1.756 -0.1034 -0.2381  0.1921
32610W        W39210  10.617   6.247   5.177 -0.3121 -0.1036 -0.0353
32611W        W39211  23.538   4.514   9.196  0.0382 -0.0964  0.2423
32612W        W39212  16.720   6.095  14.945  0.0831  0.0549 -0.1784
32613W        W39213  12.646   5.138  25.563 -0.1176  0.0274  0.3979
32614W        W39214  25.246   1.685   5.685  0.1048 -0.0936  0.2530
32615W        W39215   1.203   6.336  21.503  0.1259 -0.2763 -0.2652
32616W        W39216  19.231   0.040  20.617 -0.1995  0.2160  0.0555
32617W        W39217  30.657   2.250   5.713  0.0409  0.3207 -0.1398
32618W        W39218  18.260   7.704  16.445 -0.0861 -0.1268 -0.0295
32619W        W39219  14.411   0.728  10.692  0.1470  0.2268  0.0076
32620W        W39220   9.901   4.673  26.080  0.1599 -0.2363  0.2166
32621W        W39221  24.357   3.450  19.212 -0.0732  0.1194 -0.0505
32622W        W39222   9.133   2.774  19.738  0.0569  0.1752 -0.2010
32623W        W39223  11.817   6.724  15.540  0.2066  0.0872  0.1016
32624W        W39224  14.330   3.341  19.663  0.0216  0.1199  0.1810
32625W        W39225  14.057   6.506  19.983  0.3757 -0.3632 -0.0423
32626W        W39226   6.482   4.754   8.170  0.1818 -0.1137  0.3447
32627W        W39227  16.488   5.993  21.523  0.0115  0.0383 -0.0515
32628W        W39228  17.048   4.030  16.513 -0.1066  0.0025 -0.3043
32629W        W39229   5.515   1.587  18.318 -0.2759  0.0911 -0.0092
32630W        W39230  23.806   5.804   1.859 -0.0157 -0.0577 -0.1411
32631W        W39231  26.034   0.083  25.006  0.1509  0.0810 -0.0114
32632W        W39232  14.155   1.156   9.686 -0.0281 -0.4824  0.2525
32633W        W39233  14.021   5.017  22.955  0.4573 -0.0111 -0.2205
32634W        W39234  11.932   5.720   4.262 -0.0884 -0.0333  0.0255
32635W        W39235  27.827   1.861  21.146 -0.2375  0.1882 -0.1990
32636W        W39236   1.449   4.179   3.736 -0.0657 -0.1535  0.0529
32637W        W39237  21.233   6.760  19.326 -0.1499  0.0223 -0.4114
32638W        W39238  20.803   3.937   3.143  0.1966  0.0683 -0.0436
32639W        W39239   1.825   0.647   1.184 -0.0887  0.0030  0.0556
32640W        W39240  20.785   0.745   5.561  0.0466 -0.1426  0.2307
32641W        W39241  17.308   2.360  24.923 -0.1094 -0.0671 -0.0899
32642W        W39242  20.382   4.540   0.646  0.0287 -0.1541 -0.0518
32643W        W39243  21.258   4.827  10.814  0.1170  0.1042  0.3517
32644W        W39244   2.785   0.300  20.672  0.2235  0.2532 -0.0769
32645W        W39245  19.528   0.623   6.643  0.1219  0.1648 -0.0459
32646W        W39246  25.308   2.903  15.699 -0.1009 -0.1455 -0.4463
32647W        W39247  16.068   4.805  18.857 -0.5479 -0.1182  0.0099
32648W        W39248  25.006   3.533   2.808  0.1979 -0.0171  0.1507
32649W        W39249  26.692   4.427  16.889 -0.1149 -0.2721  0.2059
32650W        W39250  25.309   5.406   5.747 -0.2192  0.0005  0.1525
32651W        W39251  13.443   5.221   3.683  0.0225 -0.1099  0.3843
32652W        W39252  18.100   6.519   4.186 -0.4342  0.0938  0.1436
32653W        W39253  24.785   1.304   2.125 -0.0737 -0.0806 -0.2912
32654W        W39254  16.479   6.218  22.380  0.1929  0.0491  0.0105
32655W        W39255  26.587   7.023  19.936  0.1682  0.0411 -0.0637
32656W        W39256  24.756   4.471  19.281 -0.1926  0.0616 -0.1030
32657W        W39257  20.986   7.008   8.792  0.3165 -0.0347  0.1955
32658W        W39258  22.102   2.857  15.533 -0.2140  0.1716  0.1920
32659W        W39259   3.625   0.315  14.667  0.3068 -0.2801 -0.0285
32660W        W39260  24.314   4.150   5.063 -0.2658 -0.0027  0.0437
32661W        W39261  30.278   2.789  25.527  0.1757  0.1348 -0.5266
32662W        W39262   8.172   7.287  15.716 -0.0808  0.2572 -0.2262
32663W        W39263  10.216   5.724   1.995 -0.1747  0.3258 -0.0564
32664W        W39264  26.498   2.997  21.707  0.1333 -0.0076 -0.3874
32665W        W39265  16.146   1.980  23.607  0.0048  0.2727 -0.2575
32666W        W39266   3.133   0.654  15.507  0.0085  0.4106 -0.1672
32667W        W39267  10.597   4.782  23.382 -0.0628  0.4257  0.2860
32668W        W39268  29.195   3.885   3.836  0.0894 -0.0709  0.1701
32669W        W39269   2.908   0.403   8.469 -0.2125 -0.1124 -0.0071
32670W        W39270  21.701   4.875   6.718 -0.2095  0.2428 -0.5085
32671W        W39271  19.077   3.985   8.850 -0.0263 -0.0818 -0.0433
32672W        W39272   4.480   7.594  25.916 -0.1488 -0.0349  0.2093
32673W        W39273  23.377   7.453   5.466 -0.0920 -0.0994 -0.4613
32674W        W39274  22.255   2.119  18.678  0.2766 -0.1907  0.2266
32675W        W39275  29.561   3.279   2.952 -0.0017  0.0646  0.1143
32676W        W39276   9.855   3.204   3.866 -0.0435 -0.0646  0.2401
32677W        W39277  10.066   3.290  20.370 -0.1298 -0.0729 -0.1318
32678W        W39278  27.677   1.021   7.541 -0.1111  0.0366  0.0581
32679W        W39279  14.836   5.843  26.056  0.3122  0.0382  0.1993
32680W        W39280  31.137   1.937  24.005  0.3004 -0.0243  0.4126
32681W        W39281   1.540   6.142   5.711 -0.0818  0.1529  0.1405
32682W        W39282  11.113   6.245  24.545 -0.0497 -0.0879 -0.0302
32683W        W39283  13.371   7.021  16.943  0.3668  0.1823 -0.2084
32684W        W39284  20.801   6.181  20.257 -0.0255  0.0052  0.0859
32685W        W39285  20.331   5.966  20.964 -0.0833 -0.0107 -0.1870
32686W        W39286  14.157   6.413  16.972 -0.0320 -0.0170  0.0014
32687W        W39287  17.543   6.666   1.127 -0.1122  0.0011 -0.1113
32688W        W39288  22.530   1.934   2.580  0.0068  0.1868  0.2784
32689W        W39289  24.497   5.491  18.348 -0.1372  0.0430  0.1200
32690W        W39290  27.847   2.074  24.364  0.0500 -0.0167 -0.1164
32691W        W39291  31.436   3.578  15.879 -0.0453 -0.0306 -0.2256
32692W        W39292  16.028   2.804  19.843  0.3887  0.0318 -0.0922
32693W        W39293  10.319   7.420   8.645 -0.0813  0.1052 -0.1222
32694W        W39294  19.006   6.176   4.141  0.2142  0.1382  0.3461
32695W        W39295  30.039   7.120  22.676 -0.1007  0.3471 -0.2886
32696W        W39296  29.282   4.528   6.398 -0.0093 -0.1571  0.1080
32697W        W39297  14.100   4.656  15.066 -0.1478 -0.0842 -0.1100
32698W        W39298   5.010   7.811   9.926  0.0324  0.2657 -0.1080
32699W        W39299   4.953   0.129  21.223  0.1934 -0.0340  0.1349
32700W        W39300  26.898   0.387   2.463 -0.2973  0.0608 -0.0592
32701W        W39301  14.075   2.533  22.194 -0.1694  0.2751 -0.3500
32702W        W39302  14.931   2.188  14.820 -0.3102 -0.0094 -0.2031
32703W        W39303   0.615   3.637   3.737 -0.1784 -0.1958 -0.2511
32704W        W39304  17.356   5.972  17.306  0.0744  0.1751  0.2060
32705W        W39305   9.593   4.339   3.556 -0.1759  0.2447 -0.0568
32706W        W39306   9.410   5.509   7.719 -0.3197  0.3848 -0.2710
32707W        W39307  27.372   7.777  16.095 -0.1691  0.2768 -0.0483
32708W        W39308  15.931   0.635  18.688 -0.0269 -0.3411 -0.1223
32709W        W39309   2.508   0.946  14.857  0.1743  0.0247  0.1468
32710W        W39310  27.836   2.369   2.406 -0.4870  0.2618  0.1071
32711W        W39311  23.051   6.277  24.702 -0.0052 -0.1210  0.0077
32712W        W39312  27.942   7.698  18.583 -0.4430 -0.1895  0.0768
32713W        W39313  11.488   6.003   7.285 -0.1913  0.2580  0.1511
32714W        W39314   7.583   5.353  20.498 -0.1149  0.1657 -0.0210
32715W        W39315   2.101   6.448  16.659 -0.0801 -0.1316  0.1298
32716W        W39316  18.603   4.490  19.040 -0.0117 -0.1888  0.1509
32717W        W39317  30.372   1.749   9.671  0.0157 -0.2646  0.0350
32718W        W39318  13.621   5.940   6.380 -0.0022  0.1391 -0.1045
32719W        W39319  26.511   6.096   5.688 -0.0635 -0.1620 -0.2296
32720W        W39320   0.798   6.715   7.793 -0.2830  0.0139  0.0607
32721W        W39321  15.250   2.329  17.422 -0.0725  0.1331  0.0437
32722W        W39322  10.144   4.426  22.145  0.2272 -0.1499  0.1358
32723W        W39323  23.518   3.555  19.933  0.0955  0.0029 -0.1398
32724W        W39324  20.712   1.358  23.022  0.2180  0.1939  0.0666
32725W        W39325  21.772   5.496  15.741 -0.4431  0.1016 -0.2616
32726W        W39326  16.555   0.976   4.173  0.3761 -0.4814 -0.2168
32727W        W39327  11.299   7.846  16.651  0.0602 -0.1602  0.3380
32728W        W39328  28.019   5.148   3.844  0.1871  0.2013  0.1500
32729W        W39329  13.459   1.310  18.015  0.1081  0.2819  0.3214
32730W        W39330  15.943   4.953  10.624  0.2866  0.5293  0.0436
32731W        W39331  26.051   0.123  21.346  0.0864  0.0208 -0.0929
32732W        W39332  24.979   7.027  23.933  0.2160 -0.3014 -0.0116
32733W        W39333  22.076   0.930   5.388 -0.0126 -0.0260 -0.0746
32734W        W39334  10.059   0.185   6.836  0.0515 -0.3947 -0.3178
32735W        W39335  11.982   7.419  24.519  0.0513 -0.0954 -0.1913
32736W        W39336  28.634   6.350  16.982  0.3294  0.1393  0.0132
32737W        W39337   6.850   4.207   3.932  0.0534 -0.0781  0.3151
32738W        W39338  17.229   1.990   5.878 -0.1211  0.0982  0.0350
32739W        W39339   9.314   5.954  15.652  0.0669  0.4141 -0.0282
32740W        W39340  11.463   3.654  23.808 -0.0912  0.2875  0.0022
32741W        W39341   7.264   5.809   3.808  0.2777  0.5514 -0.2839
32742W        W39342   8.052   0.738  15.947 -0.3666 -0.0114 -0.0583
32743W        W39343  11.529   1.677   4.134  0.0413 -0.0602  0.0891
32744W        W39344   0.706   2.808   3.617  0.0656  0.0987 -0.1213
32745W        W39345  13.769   3.367   6.906 -0.0772 -0.0252  0.1785
32746W        W39346   3.510   5.388   0.015  0.0347 -0.0261  0.2232
32747W        W39347  30.736   4.280  24.271 -0.0778  0.1174  0.0180
32748W        W39348  14.603   0.238  20.955 -0.1043 -0.2163  0.0415
32749W        W39349  22.389   3.467  16.009  0.0222 -0.0299 -0.1601
32750W        W39350  29.190   4.528   9.857 -0.2067  0.0007 -0.0668
32751W        W39351   7.228   1.657   5.494  0.2110 -0.2325 -0.0376
32752W        W39352  12.522   0.379  10.509  0.2052  0.2610 -0.0572
32753W        W39353  14.713   5.189  11.122 -0.1125 -0.0064  0.2520
32754W        W39354  23.202   7.592   1.872  0.3032  0.1625 -0.0059
32755W        W39355   0.668   3.784  14.641 -0.1261 -0.0075 -0.3609
32756W        W39356  27.821   1.736  26.037 -0.0829  0.1629 -0.0319
32757W        W39357  11.023   6.358  22.879 -0.0432  0.0465  0.1577
32758W        W39358   7.594   5.407   8.299  0.0881 -0.0915  0.0003
32759W        W39359   3.851   3.470  21.482  0.0422  0.1551  0.0220
32760W        W39360   2.441   2.515   4.597 -0.4268 -0.3888 -0.1793
32761W        W39361  19.795   4.067  19.393 -0.0701  0.0859  0.0402
32762W        W39362  18.110   3.402  10.199 -0.1174 -0.0685 -0.1491
32763W        W39363   3.476   4.735   7.228 -0.3906 -0.1894  0.1414
32764W        W39364  18.138   4.058  23.797  0.4127  0.0863  0.1124
32765W        W39365   0.687   0.710  22.974  0.0885 -0.1850 -0.3644
32766W        W39366  24.979   2.287   2.919  0.1576 -0.5747 -0.1426
32767W        W39367  22.134   5.070   5.092  0.2567  0.3504  0.0903
32768W        W39368  22.850   3.812   0.959  0.2456  0.0221  0.2377
32769W        W39369  21.427   1.140  10.226  0.1629 -0.2178 -0.0676
32770W        W39370   9.159   2.950   5.675  0.2049  0.0317 -0.1132
32771W        W39371   5.689   3.468  22.982 -0.2085 -0.3011 -0.0330
32772W        W39372  10.571   6.780   6.116 -0.0024 -0.3099  0.0058
32773W        W39373   6.524   4.828   9.947 -0.0702  0.1543 -0.1582
32774W        W39374   4.891   2.762  15.965 -0.3016  0.0214  0.2047
32775W        W39375   3.579   0.765   9.335  0.0387  0.0835  0.1550
32776W        W39376  20.713   0.656  10.575  0.1403  0.0975  0.0564
32777W        W39377  25.455   7.823   7.568  0.0381  0.1093  0.4755
32778W        W39378  23.575   1.637  17.029  0.0191 -0.1052 -0.2388
32779W        W39379  28.012   1.254  18.353  0.1082 -0.1014  0.0094
32780W        W39380  21.893   0.941   5.906  0.0697  0.1423  0.0485
32781W        W39381  24.318   7.493  15.540  0.0957  0.0171 -0.0689
32782W        W39382   3.154   1.286  17.842 -0.3111 -0.0081  0.1839
32783W        W39383   4.043   4.403   2.978  0.0348  0.1763  0.1820
32784W        W39384   3.869   4.575  22.524  0.1823 -0.2688 -0.1405
32785W        W39385   7.279   6.099   8.354  0.0378  0.3718 -0.1256
32786W        W39386  27.902   6.297  19.920 -0.0460 -0.1221 -0.1615
32787W        W39387  14.141   1.722   1.218  0.4840  0.2125 -0.1509
32788W        W39388  16.392   0.133  19.874 -0.2374  0.1431 -0.2035
32789W        W39389   9.942   6.426  23.325 -0.0373 -0.0263  0.1505
32790W        W39390  27.385   7.043  11.328  0.1929  0.0998  0.1986
32791W        W39391   4.838   0.422   5.371  0.2174  0.1858 -0.1807
32792W        W39392   0.565   4.445  15.884 -0.0632  0.2709  0.2643
32793W        W39393  23.192   1.388  16.822  0.0720 -0.1125  0.1488
32794W        W39394   8.148   7.857   1.926 -0.0769  0.2415 -0.1327
32795W        W39395   7.285   3.649   4.441  0.1674  0.1049 -0.1612
32796W        W39396  20.682   2.302  21.778  0.0180 -0.2811 -0.0387
32797W        W39397  10.901   6.571  21.423  0.3129  0.3501 -0.0337
32798W        W39398  25.465   3.796   7.055 -0.1521  0.0052 -0.0259
32799W        W39399  27.192   5.522  21.991  0.0724 -0.1468  0.1635
32800W        W39400  23.328   5.727   2.018 -0.0140  0.3287 -0.1530
32801W        W39401   2.631   3.577   2.935 -0.0680  0.2449  0.1867
32802W        W39402   7.530   1.080   8.574 -0.0638  0.0006  0.2813
32803W        W39403   4.876   6.859  18.592 -0.1057 -0.0648  0.0955
32804W        W39404  14.314   1.136   2.574  0.1875  0.0826  0.2363
32805W        W39405  21.193   1.737   9.479 -0.1996  0.0784 -0.3654
32806W        W39406  28.861   2.973   0.333 -0.0305 -0.0956 -0.2431
32807W        W39407  26.626   1.768   3.416 -0.0894  0.1251  0.1090
32808W        W39408   7.270   4.090   4.200 -0.0033  0.1005 -0.2935
32809W        W39409  15.398   3.806  21.105  0.1040  0.0997  0.1884
32810W        W39410   9.347   3.341  25.991  0.0992 -0.1406 -0.1931
32811W        W39411  29.603   3.031   6.254  0.1801 -0.1382  0.0574
32812W        W39412  16.871   7.543   2.096  0.0658  0.2116 -0.0553
32813W        W39413  15.960   4.571   3.685  0.1078  0.2350  0.1207
32814W        W39414  29.697   0.966   8.754  0.1963  0.0909 -0.0903
32815W        W39415  22.532   0.375  15.915 -0.1605 -0.1249 -0.0263
32816W        W39416  18.534   3.561   5.086 -0.0292 -0.0289 -0.3468
32817W        W39417  28.648   0.084  22.163 -0.3900  0.1651 -0.2014
32818W        W39418  24.130   1.919  22.327 -0.2235  0.1718 -0.1363
32819W        W39419  23.369   4.981   1.557  0.0525  0.2172 -0.0455
32820W        W39420   4.931   7.779  18.045 -0.2237 -0.0049 -0.1429
32821W        W39421  25.194   2.434  16.713  0.1899 -0.0476  0.1710
32822W        W39422  13.746   6.194  16.933  0.3109  0.1211 -0.1379
32823W        W39423  30.142   6.113  14.836 -0.0496 -0.0107  0.2488
32824W        W39424  21.491   4.410  25.898 -0.0135 -0.1552 -0.1611
32825W        W39425   2.720   3.931   3.313  0.2490  0.0541 -0.0032
32826W        W39426   0.439   0.889   6.962  0.3365  0.1807  0.0337
32827W        W39427  16.604   5.364  25.387 -0.1457 -0.3530  0.0526
32828W        W39428  25.316   1.803   4.213 -0.1939 -0.2073  0.0991
32829W        W39429   4.018   4.675   2.492 -0.0228  0.1613  0.1631
32830W        W39430  18.921   5.739  10.768 -0.1193 -0.2434  0.0889
32831W        W39431   9.780   3.568  11.064  0.4414 -0.0690  0.1292
32832W        W39432   5.962   4.737   9.893 -0.1254  0.2402 -0.1166
32833W        W39433  28.424   2.125  14.766 -0.1325  0.2548 -0.0786
32834W        W39434  11.381   7.658  16.139  0.2920 -0.3264 -0.0103
32835W        W39435  20.685   3.760  23.241 -0.3926 -0.0545 -0.1239
32836W        W39436  28.509   3.216   7.660  0.2512  0.1258 -0.0411
32837W        W39437   8.200   6.359   1.305  0.3827 -0.0951  0.4623
32838W        W39438   0.904   3.174   6.970  0.3196 -0.1832  0.1566
32839W        W39439  18.315   3.484  25.595  0.0973  0.5716  0.0083
32840W        W39440  19.262   6.499   9.854 -0.0423  0.1606 -0.0020
32841W        W39441  19.446   1.552   3.374 -0.0691 -0.1589  0.0143
32842W        W39442  26.610   5.897   6.688 -0.0974 -0.2591  0.1671
32843W        W39443  20.362   0.435   5.467 -0.0913 -0.1143 -0.2439
32844W        W39444  15.311   3.665  17.253  0.0873  0.3286 -0.0460
32845W        W39445  30.341   2.812  18.710 -0.1543 -0.0742 -0.0373
32846W        W39446  19.013   6.279  24.317 -0.1542  0.0225  0.1658
32847W        W39447   0.661   4.685   3.185 -0.1462  0.3084  0.2359
32848W        W39448  24.023   2.307   4.703  0.0693  0.0598 -0.0005
32849W        W39449  17.820   7.210  17.091  0.0285 -0.1100  0.1800
32850W        W39450   9.109   7.663  17.944 -0.2406 -0.0479 -0.0553
32851W        W39451  12.903   2.509  17.059 -0.0170  0.2676  0.0725
32852W        W39452   7.090   2.349  16.365 -0.1944  0.0525  0.1044
32853W        W39453  17.962   7.486   4.523  0.1431  0.0298 -0.2206
32854W        W39454  22.772   0.856  22.273  0.0060  0.1048  0.0485
32855W        W39455   7.246   1.236   4.031 -0.1311  0.0224 -0.1109
32856W        W39456  23.494   1.602  16.505  0.0302 -0.2094  0.0155
32857W        W39457  25.787   6.696  15.042 -0.1369 -0.0899  0.0712
32858W        W39458  28.155   0.302  24.730 -0.0359 -0.1189  0.0323
32859W        W39459  17.081   5.772   4.848 -0.1558 -0.2287 -0.2197
32860W        W39460  30.330   4.762  10.888 -0.1168 -0.1382 -0.2436
32861W        W39461   3.593   0.493  17.598  0.3440 -0.1029 -0.0208
32862W        W39462  25.442   6.537   1.457  0.0531 -0.2912  0.2627
32863W        W39463   7.798   0.881  11.451  0.2076 -0.2104 -0.2246
32864W        W39464  25.685   5.221   2.901 -0.1467 -0.0946  0.1155
32865W        W39465  22.967   1.474   4.107 -0.1353 -0.2766  0.0439
32866W        W39466   6.561   6.367  24.266  0.1674 -0.1945 -0.2022
32867W        W39467   3.406   1.055  15.410  0.2560 -0.1012  0.4220
32868W        W39468  19.524   4.640  21.629 -0.0317  0.2333  0.0114
32869W        W39469  23.443   7.014  16.591  0.0907  0.1232 -0.2991
32870W        W39470   8.202   3.166  20.695 -0.1162 -0.2081  0.3272
32871W        W39471  13.923   5.554   1.798 -0.1595 -0.1501 -0.1619
32872W        W39472  30.109   6.885  16.535  0.1376  0.1965  0.3797
32873W        W39473  16.214   2.811  20.952 -0.1329 -0.0111  0.3357
32874W        W39474  30.499   1.168  23.120  0.1291  0.0713  0.0860
32875W        W39475  12.403   4.084   8.579  0.1043  0.1542 -0.0256
32876W        W39476   5.814   0.543  19.129 -0.2095  0.0088 -0.0429
32877W        W39477   3.515   0.199  21.204  0.0739  0.0706  0.0524
32878W        W39478  23.328   2.730  24.914  0.0527 -0.0529  0.1225
32879W        W39479   0.633   4.452  20.740 -0.0343 -0.3493 -0.0200
32880W        W39480  30.056   3.383   8.301 -0.0649 -0.1240  0.0602
32881W        W39481  27.370   3.871  22.338 -0.4264  0.3850 -0.2669
32882W        W39482  11.215   0.433  18.733 -0.0885  0.1233 -0.3354
32883W        W39483   8.451   1.372  18.326  0.0836 -0.1362 -0.2412
32884W        W39484   5.710   1.102  23.168 -0.1395 -0.2978  0.1576
32885W        W39485  21.613   4.077  25.574 -0.0379 -0.1267  0.1065
32886W        W39486  28.094   3.589   7.346  0.0833 -0.0658  0.0773
32887W        W39487  27.438   5.870  22.307 -0.1516 -0.0728 -0.1545
32888W        W39488   4.297   4.249   2.396  0.1673  0.1479  0.3735
32889W        W39489  28.033   3.028   9.970 -0.1783  0.1491 -0.0130
32890W        W39490   7.294   5.858  24.726 -0.0457  0.2423 -0.1532
32891W        W39491  26.238   6.450  17.146 -0.1940 -0.2106  0.3383
32892W        W39492  16.986   5.619  18.569 -0.0434 -0.0825 -0.0154
32893W        W39493  14.852   6.995  24.683  0.4206  0.1078 -0.0501
32894W        W39494  30.984   1.444  24.800 -0.0003 -0.0675  0.0490
32895W        W39495  12.800   1.093  11.633  0.0462  0.0583 -0.0778
32896W        W39496  27.510   7.269  14.891 -0.1432 -0.0093  0.1983
32897W        W39497  25.568   0.662  24.420 -0.0716 -0.1658 -0.1589
32898W        W39498  19.695   0.524  21.785  0.2555  0.0629 -0.1608
32899W        W39499  26.845   6.570  20.070 -0.1503  0.0981 -0.0349
32900W        W39500   1.079   5.561  19.571  0.1106 -0.0865  0.0601
32901W        W39501  29.261   6.975   7.258 -0.1375 -0.1470  0.1071
32902W        W39502   7.145   6.176  20.138 -0.1045 -0.2892  0.0416
32903W        W39503  24.992   4.708  22.980  0.0532 -0.0559  0.4130
32904W        W39504  13.741   7.723   8.547 -0.0460 -0.1670 -0.0105
32905W        W39505  27.748   3.630   7.818 -0.2224  0.1117 -0.0517
32906W        W39506  22.739   5.009   8.881  0.2215 -0.0884  0.0504
32907W        W39507  18.818   0.753  22.381  0.2589 -0.4554 -0.0602
32908W        W39508  17.305   4.484   1.835 -0.0777  0.0274  0.1021
32909W        W39509  29.549   4.637   4.356  0.0428 -0.0993  0.0140
32910W        W39510   5.587   0.148   1.249  0.0399 -0.0891 -0.0775
32911W        W39511   8.215   6.624  11.252 -0.1886 -0.2882  0.0540
32912W        W39512   0.542   4.735  15.294 -0.0189 -0.1853  0.0674
32913W        W39513  26.877   4.656  25.204 -0.5097  0.0919  0.0281
32914W        W39514   4.681   5.928  24.106 -0.0809  0.1784 -0.2148
32915W        W39515   4.959   7.307  17.712  0.0830 -0.1050 -0.0289
32916W        W39516   9.774   0.818  19.456 -0.1668  0.3485 -0.0566
32917W        W39517  25.701   0.816  15.326 -0.0662 -0.1914  0.1249
32918W        W39518  14.244   3.518   2.994  0.1099 -0.0485  0.0137
32919W        W39519  13.784   4.067   5.102  0.0559  0.1129  0.3255
32920W        W39520   3.190   3.169   8.842 -0.0976 -0.1971 -0.0341
32921W        W39521  13.605   2.645  25.747 -0.2169 -0.0932 -0.3119
32922W        W39522  23.550   6.321  17.396  0.1007 -0.1469  0.1124
32923W        W39523   2.908   4.138  14.336 -0.2277  0.1279 -0.3871
32924W        W39524  18.586   1.148  22.147  0.2777  0.4054  0.2517
32925W        W39525  10.487   4.439   7.973  0.0772  0.0542 -0.1006
32926W        W39526   9.804   0.983  19.940  0.2332 -0.3018 -0.2660
32927W        W39527  18.414   3.688  20.743  0.1005 -0.3511  0.1514
32928W        W39528  16.525   4.638   1.325  0.0882  0.0308  0.0816
32929W        W39529  23.809   5.277  19.588 -0.0262  0.0870  0.2745
32930W        W39530  16.515   7.051  22.468 -0.1964  0.3501  0.0391
32931W        W39531  11.443   2.810   0.455 -0.1579  0.3066  0.2763
32932W        W39532  11.298   7.335   6.755 -0.0001  0.0540  0.3094
32933W        W39533  16.428   3.593  18.620 -0.0512  0.1649  0.1734
32934W        W39534  28.299   2.773  19.575  0.2463 -0.1951 -0.0543
32935W        W39535   6.531   2.088  15.467 -0.0852  0.1460 -0.1807
32936W        W39536  29.265   3.453   5.537  0.1383  0.0316  0.0209
32937W        W39537  18.871   6.126  25.325  0.0383  0.1912 -0.1336
32938W        W39538  23.081   5.397   3.358 -0.1103 -0.0484  0.4082
32939W        W39539  17.627   4.149  15.279 -0.4066  0.0283  0.0321
32940W        W39540  23.956   2.555   7.295 -0.1569 -0.0172 -0.1336
32941W        W39541  24.379   6.280  24.020 -0.0503  0.2326  0.3304
32942W        W39542  19.881   6.261  18.530  0.1374  0.4606  0.0172
32943W        W39543  26.554   2.760   3.639  0.2933  0.1058  0.1166
32944W        W39544  23.103   3.862  16.853  0.1532  0.1873  0.0531
32945W        W39545   6.958   4.432  22.376 -0.0459 -0.1947 -0.3411
32946W        W39546  25.818   4.707   2.106 -0.1364  0.0598 -0.2310
32947W        W39547  11.882   5.578  24.384 -0.0370  0.0087 -0.3193
32948W        W39548  11.593   3.811  18.681  0.0076 -0.0762 -0.1318
32949W        W39549   9.908   5.056  20.967  0.0424  0.1042  0.2910
32950W        W39550  21.933   2.838   9.852 -0.2418 -0.0155 -0.0251
32951W        W39551  22.582   4.106  21.038  0.0093 -0.1485 -0.0869
32952W        W39552   8.267   6.042   8.544  0.0782  0.0504 -0.0160
32953W        W39553  28.188   5.213   7.506 -0.0754  0.2591  0.0783
32954W        W39554  26.530   4.609   1.539  0.2054 -0.0303  0.0592
32955W        W39555  24.967   7.108   0.287  0.0861  0.2488  0.2216
32956W        W39556   3.331   1.353   5.096 -0.0294  0.0546 -0.0814
32957W        W39557  13.255   4.565   7.463 -0.1456 -0.1137  0.2548
32958W        W39558  28.904   6.856  20.224 -0.1396 -0.4439  0.2691
32959W        W39559  14.063   2.859   2.147 -0.3756 -0.2942 -0.1667
32960W        W39560  28.450   5.850  22.671 -0.1213 -0.0972  0.1390
32961W        W39561  29.724   4.807   4.828 -0.0193  0.0164  0.0313
32962W        W39562  31.335   3.136   4.774  0.0794  0.1272  0.0401
32963W        W39563  30.046   3.680  19.945 -0.1864  0.2912 -0.1237
32964W        W39564   1.011   2.675   3.079 -0.1778  0.1731 -0.1615
32965W        W39565  19.942   5.388  24.021 -0.4319  0.1097 -0.2244
32966W        W39566  28.575   3.153  10.289 -0.1551 -0.0027 -0.0985
32967W        W39567  30.209   4.853   1.484 -0.1019 -0.0819  0.4483
32968W        W39568  10.630   1.667  18.587 -0.1798 -0.0223  0.0283
32969W        W39569  17.041   5.268   5.000 -0.0932 -0.1133 -0.1779
32970W        W39570   3.569   0.789   3.312 -0.0585 -0.0411  0.0661
32971W        W39571  16.378   3.592  20.637 -0.3424  0.1031 -0.1561
32972W        W39572   8.067   4.920  18.110  0.1223 -0.3051 -0.0996
32973W        W39573  11.154   7.372  21.083 -0.0171 -0.0942  0.1024
32974W        W39574   0.138   7.462  20.065 -0.0218  0.0498 -0.5272
32975W        W39575  14.589   7.695   8.305  0.1413 -0.2034  0.1578
32976W        W39576   9.065   6.464  18.259 -0.0713  0.2565  0.0253
32977W        W39577  29.187   0.698   1.708 -0.1806  0.0431 -0.0741
32978W        W39578   5.483   4.830  18.396  0.0879  0.1241  0.0939
32979W        W39579   1.042   6.089   3.563  0.0034  0.0754 -0.1446
32980W        W39580   3.642   2.947   8.028 -0.1868  0.3135 -0.1187
32981W        W39581  18.776   7.108  25.690  0.1356  0.2811 -0.1983
32982W        W39582   5.855   7.212   1.656 -0.1685 -0.3769 -0.1087
32983W        W39583  18.193   6.331  17.556  0.2343 -0.2516 -0.2876
32984W        W39584   4.672   2.714   2.986  0.3298 -0.0644  0.3061
32985W        W39585  22.887   6.234  20.219  0.4676 -0.1806 -0.2678
32986W        W39586  13.383   2.419   4.884  0.0335 -0.1062 -0.1781
32987W        W39587  25.110   5.722   9.068 -0.1641  0.1294  0.0663
32988W        W39588  28.338   5.949  21.130 -0.1788 -0.0834 -0.2243
32989W        W39589   9.738   3.286   6.309  0.0092  0.1333 -0.3011
32990W        W39590  23.784   2.489   1.773  0.0403  0.0797  0.2557
32991W        W39591  16.033   4.497  17.864  0.2840 -0.0087  0.0662
32992W        W39592   9.311   1.405   0.559 -0.4220 -0.0411 -0.1713
32993W        W39593  29.308   6.055   6.048 -0.0272 -0.3716  0.0682
32994W        W39594  12.880   7.740  10.623  0.4161  0.1665  0.1990
32995W        W39595  21.413   7.209   9.211 -0.2456 -0.1894  0.2250
32996W        W39596   1.744   4.813   0.188  0.0155  0.2691 -0.1409
32997W        W39597   6.964   1.104  18.327  0.0262  0.0905 -0.0756
32998W        W39598   6.046   5.202   6.912 -0.0314  0.0851  0.1115
32999W        W39599   9.384   2.376   3.914 -0.0613  0.0085 -0.0655
33000W        W39600   0.516   2.832   7.032 -0.0856 -0.2065  0.0588
33001W        W39601  29.491   3.103  10.746 -0.0086  0.1401  0.0212
33002W        W39602  16.741   5.699   2.868  0.0733  0.1448 -0.0568
33003W        W39603   7.267   1.112  17.387  0.0221  0.1285 -0.0117
33004W        W39604   1.716   3.794   3.270 -0.0592  0.0514 -0.3392
33005W        W39605   6.562   6.362  15.294  0.0461 -0.2613 -0.1138
33006W        W39606   9.407   1.049   2.810  0.0522 -0.0056  0.1713
33007W        W39607  29.595   1.586  15.205  0.3258 -0.0930  0.0639
33008W        W39608   5.711   6.934  10.358 -0.1611  0.1068  0.2300
33009W        W39609   4.605   5.126   3.718  0.1405 -0.0462  0.2546
33010W        W39610  18.917   0.386   6.456 -0.2989 -0.3174  0.1351
33011W        W39611  11.818   3.420  20.166  0.2047 -0.0434  0.2135
33012W        W39612  21.446   0.820   6.909  0.1245  0.0646  0.1247
33013W        W39613  28.243   3.922  21.764 -0.0330  0.0399 -0.1407
33014W        W39614  17.760   0.130  16.446  0.0092  0.0563  0.0449
33015W        W39615  22.198   1.909  24.498  0.0275 -0.0899  0.0541
33016W        W39616  21.867   4.570   3.046  0.0164 -0.1186 -0.1849
33017W        W39617   9.857   0.380   4.467 -0.0182 -0.1172  0.2369
33018W        W39618  13.916   0.345  26.042  0.2578  0.0851  0.1098
33019W        W39619   3.898   6.395   5.025 -0.0793 -0.0811 -0.1789
33020W        W39620  21.273   2.992   8.185 -0.0598  0.0397  0.1192
33021W        W39621  12.687   0.515   3.747  0.1863 -0.0819 -0.1787
33022W        W39622  26.637   3.149   7.533  0.0540  0.0925  0.0101
33023W        W39623   9.948   2.964   5.391 -0.1492 -0.3290  0.0570
33024W        W39624  20.058   1.666  20.370 -0.2882  0.1003 -0.0338
33025W        W39625   9.032   6.095  19.390  0.0629  0.1993  0.1730
33026W        W39626  16.520   0.255   2.490 -0.4332 -0.1132 -0.1114
33027W        W39627  28.488   5.660  20.696  0.0840 -0.0940  0.2110
33028W        W39628  20.557   4.869   5.872  0.1856  0.0217 -0.2416
33029W        W39629  20.086   7.349  11.749  0.2470  0.0683 -0.0703
33030W        W39630  10.620   3.698   6.379 -0.0205 -0.0033 -0.0830
33031W        W39631  15.897   2.919  25.203  0.2353  0.0710  0.0744
33032W        W39632  28.890   4.398   3.126 -0.3009 -0.0617 -0.0222
33033W        W39633  13.039   4.523  22.567 -0.2349  0.1768  0.0625
33034W        W39634  19.251   3.469   5.659 -0.4185  0.0513 -0.2982
33035W        W39635  22.900   6.920  24.079 -0.4381  0.0742  0.0519
33036W        W39636  20.664   4.175   1.527  0.0661 -0.1544  0.1191
33037W        W39637  16.300   1.953   3.854  0.0300 -0.1320 -0.0438
33038W        W39638  26.949   4.651   0.184  0.0948  0.0142  0.0087
33039W        W39639  22.624   0.010   2.723 -0.2181  0.1179 -0.1226
33040W        W39640   8.969   1.301   3.771 -0.0445  0.1646  0.0541
33041W        W39641   0.881   0.858   6.702 -0.2209  0.0009 -0.1928
33042W        W39642  15.698   6.695   5.569  0.2610  0.0187  0.0435
33043W        W39643  14.891   5.960   4.076  0.2142 -0.3029  0.0130
33044W        W39644  15.733   4.350  25.746  0.0909 -0.0016  0.2318
33045W        W39645  23.201   5.967   2.463 -0.1500  0.0884  0.0023
33046W        W39646  30.856   6.377  23.258  0.3051 -0.0845  0.1253
33047W        W39647   3.072   7.694  17.367 -0.1077 -0.0564 -0.3827
33048W        W39648  16.300   1.892  15.577 -0.2145  0.1311 -0.0117
33049W        W39649  27.483   2.113  15.045  0.1244  0.0095 -0.3306
33050W        W39650  16.757   3.524  21.598  0.1125  0.0052 -0.1309
33051W        W39651  18.710   6.660  21.124 -0.0869  0.0343 -0.0588
33052W        W39652   7.659   2.795  23.696  0.1093 -0.1582 -0.1104
33053W        W39653   7.935   7.284  14.654  0.3414 -0.4021  0.1740
33054W        W39654  12.956   3.645   9.174 -0.0361 -0.4333 -0.0732
33055W        W39655  28.607   5.072   9.889  0.0454 -0.2453  0.1822
33056W        W39656  19.451   4.303   9.009  0.2174 -0.1381 -0.1656
33057W        W39657  23.760   6.118  21.724  0.0389 -0.1082  0.5784
33058W        W39658  15.998   1.536   7.564  0.0867 -0.1915  0.0435
33059W        W39659   5.951   5.471   1.415 -0.2904  0.0561 -0.2509
33060W        W39660   8.997   1.187  18.414  0.1095 -0.2960 -0.0134
33061W        W39661  11.609   6.526   9.385 -0.0980  0.1211  0.0233
33062W        W39662  30.990   7.628  23.325  0.0238  0.0576  0.0246
33063W        W39663   5.402   5.693   1.279  0.2154  0.0029  0.2227
33064W        W39664  22.794   0.092  19.694  0.1990  0.3284  0.0802
33065W        W39665  27.393   2.912   8.635  0.1950  0.1520  0.0489
33066W        W39666  27.213   7.348  24.576  0.0580  0.0053  0.1594
33067W        W39667  20.705   0.767  15.126 -0.3469  0.0739  0.1235
33068W        W39668  20.458   6.495   9.934 -0.1532 -0.0498 -0.2354
33069W        W39669  14.105   0.838  19.079 -0.0050  0.2904  0.4360
33070W        W39670  26.259   1.004   1.346 -0.3211  0.0008 -0.2136
33071W        W39671   0.014   2.258  20.473 -0.1655 -0.0601  0.1386
33072W        W39672   8.214   2.832   9.406 -0.0709  0.4301  0.0985
33073W        W39673  30.602   0.725  18.209 -0.1901  0.1312  0.0488
33074W        W39674  27.228   5.951  19.411 -0.1159  0.2689 -0.0803
33075W        W39675   0.972   4.880   9.931  0.0378  0.0991  0.1831
33076W        W39676   0.736   1.147  22.665 -0.4142  0.0216 -0.0472
33077W        W39677   2.478   5.866   6.750 -0.0763  0.0263  0.0058
33078W        W39678  23.259   5.838   9.003  0.5016 -0.0456 -0.1705
33079W        W39679  28.674   6.170  15.767  0.1589  0.0601 -0.1637
33080W        W39680  29.802   6.368  15.200  0.1356 -0.0125  0.2961
33081W        W39681   5.573   4.515  16.236  0.1853 -0.2949  0.2228
33082W        W39682   7.069   2.185   4.245 -0.0282  0.0902  0.0758
33083W        W39683  16.472   0.041  23.314 -0.1846  0.1174  0.3790
33084W        W39684  14.392   0.561  16.505  0.4691  0.2180 -0.1757
33085W        W39685  21.245   5.159  24.168 -0.2619 -0.0683 -0.0873
33086W        W39686  12.918   4.515  10.260 -0.2656  0.1116  0.1037
33087W        W39687  28.956   6.663   1.674  0.4843  0.3352  0.1613
33088W        W39688  30.837   7.349  22.897  0.1004 -0.0092 -0.1090
33089W        W39689  26.584   0.739   2.553 -0.2131  0.1905  0.0544
33090W        W39690  23.244   2.471  23.394 -0.0801  0.3583 -0.2510
33091W        W39691  30.253   0.016  24.382  0.0401 -0.2619  0.1615
33092W        W39692  19.553   1.733   2.208 -0.0791 -0.0118  0.3422
33093W        W39693  20.154   7.856   6.770  0.3464  0.2361  0.0624
33094W        W39694  20.481   1.229  10.668  0.3689 -0.0564 -0.0197
33095W        W39695  25.163   4.930  16.018  0.0957 -0.0853  0.0411
33096W        W39696   1.168   2.995   3.391  0.1512 -0.1076  0.4466
33097W        W39697  24.315   3.586   7.135  0.0809  0.3283 -0.3042
33098W        W39698  30.630   5.722  25.560 -0.1328 -0.1484  0.1568
33099W        W39699   0.162   5.996   7.090 -0.0310 -0.3549 -0.0946
33100W        W39700   4.274   1.104  18.392  0.1952  0.1693 -0.1083
33101W        W39701  26.389   2.586   4.077  0.0029 -0.2488  0.0550
33102W        W39702  18.169   5.571  22.855 -0.0121 -0.0973  0.2588
33103W        W39703  22.692   3.552   4.444 -0.1379  0.1325  0.0830
33104W        W39704   5.950   2.113  20.672 -0.0753 -0.2058 -0.0644
33105W        W39705  26.247   1.489   2.617 -0.0778 -0.0969  0.3749
33106W        W39706  13.108   6.925  24.026 -0.0383  0.0352 -0.1896
33107W        W39707   0.767   2.321   9.992 -0.0395  0.1609 -0.0612
33108W        W39708  15.987   0.260  17.253  0.0416  0.1926 -0.0599
33109W        W39709  16.379   5.554   5.597  0.0088 -0.0464  0.0631
33110W        W39710  14.591   4.007  19.187 -0.0565 -0.0574 -0.1480
33111W        W39711  19.830   0.333   0.303 -0.0788 -0.1374  0.4392
33112W        W39712   3.905   4.422  15.934 -0.0404 -0.0283 -0.0159
33113W        W39713  22.721   2.350   8.172  0.1697  0.2126  0.0967
33114W        W39714  16.450   4.543   2.952  0.1880 -0.0695 -0.1739
33115W        W39715   0.266   0.402  25.475 -0.1617  0.0738  0.3055
33116W        W39716   8.117   1.650   5.129  0.0154 -0.0647 -0.1612
33117W        W39717  18.308   2.759  17.221  0.1573  0.0592  0.1829
33118W        W39718  27.638   6.917  10.136  0.0649 -0.2180  0.2277
33119W        W39719  22.040   4.189   0.554 -0.0985 -0.1354 -0.2264
33120W        W39720   0.075   2.690  10.589  0.0598 -0.1750  0.0263
33121W        W39721   1.233   6.062   2.026 -0.3243  0.0877 -0.1557
33122W        W39722  27.252   1.424   6.861 -0.0396 -0.1132  0.2273
33123W        W39723   0.951   3.331   5.598  0.0318  0.0372 -0.1869
33124W        W39724   5.739   2.276   7.083 -0.0579 -0.0217 -0.4300
33125W        W39725  12.940   7.631  25.650 -0.2566  0.1260  0.2143
33126W        W39726   7.744   0.082   6.023  0.0125  0.1844  0.0588
33127W        W39727   1.620   0.663  22.707  0.3008 -0.0002 -0.4739
33128W        W39728  10.587   4.439   7.096 -0.1935  0.0671 -0.0509
33129W        W39729  25.715   1.493  16.049  0.0608  0.1415 -0.0727
33130W        W39730  25.612   5.771  23.129 -0.0993 -0.1079  0.1414
33131W        W39731   8.314   4.403  21.048 -0.2044 -0.1119 -0.0144
33132W        W39732  28.158   5.721   4.465  0.0557  0.2742  0.0352
33133W        W39733  23.919   7.550   7.457 -0.0349  0.0623 -0.1330
33134W        W39734  27.740   2.991  23.226  0.0331 -0.1149  0.2381
33135W        W39735  29.540   0.545   0.051 -0.0507 -0.0414  0.0299
33136W        W39736  20.002   2.799  22.831  0.0587  0.5531  0.0576
33137W        W39737  16.755   4.661   7.441 -0.2257 -0.2703 -0.1898
33138W        W39738  12.553   2.701  21.227 -0.0969 -0.0764  0.2059
33139W        W39739   3.090   4.086   0.845 -0.1708 -0.0071  0.0061
33140W        W39740  10.358   6.310  19.971  0.0106  0.0592 -0.1274
33141W        W39741  13.451   5.301  20.364 -0.1724 -0.6632  0.0924
33142W        W39742   1.161   0.253   4.616 -0.2170  0.2190  0.2146
33143W        W39743  27.854   4.772  25.967 -0.1589  0.0465 -0.0949
33144W        W39744  26.957   2.848  24.161  0.2313  0.0035  0.1974
33145W        W39745  23.901   1.897   0.407 -0.2068 -0.3744  0.3021
33146W        W39746   9.127   1.980  21.412 -0.3703  0.0115 -0.0577
33147W        W39747  24.562   7.729  23.120  0.1993 -0.1419 -0.1892
33148W        W39748   2.761   1.261  18.415  0.0836  0.0929 -0.0393
33149W        W39749  14.395   6.155  17.517  0.4453  0.0311  0.2760
33150W        W39750   9.160   2.863  21.555  0.0012  0.2085  0.0478
33151W        W39751   0.320   1.473   1.917 -0.0179  0.4175 -0.0146
33152W        W39752  20.611   1.750  21.988 -0.0872 -0.2125  0.4664
33153W        W39753  14.985   6.337   5.603 -0.0133  0.3073 -0.0291
33154W        W39754   8.302   7.659   7.441 -0.0424 -0.2153  0.0280
33155W        W39755  14.720   1.358   6.353  0.1893  0.2471 -0.1780
33156W        W39756  24.620   1.585  17.244 -0.3271 -0.1258 -0.3244
33157W        W39757   5.704   1.200  21.759  0.0915 -0.1012  0.2221
33158W        W39758  13.922   6.824   6.058 -0.4036 -0.1164 -0.0393
33159W        W39759  25.286   6.667  17.938 -0.0580 -0.0629 -0.1075
33160W        W39760  10.845   1.941  23.703 -0.3187 -0.3909 -0.5623
33161W        W39761   4.817   7.349  22.932  0.0456 -0.2549 -0.0828
33162W        W39762   4.113   4.390   3.819 -0.3561 -0.1253 -0.3247
33163W        W39763  27.956   2.329  21.522  0.2565 -0.2626  0.0167
33164W        W39764  29.242   4.935  20.958 -0.0159  0.0061 -0.2248
33165W        W39765  12.972   7.386   1.708 -0.2708 -0.1052  0.0353
33166W        W39766  16.916   3.376  23.434  0.0618 -0.1150 -0.1792
33167W        W39767  22.072   3.841  18.799  0.0945 -0.0343 -0.2781
33168W        W39768   5.385   2.914  24.681 -0.3060  0.1491 -0.0519
33169W        W39769  28.664   1.571   5.431 -0.2514 -0.0050  0.2190
33170W        W39770   0.737   2.388  25.378 -0.0562  0.2420 -0.0292
33171W        W39771   0.124   0.878  14.241 -0.1056  0.0576  0.0615
33172W        W39772   8.312   2.123  20.509  0.0787  0.4076  0.0300
33173W        W39773   8.119   5.636  19.600  0.0134  0.0828  0.4380
33174W        W39774   6.627   0.145   0.819 -0.0032  0.0659  0.1463
33175W        W39775   6.455   6.379  21.925  0.1059  0.3557 -0.3195
33176W        W39776   1.874   1.681  24.135  0.0373 -0.1861 -0.0351
33177W        W39777  24.521   3.206  22.403 -0.4481  0.1452  0.1371
33178W        W39778  19.468   6.496   6.549  0.1923 -0.2404  0.0096
33179W        W39779   4.975   2.586  16.687 -0.1791  0.1039  0.0695
33180W        W39780  20.106   3.016   7.695  0.2474 -0.1068  0.2328
33181W        W39781  23.459   5.879   5.992  0.2926  0.1010  0.0772
33182W        W39782  26.872   2.877  18.976 -0.3043  0.3226  0.1585
33183W        W39783   6.070   4.426   3.294 -0.1930  0.1154 -0.0047
33184W        W39784  29.078   7.033  14.904 -0.0201 -0.2098 -0.4412
33185W        W39785  18.477   2.391   8.215  0.1269 -0.1412  0.1549
33186W        W39786  30.319   1.680  18.431 -0.1543 -0.1150 -0.0466
33187W        W39787  16.732   7.401  25.637  0.2268  0.3045  0.1319
33188W        W39788  24.993   4.418  18.730  0.0519 -0.2851  0.1486
33189W        W39789  27.591   5.666  25.870  0.0354  0.2040 -0.1202
33190W        W39790   6.078   3.796  24.062 -0.2387 -0.2002 -0.1104
33191W        W39791  19.791   0.303  17.303 -0.0448  0.1743  0.0342
33192W        W39792  15.648   3.281  17.489  0.1206  0.2418 -0.2011
33193W        W39793   6.738   2.307  22.183 -0.0129 -0.2584 -0.2099
33194W        W39794  12.540   2.907  18.960  0.2669  0.2644 -0.2569
33195W        W39795   1.784   4.744  14.799 -0.3137 -0.0349  0.5085
33196W        W39796   8.828   4.113  11.459  0.1210 -0.2409  0.2298
33197W        W39797   2.299   1.740   7.578  0.0229 -0.1850 -0.0715
33198W        W39798  17.794   1.005  19.085  0.0797  0.0614 -0.0512
33199W        W39799  20.189   4.047  24.274  0.0840  0.0142  0.0753
33200W        W39800   3.226   5.898  17.181 -0.0376  0.1443 -0.1022
33201W        W39801   2.314   0.178  20.811  0.1028  0.0846  0.1747
33202W        W39802  10.104   2.364   4.716  0.2314 -0.0505 -0.3078
33203W        W39803  27.517   4.980   7.050  0.0841  0.1584  0.0715
33204W        W39804  19.003   0.961   3.999  0.2706 -0.1496  0.2988
33205W        W39805  18.852   0.758   0.358 -0.2952  0.2318 -0.2217
33206W        W39806  28.871   0.373  10.509  0.0175  0.1431 -0.3040
33207W        W39807  31.118   1.527  19.269 -0.0004 -0.0194  0.3497
33208W        W39808   1.562   5.230   9.446 -0.2049  0.1096  0.1376
33209W        W39809   1.584   5.527  18.366 -0.2569 -0.2613  0.1285
33210W        W39810  23.705   5.171  10.140 -0.1650  0.2733  0.1560
33211W        W39811  27.871   1.236  24.939  0.2650 -0.0973  0.2974
33212W        W39812  15.541   6.291  23.739  0.0168 -0.1360 -0.0240
33213W        W39813   4.579   1.728   8.568 -0.2927 -0.1072  0.1678
33214W        W39814   8.347   3.376   6.163  0.1438  0.0519 -0.1024
33215W        W39815  10.784   5.386   3.564  0.2416 -0.0013  0.0126
33216W        W39816   3.077   3.800  25.934  0.1422  0.2650  0.0410
33217W        W39817  23.442   3.569   6.248  0.3027 -0.0020  0.2736
33218W        W39818  28.404   4.635   6.746  0.0850  0.1793 -0.3987
33219W        W39819  24.856   5.691  19.747 -0.1009  0.2157 -0.2146
33220W        W39820  16.657   4.937  25.826  0.1391  0.0417  0.2682
33221W        W39821  12.256   6.313   8.862 -0.1907  0.1193 -0.0143
33222W        W39822  15.301   7.049  17.988 -0.2521  0.1126  0.1758
33223W        W39823   9.381   7.381   2.391 -0.2649 -0.1124 -0.1674
33224W        W39824   2.596   4.598  14.232 -0.1285 -0.0119  0.0186
33225W        W39825  28.982   5.678  15.935  0.1483 -0.2364  0.2933
33226W        W39826  28.794   6.073   1.654  0.1810  0.1580 -0.0744
33227W        W39827  18.850   0.235  20.358 -0.2043  0.0380  0.0146
33228W        W39828   7.009   5.468  10.523  0.2556 -0.0415 -0.2029
33229W        W39829  11.684   6.118  21.420 -0.1104  0.0335  0.0301
33230W        W39830  10.028   5.448   7.661 -0.0538 -0.2910  0.0856
33231W        W39831  20.401   3.209  22.743  0.0443  0.3308 -0.3253
33232W        W39832  13.342   5.028  22.225 -0.0797 -0.1023 -0.0590
33233W        W39833  20.696   1.999   8.384 -0.0606 -0.0800  0.0357
33234W        W39834  28.862   0.641   5.660 -0.0916  0.2684 -0.2133
33235W        W39835   0.160   5.626  20.597 -0.2163  0.0266 -0.2436
33236W        W39836   1.374   1.708   4.210 -0.2128 -0.0803 -0.2369
33237W        W39837  20.295   4.802  20.389  0.1626  0.1127  0.1530
33238W        W39838  17.848   4.803  11.010 -0.0748 -0.1832  0.0240
33239W        W39839   9.947   2.318  21.449  0.0115  0.0336  0.1676
33240W        W39840   0.829   2.449   8.157 -0.1650 -0.3673  0.1451
33241W        W39841  14.351   7.287   9.845  0.0764 -0.0715  0.2145
33242W        W39842  18.778   2.237  23.762  0.0445  0.1430  0.2188
33243W        W39843  12.946   0.579  18.298 -0.5306 -0.0507 -0.3603
33244W        W39844  10.381   0.599  19.358 -0.0243  0.1199 -0.0652
33245W        W39845  25.883   3.631  16.280  0.0699 -0.0258 -0.0179
33246W        W39846  28.431   6.006  19.071 -0.2282  0.1809  0.1681
33247W        W39847  13.145   3.099   9.839 -0.1194 -0.0491  0.0434
33248W        W39848  23.462   4.580  24.296 -0.1147  0.3443 -0.0628
33249W        W39849   0.053   3.075  14.832 -0.0818  0.0035 -0.2098
33250W        W39850   5.709   2.166  21.167  0.2466  0.0797  0.2733
33251W        W39851  21.748   7.849   4.300  0.0573 -0.0786  0.1371
33252W        W39852  16.838   1.305   6.802 -0.0563  0.0588 -0.0102
33253W        W39853   5.684   5.530   6.216  0.2432  0.0471 -0.0112
33254W        W39854  24.056   3.455  23.505 -0.2527  0.0201 -0.4362
33255W        W39855  15.828   4.580   8.707 -0.0968 -0.1918  0.3151
33256W        W39856   6.143   4.877  10.780  0.0543 -0.0145  0.0375
33257W        W39857  30.457   3.175  24.342 -0.0818 -0.0156 -0.5617
33258W        W39858  25.626   4.763   2.624  0.0727  0.0805  0.1548
33259W        W39859  16.112   3.815  16.030 -0.0404  0.1689  0.0212
33260W        W39860  16.439   6.970  10.730 -0.1601 -0.0094  0.2376
33261W        W39861  11.749   0.727   3.346  0.2134 -0.2609 -0.1166
33262W        W39862  24.878   3.172   4.866  0.0924  0.1939 -0.1812
33263W        W39863  11.146   3.349   9.214 -0.2737 -0.2342  0.0243
33264W        W39864  29.609   2.867  24.071 -0.0047  0.0390 -0.3533
33265W        W39865   6.072   2.065  19.245 -0.2769 -0.1926  0.2194
33266W        W39866   7.442   7.759   3.690 -0.1475 -0.1124  0.0301
33267W        W39867  25.826   3.866  23.062 -0.0779  0.0342 -0.2648
33268W        W39868  20.277   2.982  25.081 -0.0402  0.2267  0.1555
33269W        W39869  28.261   2.091   8.844 -0.0836 -0.2569 -0.2118
33270W        W39870  29.515   4.543   1.527 -0.0119 -0.0875 -0.0675
33271W        W39871  23.218   7.848  24.139 -0.1008  0.1863  0.1073
33272W        W39872  16.183   3.432  23.556  0.0505  0.0148  0.0344
33273W        W39873  19.847   4.930   8.814 -0.2152 -0.0031  0.1256
33274W        W39874   3.809   3.798  18.286  0.0163  0.1085 -0.0539
33275W        W39875   4.909   2.786  19.890  0.1168 -0.0320 -0.0865
33276W        W39876  29.273   7.103  24.411 -0.1097  0.2304  0.0718
33277W        W39877  17.964   5.612  18.558 -0.0095 -0.1711 -0.1195
33278W        W39878  18.957   3.052   0.641 -0.1561  0.0476 -0.0169
33279W        W39879  22.478   1.531   5.896  0.1279  0.2581 -0.0901
33280W        W39880   9.836   2.737   4.909 -0.1167 -0.3666  0.2151
33281W        W39881  12.060   4.899   0.312  0.0145  0.2991  0.0791
33282W        W39882  26.285   5.373  24.785 -0.0209  0.3996 -0.0537
33283W        W39883  12.238   6.938  18.402 -0.0478 -0.0150  0.1381
33284W        W39884  20.310   0.226   2.690  0.0273 -0.0694 -0.0813
33285W        W39885  29.839   1.975   6.648  0.0735 -0.0793 -0.0070
33286W        W39886   6.282   3.147  20.411 -0.3076 -0.1235  0.1191
33287W        W39887  25.315   5.998   4.980 -0.1218 -0.0015  0.1285
33288W        W39888  18.659   5.007  18.968 -0.2247 -0.2169 -0.0678
33289W        W39889   5.328   2.120   2.376 -0.0364  0.0941 -0.0640
33290W        W39890   1.098   2.058   6.837  0.1759 -0.4656 -0.2105
33291W        W39891  12.471   3.061  16.705  0.3653 -0.1551  0.0990
33292W        W39892   4.962   4.044   9.410  0.1302  0.1843 -0.0178
33293W        W39893  27.623   1.355   0.981 -0.1568 -0.3287  0.1178
33294W        W39894   1.995   4.145   2.334 -0.1317 -0.1265  0.2884
33295W        W39895  21.417   7.195  21.596  0.3040  0.0440  0.2560
33296W        W39896   4.039   2.346  23.405  0.0477  0.0763 -0.1484
33297W        W39897  31.413   6.973  14.020  0.0873  0.0849  0.1425
33298W        W39898  22.257   4.197   5.572 -0.0183 -0.0067 -0.2682
33299W        W39899  17.645   6.147   6.121  0.0039  0.3305  0.0028
33300W        W39900  27.454   1.370   7.868  0.0169  0.2391  0.1493
33301W        W39901   7.108   5.463   1.280 -0.1009  0.0555 -0.2655
33302W        W39902  25.211   7.801  23.787  0.1770 -0.0040 -0.0713
33303W        W39903  10.053   2.199   5.350 -0.2273 -0.0397 -0.0381
33304W        W39904  25.997   3.971   0.784 -0.1005  0.0990  0.2466
33305W        W39905   9.526   3.943   6.859  0.1029 -0.0710 -0.0399
33306W        W39906   6.867   1.419   0.521  0.0816 -0.0504  0.1659
33307W        W39907  10.741   6.207  25.296 -0.1107  0.2234 -0.0485
33308W        W39908   2.845   5.361  25.335  0.0816  0.0312  0.1160
33309W        W39909  22.502   7.844  20.929  0.1481  0.0280 -0.2528
33310W        W39910  25.675   3.764   3.456 -0.0695 -0.0616  0.1319
33311W        W39911  23.799   0.114   9.255 -0.0672 -0.3625 -0.2676
33312W        W39912   9.604   0.181   9.485 -0.1275  0.1809  0.1609
33313W        W39913   7.973   4.996  23.433  0.1262 -0.0258 -0.0688
33314W        W39914   2.269   5.378   6.979  0.2869  0.0832  0.1656
33315W        W39915  15.405   1.810  20.750  0.1284 -0.3050  0.2978
33316W        W39916  10.457   1.691   2.691 -0.0647  0.1102 -0.1016
33317W        W39917   6.742   3.152  16.972  0.0556 -0.2447  0.0106
33318W        W39918  10.585   6.994   8.640 -0.2114  0.3493 -0.1285
33319W        W39919  19.824   4.476  23.918 -0.2343 -0.2054 -0.0653
33320W        W39920  11.101   2.645   3.570 -0.1311  0.1134  0.0111
33321W        W39921   5.751   1.390   8.629  0.0743 -0.0340 -0.1707
33322W        W39922   9.790   0.617   2.766  0.1279  0.0195 -0.1468
33323W        W39923  22.439   0.787   3.183  0.0492  0.2065  0.0938
33324W        W39924  29.499   3.056  25.814  0.0610 -0.2325  0.0033
33325W        W39925  22.995   7.436  23.890  0.0080  0.0220  0.0042
33326W        W39926  19.782   3.073  23.763  0.1949 -0.2089 -0.2624
33327W        W39927  24.477   4.124   2.182 -0.0954  0.1759 -0.0208
33328W        W39928   2.190   3.533   1.430  0.6028 -0.0762  0.1339
33329W        W39929  26.748   7.151   3.667 -0.0163 -0.3600 -0.2039
33330W        W39930  20.697   6.300   1.763 -0.1124  0.1836 -0.0601
33331W        W39931  30.957   0.864   4.484  0.0921 -0.0396 -0.4819
33332W        W39932  18.217   2.224  18.504  0.3071 -0.1134  0.1013
33333W        W39933  20.667   6.172   9.328  0.0199 -0.2518  0.4063
33334W        W39934   2.899   5.844  14.998  0.1033 -0.2174  0.1854
33335W        W39935  21.838   3.783   0.503  0.0849  0.1349 -0.0921
33336W        W39936  24.344   7.813   2.516 -0.0091 -0.4502  0.1695
33337W        W39937   4.322   3.340  25.722 -0.3923 -0.1261 -0.1185
33338W        W39938  17.110   1.062   9.943  0.0073 -0.0516 -0.1227
33339W        W39939   3.958   7.227   8.206 -0.1598 -0.0354 -0.0154
33340W        W39940   7.521   4.589   5.095  0.2181  0.1816  0.2476
33341W        W39941  24.460   3.048  17.890  0.2628  0.1515  0.0488
33342W        W39942  12.755   5.308   9.869  0.1511  0.0376  0.1098
33343W        W39943  31.074   4.079  17.705  0.3628 -0.0475  0.1983
33344W        W39944   6.023   3.815  19.531  0.0197  0.0658 -0.0436
33345W        W39945   1.009   0.368  10.192  0.1030  0.0544  0.1713
33346W        W39946   8.518   7.158   7.212  0.0275 -0.0468 -0.2714
33347W        W39947   6.040   7.311  21.834 -0.0173 -0.0036  0.5768
33348W        W39948  23.464   4.534   8.351  0.0476 -0.1327 -0.1597
33349W        W39949  15.743   0.616  10.045  0.1995  0.0098 -0.2804
33350W        W39950  29.944   1.764  15.523  0.1248 -0.0112  0.0634
33351W        W39951  11.625   5.047  15.470  0.3061 -0.0296  0.0859
33352W        W39952   7.109   4.469   2.923  0.1218  0.2980 -0.0024
33353W        W39953   9.024   3.130   2.155 -0.0266  0.3817 -0.1349
33354W        W39954   6.800   4.491  15.648 -0.2641  0.0334  0.1600
33355W        W39955  15.123   7.765  23.835 -0.0726 -0.2504  0.0610
33356W        W39956  15.386   4.485   5.976  0.4552  0.2313  0.0146
33357W        W39957   2.485   4.930   5.672 -0.0598 -0.1367  0.0282
33358W        W39958   5.371   3.718  18.434 -0.0954  0.3441 -0.0204
33359W        W39959   4.933   7.215  10.049 -0.4419 -0.1007  0.2731
33360W        W39960   8.345   2.489   1.383 -0.0540 -0.0488 -0.2386
33361W        W39961  18.328   5.826   8.258  0.0795 -0.3977 -0.1883
33362W        W39962   4.743   4.311  22.477  0.0100 -0.0084  0.1823
33363W        W39963  24.901   7.651   7.299  0.1471 -0.0743  0.0147
33364W        W39964  10.007   0.233  15.476 -0.1885  0.0297  0.1523
33365W        W39965  29.307   1.736  19.695  0.2846  0.0356  0.1467
33366W        W39966   9.693   6.740  21.962 -0.0755  0.2017  0.1003
33367W        W39967  20.551   6.961   7.122  0.0792  0.1993  0.0481
33368W        W39968   2.843   2.810  17.166  0.1707 -0.2217  0.0714
33369W        W39969  10.411   0.254  23.590  0.2465  0.2518 -0.0629
33370W        W39970  12.084   6.881   1.275  0.0281  0.0991 -0.0879
33371W        W39971  18.612   0.663  16.379 -0.0127 -0.1152  0.1224
33372W        W39972  27.647   4.869  16.944  0.0414  0.3073 -0.0341
33373W        W39973   7.972   3.265   1.670 -0.0610 -0.1150 -0.1553
33374W        W39974   5.446   2.044   9.395  0.2910  0.2183 -0.0688
33375W        W39975   9.131   0.522   1.321 -0.2132 -0.0695  0.0880
33376W        W39976  14.599   6.072   3.053  0.2442 -0.2284 -0.0790
33377W        W39977  19.891   7.032  22.043  0.1069 -0.0904 -0.0410
33378W        W39978  21.087   1.706   4.281 -0.0526 -0.1502  0.1311
33379W        W39979  13.741   1.548  10.694 -0.1442  0.1619 -0.1322
33380W        W39980  21.096   6.066   1.442  0.4311 -0.3377 -0.1800
33381W        W39981  25.462   0.064  24.225  0.0355 -0.0747 -0.1317
33382W        W39982   8.524   4.772  18.437 -0.3505  0.0121  0.2772
33383W        W39983  24.999   4.264  16.300 -0.0587 -0.3591 -0.0515
33384W        W39984  17.726   6.259  23.260  0.2235 -0.1261  0.1351
33385W        W39985  19.750   4.006  20.766  0.1364  0.1965 -0.3570
33386W        W39986  12.537   2.297   6.630  0.0367 -0.1616  0.1571
33387W        W39987   7.261   1.253   6.214 -0.4080 -0.3007 -0.1191
33388W        W39988  18.532   0.432  23.726 -0.0913  0.0827 -0.0905
33389W        W39989   1.733   4.552   3.584  0.0528 -0.0603  0.0882
33390W        W39990  30.827   0.884  24.396 -0.1440 -0.0312 -0.0331
33391W        W39991  29.024   0.451  25.043 -0.0084 -0.0837  0.2473
33392W        W39992  10.398   2.685   6.840 -0.0294  0.3254  0.1732
33393W        W39993  30.411   7.666   8.843 -0.0692 -0.0935 -0.0439
33394W        W39994  12.195   7.820  22.105  0.0172  0.1874  0.1128
33395W        W39995  20.339   2.649  22.030 -0.0245  0.1400  0.0928
33396W        W39996   3.212   1.083   9.147  0.2176 -0.0201 -0.0178
33397W        W39997  30.787   5.682  20.342  0.2800  0.0433  0.0329
33398W        W39998  31.034   2.382  25.753  0.0349 -0.0561  0.0647
33399W        W39999   5.328   0.770  17.836  0.1911  0.2228 -0.1670
33400W        W40000   1.865   1.381  24.505  0.1152 -0.3575 -0.0628
33401W        W40001  20.936   0.541   0.392  0.2333 -0.0767  0.0139
33402W        W40002  19.714   6.855   3.052  0.0028 -0.0502 -0.1343
33403W        W40003  30.693   3.833  16.176  0.3332 -0.1712  0.0220
33404W        W40004  25.218   5.679   1.747 -0.1538 -0.4052 -0.0632
33405W        W40005  21.558   3.730   2.928  0.0470  0.0936  0.1825
33406W        W40006  13.896   1.797  23.792 -0.1551 -0.1237 -0.2543
33407W        W40007  19.609   3.988  17.818 -0.2400  0.0889  0.1256
33408W        W40008   4.580   6.081   2.958 -0.1295 -0.0130  0.0460
33409W        W40009   6.961   3.850   2.016 -0.1214  0.1099  0.0626
33410W        W40010  25.027   3.416  11.157 -0.1868 -0.1467 -0.0704
33411W        W40011  30.760   1.934  15.523  0.2169  0.0154 -0.4150
33412W        W40012   4.168   1.920  20.936  0.0907  0.0197  0.0039
33413W        W40013  24.270   3.187  18.799  0.1467 -0.1715  0.0677
33414W        W40014  18.528   4.308   0.895 -0.2313 -0.3575 -0.1458
33415W        W40015  21.331   4.443   6.942  0.0110 -0.0397 -0.1839
33416W        W40016   8.562   1.172   6.956  0.0719 -0.0381  0.2580
33417W        W40017  26.436   4.463  24.787  0.1659 -0.0016 -0.1025
33418W        W40018  24.115   5.599   9.333  0.1199 -0.0399 -0.3084
33419W        W40019  11.422   3.611  19.123 -0.1129 -0.0042 -0.0716
33420W        W40020  10.846   0.912   7.977 -0.1782  0.1475  0.1807
33421W        W40021  27.249   7.160  18.867 -0.2058  0.1777  0.0241
33422W        W40022  25.563   5.795  15.833 -0.0392 -0.1334 -0.0084
33423W        W40023  10.354   1.340  25.936  0.2688 -0.1408 -0.2071
33424W        W40024  24.703   0.616   9.439  0.4776 -0.1280 -0.0489
33425W        W40025  29.749   2.923  20.668 -0.1390 -0.0385 -0.0681
33426W        W40026  20.038   5.939   6.756 -0.0255 -0.0089 -0.0710
33427W        W40027  11.850   5.788   8.675  0.1042  0.1048 -0.1838
33428W        W40028   2.028   2.111  23.122  0.0386 -0.0608 -0.0002
33429W        W40029  18.641   0.995  19.113 -0.2240  0.1234  0.2129
33430W        W40030  13.110   1.560  22.757 -0.0383 -0.1239  0.1116
33431W        W40031  14.681   2.459  19.552  0.0277  0.0038 -0.1928
33432W        W40032   8.885   3.814  19.504  0.0487 -0.0173 -0.0189
33433W        W40033   1.565   4.771   6.684  0.0956 -0.0744 -0.1066
33434W        W40034  29.619   6.135  21.285 -0.2214 -0.2315  0.0904
33435W        W40035   3.857   6.007  16.538  0.2491 -0.0312  0.0155
33436W        W40036  12.835   4.833   1.339  0.2336 -0.1681  0.2423
33437W        W40037  26.947   6.006   3.453 -0.0395 -0.1406  0.0896
33438W        W40038  10.006   4.201  23.090 -0.0580  0.0361  0.0389
33439W        W40039  30.876   6.206   8.288  0.1089 -0.0486 -0.2199
33440W        W40040  26.170   3.425  20.350  0.2100  0.0619 -0.2786
33441W        W40041  18.475   2.504  20.032  0.2683  0.2537 -0.1890
33442W        W40042   6.756   1.824   3.899  0.1219 -0.0827 -0.1666
33443W        W40043   0.847   3.406   3.369 -0.1170  0.0997  0.0459
33444W        W40044  14.158   1.027  24.579  0.2399  0.3574 -0.0082
33445W        W40045  19.021   4.146  20.011  0.0021  0.2350  0.0615
33446W        W40046  19.269   0.473  25.200  0.3496 -0.0766 -0.1397
33447W        W40047  24.947   1.275  17.453 -0.1592 -0.2091  0.0961
33448W        W40048  18.429   1.523   4.999 -0.2551 -0.3205 -0.0081
33449W        W40049  19.214   1.153  22.397 -0.0431  0.3992  0.0990
33450W        W40050  14.077   5.136  15.609 -0.1579 -0.0887  0.0500
33451W        W40051  19.069   6.890   7.153 -0.0196 -0.0934  0.1825
33452W        W40052  15.906   4.621  11.515  0.1617 -0.0577  0.0256
33453W        W40053  17.548   7.105   8.600  0.2111  0.0808 -0.2394
33454W        W40054  18.943   3.857  11.202  0.0991 -0.2591  0.1253
33455W        W40055  13.121   3.778   9.722 -0.0503 -0.2689 -0.0646
33456W        W40056  28.716   1.918   5.862 -0.0345 -0.1898 -0.1372
33457W        W40057  26.906   7.812  21.340 -0.0443 -0.4996 -0.0461
33458W        W40058  22.643   5.053  25.619  0.2360  0.1236 -0.3709
33459W        W40059  27.087   3.272  24.940 -0.1152  0.1618 -0.0361
33460W        W40060  14.624   6.056  17.097  0.1361  0.2200 -0.0493
33461W        W40061  31.233   3.421  20.187  0.5504  0.0933 -0.0624
33462W        W40062   4.009   6.595  10.829 -0.1247 -0.0383 -0.2244
33463W        W40063  14.489   7.852  19.841  0.1149  0.0168 -0.2488
33464W        W40064  10.385   0.401   8.835 -0.2239  0.0719 -0.0022
33465W        W40065  27.999   5.981  24.966  0.2453 -0.3324  0.0185
33466W        W40066   0.138   3.044   2.957  0.1389  0.0546  0.0130
33467W        W40067  18.726   1.930   6.279  0.3722 -0.1922 -0.0345
33468W        W40068   7.533   7.032   4.904 -0.1103  0.2220  0.3360
33469W        W40069  28.820   4.036  16.388  0.1971  0.2460 -0.2459
33470W        W40070   9.966   6.898  21.554 -0.4247  0.3167 -0.0133
33471W        W40071   6.996   4.795  24.358 -0.4373 -0.0922  0.1453
33472W        W40072  25.828   2.929   3.688  0.0848  0.1593  0.0672
33473W        W40073  13.024   6.516  17.321  0.1830 -0.2038 -0.0187
33474W        W40074  17.943   3.242   9.221  0.2214  0.1536  0.1455
33475W        W40075   7.487   4.787  24.499  0.0334  0.2232 -0.1209
33476W        W40076  18.144   5.870   4.578  0.1597 -0.0035  0.0869
33477W        W40077   2.316   0.537   4.574 -0.2369  0.2213  0.0747
33478W        W40078  12.879   2.668   9.845  0.2107  0.0854  0.0599
33479W        W40079   4.391   1.641   7.663  0.2090 -0.1601  0.4608
33480W        W40080  21.577   0.935   0.874  0.2765  0.1031  0.1097
33481W        W40081  19.620   0.947  19.570  0.0781  0.0846  0.3335
33482W        W40082  19.378   5.318   6.973  0.1561 -0.1474 -0.2398
33483W        W40083  10.317   0.530   9.948  0.0430 -0.0712  0.2017
33484W        W40084  10.684   7.391   3.336  0.0460  0.0165 -0.0198
33485W        W40085   3.731   5.507   0.777  0.0003 -0.3760  0.0657
33486W        W40086   0.216   1.041   2.241 -0.1236  0.1252  0.2829
33487W        W40087   9.439   4.721  19.498  0.1504  0.0178  0.0145
33488W        W40088  12.320   5.001   9.929  0.1591 -0.0123 -0.2629
33489W        W40089  11.641   4.861   8.219 -0.0228  0.1094 -0.0176
33490W        W40090   8.592   3.281   7.326 -0.2204 -0.1084  0.0816
33491W        W40091   1.223   2.793   8.128  0.0288  0.2692  0.1240
33492W        W40092   1.242   4.101  21.996  0.0555  0.2489  0.0838
33493W        W40093   5.179   2.177  21.215  0.0391 -0.1264 -0.1727
33494W        W40094   4.177   2.027  15.271 -0.1048 -0.1559 -0.2506
33495W        W40095  22.074   3.924   6.387  0.1031  0.0069 -0.1724
33496W        W40096  21.427   4.655   8.925  0.2126  0.1536  0.2754
33497W        W40097  19.813   5.515  16.730  0.0426 -0.4804  0.0632
33498W        W40098  29.880   2.701   9.126  0.0132  0.0100  0.2465
33499W        W40099  25.827   4.331   9.957  0.0543  0.0387 -0.1959
33500W        W40100  14.028   1.406  16.819 -0.0689  0.1787 -0.0793
33501W        W40101  25.491   1.828  23.362 -0.0434 -0.0744  0.1023
33502W        W40102  20.083   4.980  25.218  0.0972  0.1356  0.0684
33503W        W40103   2.437   7.121  20.232 -0.0662  0.2793 -0.3096
33504W        W40104   7.031   3.059   3.226 -0.0164 -0.0135  0.1896
33505W        W40105   4.526   1.593  10.200 -0.0091  0.2859 -0.3251
33506W        W40106  28.530   6.177  10.733  0.0209  0.0256  0.0744
33507W        W40107   6.990   7.552   7.311 -0.1607 -0.0248 -0.1182
33508W        W40108   0.075   6.395  22.341 -0.1879  0.0992  0.0207
33509W        W40109  11.421   2.129  22.550 -0.1675 -0.1692 -0.1236
33510W        W40110   0.499   1.105  18.589  0.2601 -0.0026 -0.1949
33511W        W40111  27.725   7.698   2.221 -0.3049 -0.1279 -0.2804
33512W        W40112  28.259   5.795  17.093 -0.0149 -0.0799 -0.2201
33513W        W40113   7.372   6.013   0.177  0.1375  0.1585 -0.1642
33514W        W40114  11.864   6.668  24.642  0.0450  0.4146  0.0121
33515W        W40115  30.810   4.061  22.608 -0.0493 -0.0135  0.1454
33516W        W40116  10.207   2.842   3.948 -0.1000  0.3076  0.2350
33517W        W40117  28.372   4.070   6.974 -0.0809 -0.3035  0.1368
33518W        W40118  22.629   1.952  16.524 -0.3201  0.0779 -0.0513
33519W        W40119  11.477   2.750   9.980 -0.1222 -0.0826  0.1680
33520W        W40120  10.373   7.574  18.948 -0.0016  0.0314  0.1963
33521W        W40121  14.176   7.407  21.955 -0.0958 -0.1575  0.0629
33522W        W40122  23.915   1.286  16.653 -0.0579 -0.0594 -0.0634
33523W        W40123  29.409   3.226  23.445 -0.0541  0.1386 -0.1155
33524W        W40124  15.786   4.901   9.134 -0.1942  0.1233 -0.0721
33525W        W40125  31.306   4.962  20.758 -0.0556  0.2745 -0.0510
33526W        W40126  23.919   5.160   7.872  0.1996 -0.1414  0.0828
33527W        W40127  22.439   1.463   2.447 -0.1879  0.2837  0.2995
33528W        W40128   6.212   4.414   9.222 -0.3702  0.0404  0.0915
33529W        W40129  25.266   1.197   8.131 -0.1549 -0.1292  0.2280
33530W        W40130   3.649   5.068   3.210  0.0290 -0.2869  0.0489
33531W        W40131  13.914   2.961   5.286 -0.2504 -0.0671  0.0320
33532W        W40132   3.938   4.361  24.861  0.0276 -0.0722 -0.0309
33533W        W40133   1.775   1.308  21.462 -0.0172 -0.1323  0.0490
33534W        W40134   4.397   1.813   8.153 -0.0718  0.0511  0.0681
33535W        W40135  21.733   2.160   8.375  0.2134  0.2723 -0.1833
33536W        W40136  15.922   0.202  18.995  0.1650 -0.0889  0.0731
33537W        W40137   2.906   1.167   7.748  0.0994  0.0257 -0.0180
33538W        W40138  14.364   7.567  10.908 -0.1431  0.0012  0.1783
33539W        W40139  21.438   6.547   1.489  0.1572 -0.1419 -0.1038
33540W        W40140  18.897   5.246   3.440 -0.1621 -0.0501  0.0898
33541W        W40141  11.114   3.185   3.464  0.0614  0.2956 -0.1864
33542W        W40142  23.305   7.173  19.207 -0.1979  0.1414  0.3671
33543W        W40143  16.569   4.310  16.178 -0.3145 -0.0306 -0.2092
33544W        W40144  14.034   7.102  24.195  0.0570 -0.0961 -0.2050
33545W        W40145  14.665   4.032   3.418 -0.1814  0.2160  0.1210
33546W        W40146  22.213   4.877   1.491  0.1667 -0.2302  0.1570
33547W        W40147  21.968   6.958  24.028 -0.0284 -0.0262  0.0202
33548W        W40148  28.988   1.470   5.751  0.3216  0.0134 -0.1647
33549W        W40149   0.912   6.630  25.559 -0.0746  0.3286 -0.1318
33550W        W40150  24.252   7.311   1.908 -0.1322 -0.0820 -0.1114
33551W        W40151   6.128   6.145  19.774 -0.5507 -0.3013  0.0769
33552W        W40152   8.748   4.210   8.290  0.5139 -0.3120 -0.3737
33553W        W40153   1.267   1.845  15.618 -0.0788 -0.1102  0.0168
33554W        W40154  23.864   1.291   1.248  0.0108  0.0928 -0.1001
33555W        W40155  29.066   2.600  18.236  0.0899 -0.3075 -0.0550
33556W        W40156   0.590   5.711   1.310  0.4321 -0.1479 -0.3515
33557W        W40157  19.506   7.550  11.106 -0.1851  0.0544 -0.2151
33558W        W40158   2.459   0.049   3.293  0.1049  0.2153  0.1398
33559W        W40159  11.539   1.076  22.848 -0.0990 -0.0452  0.2794
33560W        W40160  20.889   1.211  22.587 -0.0556 -0.0109  0.0307
33561W        W40161  13.699   7.392  19.449 -0.1755  0.0839 -0.2569
33562W        W40162  28.473   4.073  20.793 -0.5546  0.0176 -0.0901
33563W        W40163  16.364   1.010  18.039 -0.0429 -0.0827 -0.1667
33564W        W40164  10.919   1.684  16.978 -0.0402  0.0832  0.2593
33565W        W40165   0.587   0.643  21.672  0.0854  0.2844 -0.0137
33566W        W40166  13.295   6.239  15.678  0.1396 -0.0471  0.2896
33567W        W40167  13.746   4.663  24.999 -0.3426  0.0406  0.1624
33568W        W40168   0.023   4.216   5.109  0.1468  0.0205  0.1447
33569W        W40169  17.175   7.346  16.642 -0.1509 -0.2109 -0.2604
33570W        W40170  20.944   0.183  16.417  0.0087  0.1454  0.2045
33571W        W40171  29.846   7.837  24.748 -0.1757  0.1613  0.1247
33572W        W40172  24.448   7.438   7.310  0.1356  0.2350 -0.0822
33573W        W40173  18.109   4.128   2.361 -0.2248 -0.1012  0.1447
33574W        W40174  17.710   1.998  15.654  0.0674 -0.1434 -0.1286
33575W        W40175  30.425   7.385  22.252  0.3053  0.0098  0.0734
33576W        W40176  23.741   6.883   7.727  0.0093 -0.0398 -0.1782
33577W        W40177  23.160   1.249   6.166  0.1061 -0.0208 -0.1742
33578W        W40178  21.276   3.928   5.158  0.1131 -0.0871  0.0290
33579W        W40179   5.037   5.931  25.405 -0.0187  0.0046  0.2423
33580W        W40180   3.320   0.408  25.301  0.0051  0.0899  0.0799
33581W        W40181   7.423   7.473  25.795 -0.0097 -0.6229  0.2216
33582W        W40182  21.925   3.686   8.539  0.0696 -0.1126 -0.1272
33583W        W40183  18.617   1.080   9.773  0.1226  0.0497  0.1968
33584W        W40184  28.143   6.830   7.838  0.0528 -0.0495 -0.2264
33585W        W40185  19.104   1.972  11.221  0.2560  0.2264  0.0347
33586W        W40186  29.503   7.030  15.805  0.1383  0.3059 -0.1109
33587W        W40187   1.224   0.346   6.591  0.0011 -0.2368 -0.0659
33588W        W40188  26.832   0.646   8.463 -0.1644 -0.1739  0.2171
33589W        W40189  22.784   5.288  18.088  0.2406 -0.1201  0.0994
33590W        W40190  30.596   2.253  22.534 -0.2995  0.0156  0.1301
33591W        W40191  15.144   1.096   8.789 -0.2733  0.0365  0.3243
33592W        W40192  10.115   7.707   1.537 -0.1194  0.1084 -0.0292
33593W        W40193  18.194   3.742   8.339  0.0732 -0.2235  0.1046
33594W        W40194   5.376   5.126  16.851  0.1735 -0.0807 -0.1513
33595W        W40195  18.846   5.143  23.853  0.3374 -0.1220 -0.2235
33596W        W40196  17.779   3.164  21.517  0.2338  0.1874  0.1478
33597W        W40197  16.909   4.717  11.073 -0.0051 -0.1368 -0.0856
33598W        W40198  30.103   2.381   8.292  0.4219 -0.2246 -0.0958
33599W        W40199  11.933   3.200   3.908  0.0612  0.0195  0.0692
33600W        W40200  19.307   6.494   7.021 -0.1990  0.1180  0.1578
33601W        W40201  10.244   5.920   8.709  0.0663  0.1143  0.1912
33602W        W40202  30.261   1.203  17.604 -0.1618  0.0949  0.1714
33603W        W40203   5.315   1.607   0.670  0.1713  0.1067  0.3087
33604W        W40204  10.777   6.022  24.180 -0.1956 -0.2736  0.0950
33605W        W40205  13.740   6.502  20.911 -0.2064  0.0293 -0.4645
33606W        W40206  15.029   1.819   6.068  0.2114  0.2611 -0.0959
33607W        W40207  26.643   6.233   8.440 -0.2431  0.0123  0.4014
33608W        W40208   4.470   6.897   0.992  0.3228  0.0588  0.0673
33609W        W40209   2.471   0.846   2.155 -0.2188  0.0479  0.0634
33610W        W40210   7.552   0.429  19.562  0.0183  0.1819  0.0376
33611W        W40211   5.733   1.489   3.585 -0.0808  0.2123  0.4319
33612W        W40212   2.086   6.558   8.573  0.1263  0.0478 -0.1329
33613W        W40213   9.869   3.587   8.012 -0.0623 -0.1154 -0.0445
33614W        W40214  10.618   2.330   6.545  0.2017 -0.0862  0.1700
33615W        W40215   2.211   5.491  18.172 -0.0009  0.1551  0.0681
33616W        W40216  19.377   6.809  22.348  0.3156 -0.1802 -0.1661
33617W        W40217  12.676   1.807  10.970 -0.1643 -0.2358  0.4180
33618W        W40218   8.041   0.693  23.046 -0.2218  0.1411  0.0132
33619W        W40219  19.910   2.388  21.948 -0.1005 -0.0903 -0.1147
33620W        W40220  16.185   2.682   7.930 -0.0163 -0.1453 -0.1595
33621W        W40221  26.149   1.233   7.411 -0.2768  0.1469 -0.2089
33622W        W40222   0.720   0.309   7.918 -0.1292  0.4244 -0.0932
33623W        W40223  30.383   1.392   3.368 -0.1347  0.0012 -0.2554
33624W        W40224   3.083   1.092  15.876 -0.6777  0.0321  0.2172
33625W        W40225  23.084   6.191  17.199  0.0679  0.0029  0.0340
33626W        W40226  22.385   5.485  17.353 -0.0020  0.1773  0.2398
33627W        W40227  24.924   5.758   5.488  0.2569  0.0303 -0.2082
33628W        W40228   0.861   5.698  16.796 -0.2330 -0.2607 -0.2744
33629W        W40229  11.889   7.589  21.644  0.0257  0.0519  0.0415
33630W        W40230  12.873   1.327  23.109  0.1320 -0.0379 -0.2059
33631W        W40231  26.442   0.522  23.570  0.2533 -0.0329  0.0564
33632W        W40232   6.528   0.080   4.812 -0.0532 -0.2819  0.0865
33633W        W40233   1.362   1.531  15.220 -0.0697  0.0033  0.2082
33634W        W40234   5.411   1.444  10.259 -0.1016 -0.0679 -0.1955
33635W        W40235   6.536   2.201   1.982 -0.1432 -0.1139  0.1260
33636W        W40236  18.227   5.297  20.171 -0.4177 -0.0823 -0.1405
33637W        W40237   2.942   7.657  23.869 -0.0419 -0.1654  0.0873
33638W        W40238   3.868   2.216  16.688 -0.2248  0.2540  0.0638
33639W        W40239  15.560   3.297  18.389 -0.3988 -0.0919 -0.0680
33640W        W40240  12.888   4.377   7.046 -0.1283 -0.4480 -0.0953
33641W        W40241  14.581   0.328   4.137 -0.2418  0.1054 -0.0509
33642W        W40242  10.878   6.629   8.510  0.1570  0.1954  0.3055
33643W        W40243  13.089   0.309  21.852 -0.0442 -0.1279 -0.0612
33644W        W40244  27.397   2.370  18.620  0.0751 -0.4716  0.0495
33645W        W40245   2.510   4.127  21.708  0.0742  0.0309 -0.1574
33646W        W40246  20.898   7.435   2.876  0.1199  0.0052  0.1227
33647W        W40247   0.660   6.277  20.664 -0.0399  0.2700 -0.0264
33648W        W40248  23.856   0.990  15.117 -0.1386 -0.1302  0.0625
33649W        W40249  20.911   5.936   5.068 -0.1526  0.1730  0.0942
33650W        W40250   2.451   5.482   4.847 -0.1727  0.0684 -0.3123
33651W        W40251  19.921   6.866  11.839 -0.0681 -0.0761 -0.1694
33652W        W40252  19.746   4.812   9.750  0.3831  0.1279  0.0260
33653W        W40253  10.215   4.515   8.351 -0.1055 -0.1070 -0.1694
33654W        W40254  18.368   1.305  17.712  0.2292 -0.0686  0.2298
33655W        W40255   6.172   1.600  24.657  0.1931 -0.0087 -0.0955
33656W        W40256   4.205   3.044  22.858  0.0253 -0.2038  0.0624
33657W        W40257   1.212   6.971  18.638 -0.0207 -0.1488  0.0964
33658W        W40258  25.603   4.782   4.024  0.1562  0.2888 -0.1541
33659W        W40259  28.197   0.096  10.269  0.0496 -0.0246  0.1443
33660W        W40260  13.333   2.775   9.404  0.0123 -0.0355  0.0329
33661W        W40261   2.851   7.538   0.272 -0.2667 -0.0093  0.2322
33662W        W40262  13.962   5.388  17.370  0.0524  0.0000  0.1689
33663W        W40263  16.743   4.951   1.794 -0.0559 -0.1091 -0.0086
33664W        W40264  13.351   3.588  11.070  0.1061 -0.2074  0.0164
33665W        W40265  30.403   3.819  25.476 -0.0862  0.0265  0.0417
33666W        W40266  27.614   3.044   1.378  0.0133 -0.0071  0.0498
33667W        W40267   9.113   7.198   7.823  0.1654  0.2022  0.4049
33668W        W40268  13.334   3.851  10.503 -0.0544 -0.0221  0.0446
33669W        W40269  19.633   1.497   9.039 -0.1531  0.1352  0.0480
33670W        W40270  20.315   2.381  25.940 -0.2844 -0.0797 -0.2545
33671W        W40271  10.503   4.180  19.508 -0.0526 -0.0179 -0.1105
33672W        W40272  28.057   4.552  17.045  0.0688  0.0484  0.3731
33673W        W40273  30.453   7.739  23.458 -0.1250 -0.1272  0.2550
33674W        W40274  22.714   4.139  25.564 -0.3384 -0.1663  0.3133
33675W        W40275  20.076   0.547  18.897 -0.0432  0.2264 -0.2334
33676W        W40276  20.732   0.155  10.993 -0.0589 -0.1200  0.1636
33677W        W40277  17.733   2.782  20.940 -0.0800 -0.4394  0.2698
33678W        W40278  22.360   1.880   8.394 -0.0015 -0.0998  0.2310
33679W        W40279  18.654   4.830  23.440  0.2533  0.0254  0.1444
33680W        W40280   6.902   4.882  21.485  0.0866 -0.1145 -0.0728
33681W        W40281  29.743   4.580   6.966  0.4755 -0.0333  0.2032
33682W        W40282   3.968   4.317   5.591  0.0776  0.1348 -0.0913
33683W        W40283  18.722   6.780   5.916 -0.0380  0.1237  0.0209
33684W        W40284  27.960   5.715   9.051 -0.0056  0.0707  0.2284
33685W        W40285  24.111   3.948  24.436  0.0976  0.1076  0.3560
33686W        W40286   1.259   0.779  18.578 -0.2136  0.0929 -0.1239
33687W        W40287  26.213   4.397  23.821  0.1001  0.0354 -0.1634
33688W        W40288  29.018   0.084  21.281 -0.1893  0.1170 -0.0936
33689W        W40289   8.155   0.187  15.205  0.4020  0.0317  0.2682
33690W        W40290  22.890   4.938  22.081 -0.0630  0.0973  0.0421
33691W        W40291  14.273   6.896   0.659  0.4119  0.0180  0.2937
33692W        W40292  14.103   2.343   8.958 -0.0237  0.2033 -0.1647
33693W        W40293   7.750   0.177   0.614  0.0406  0.1641  0.2091
33694W        W40294   4.380   1.680   6.817 -0.1036 -0.1192  0.0635
33695W        W40295  26.946   4.048  17.120  0.1425  0.1522 -0.1234
33696W        W40296  19.075   4.235  10.026 -0.2598  0.5922 -0.3630
33697W        W40297  21.943   2.033   1.215 -0.2109  0.1016  0.1481
33698W        W40298  18.333   5.405   4.703  0.2069 -0.1571  0.0916
33699W        W40299  23.127   3.907  19.812  0.0177 -0.1810  0.0058
33700W        W40300  23.906   4.451   4.981 -0.0759  0.0223 -0.3324
33701W        W40301  13.790   5.015   1.734  0.1951  0.0527 -0.2290
33702W        W40302   8.825   6.485  16.157  0.0430  0.0017  0.2742
33703W        W40303   7.568   3.547   0.833  0.1220 -0.2392 -0.1471
33704W        W40304   0.752   0.805   3.186 -0.0183  0.0758 -0.2365
33705W        W40305  23.979   5.418   8.859 -0.0570 -0.2968 -0.0128
33706W        W40306   9.022   0.697  16.504  0.0840  0.1177 -0.1917
33707W        W40307  24.775   7.510   2.579  0.3613  0.0079 -0.1203
33708W        W40308  29.603   2.251   5.022 -0.2059  0.1701  0.0994
33709W        W40309   6.790   3.215  21.200 -0.0677 -0.1856  0.3850
33710W        W40310  28.286   5.867   3.049 -0.1644  0.1163 -0.1075
33711W        W40311   6.889   6.189  22.138 -0.0557 -0.0976 -0.2383
33712W        W40312   3.855   7.569  17.415 -0.0080  0.0114  0.1548
33713W        W40313   4.331   3.727  18.441 -0.2973  0.3000  0.0229
33714W        W40314  14.803   0.304  26.068  0.2259  0.0540 -0.1697
33715W        W40315  17.544   5.297   8.384  0.2486 -0.0090  0.2363
33716W        W40316   6.529   4.018  24.030 -0.0744  0.1791  0.0022
33717W        W40317  24.757   7.032   6.712  0.1969 -0.1408  0.0127
33718W        W40318  10.021   2.815   8.210 -0.0282 -0.1230 -0.1861
33719W        W40319   6.057   6.746  24.133 -0.1028 -0.0592 -0.0388
33720W        W40320   7.779   5.376   4.269 -0.1078 -0.0933 -0.2226
33721W        W40321  14.955   1.891   0.851  0.0710  0.1525 -0.0576
33722W        W40322  14.879   6.952   7.485 -0.3267  0.0875  0.0799
33723W        W40323   4.932   2.968   3.908 -0.1577 -0.1343 -0.3145
33724W        W40324  17.810   6.354   6.857 -0.1747 -0.1221  0.0724
33725W        W40325   4.615   5.390  18.888  0.1127  0.2122  0.0338
33726W        W40326   5.398   6.232   6.795 -0.1681 -0.1912  0.1519
33727W        W40327  15.634   5.761   5.591 -0.1410 -0.0696 -0.2154
33728W        W40328   4.010   3.794   5.450 -0.1484  0.0239  0.3171
33729W        W40329  19.913   3.500  19.156 -0.1372  0.1812 -0.1294
33730W        W40330   2.000   1.527  21.058 -0.1594 -0.1181  0.0717
33731W        W40331   4.433   4.085   2.846  0.2095  0.0666 -0.0246
33732W        W40332  13.666   0.506  15.320 -0.0924 -0.1684  0.1367
33733W        W40333  28.929   5.572   8.813  0.1473  0.1042 -0.1395
33734W        W40334   3.574   5.501   5.498  0.1516  0.1135 -0.0619
33735W        W40335   7.360   7.598  22.502 -0.2756  0.0469 -0.0315
33736W        W40336  20.128   7.201  18.264  0.1705  0.0962  0.0565
33737W        W40337  29.415   5.197  21.531  0.1497 -0.0288 -0.1091
33738W        W40338  23.712   0.082   6.227  0.0424 -0.0142 -0.3600
33739W        W40339  19.266   4.379   3.554  0.2120  0.1502 -0.0825
33740W        W40340  28.327   6.247   1.814 -0.0112  0.1162  0.0090
33741W        W40341  28.957   0.801  25.400  0.1254 -0.0082 -0.4162
33742W        W40342  29.675   7.652   4.804  0.1311 -0.0563 -0.0554
33743W        W40343   3.429   6.814  24.699  0.2217  0.0300  0.0516
33744W        W40344  14.587   3.814  22.792  0.2929 -0.4130  0.2450
33745W        W40345   9.630   7.668  21.703  0.0176 -0.1283  0.1904
33746W        W40346   2.621   4.520  16.206 -0.1528 -0.1059  0.2361
33747W        W40347  10.735   5.283  23.670  0.0217  0.0974 -0.3113
33748W        W40348  18.303   5.334  18.862 -0.2009  0.1073  0.2517
33749W        W40349  29.246   5.433  21.098 -0.0068 -0.4177 -0.0944
33750W        W40350  18.842   2.435  22.914  0.1168 -0.1209  0.2649
33751W        W40351   8.586   5.503   8.502  0.1342 -0.3355  0.2361
33752W        W40352  27.195   4.543   4.373  0.1610  0.2137  0.2094
33753W        W40353  15.125   3.548   5.007  0.0566 -0.1020  0.2875
33754W        W40354   4.383   3.650   8.226 -0.0256 -0.0126 -0.0015
33755W        W40355   5.632   0.104  21.431  0.2157 -0.0541  0.1235
33756W        W40356  12.335   1.166  17.757  0.0161 -0.1829 -0.1685
33757W        W40357  20.488   7.049   3.619  0.0142 -0.1685  0.2633
33758W        W40358   8.422   1.578   8.281 -0.0853  0.0342 -0.3112
33759W        W40359  17.383   1.067   3.655 -0.1664  0.0858  0.0073
33760W        W40360  16.881   2.104  18.501  0.0776  0.0656  0.0427
33761W        W40361   0.071   0.733  17.971  0.1454 -0.2145  0.2728
33762W        W40362  27.338   6.846  16.442  0.1715 -0.0209 -0.2892
33763W        W40363   6.477   6.757  23.904  0.0234 -0.1862 -0.0925
33764W        W40364   7.219   3.875   1.552 -0.0198  0.0612 -0.1224
33765W        W40365  11.425   2.660   0.916 -0.1314 -0.0739 -0.4509
33766W        W40366   7.310   0.753  25.945 -0.1891  0.1310  0.0484
33767W        W40367   8.559   5.537   0.846 -0.2856  0.0308 -0.1677
33768W        W40368  26.501   3.312  17.276 -0.0448 -0.1524 -0.1037
33769W        W40369   0.052   0.655   1.437  0.0637  0.1367  0.1170
33770W        W40370  24.874   4.028   5.963 -0.0942 -0.0397 -0.0719
33771W        W40371  14.522   6.107   5.786  0.1451  0.1039 -0.1612
33772W        W40372   4.176   0.556  17.685 -0.0920 -0.0174  0.1634
33773W        W40373  29.308   4.883   0.111  0.0704 -0.0209  0.1383
33774W        W40374  14.638   0.228   1.600 -0.2024  0.2620 -0.0349
33775W        W40375   4.888   4.244   3.005  0.2186  0.1668 -0.1667
33776W        W40376  10.927   3.364   2.310 -0.3133 -0.3049  0.1530
33777W        W40377  24.891   4.060  10.571 -0.1030  0.0055 -0.3395
33778W        W40378  23.292   1.449  25.896 -0.0611  0.4018  0.0270
33779W        W40379   5.571   2.234  17.825 -0.0578 -0.1518  0.1132
33780W        W40380   2.998   5.895   4.735 -0.2129  0.0928  0.0650
33781W        W40381  28.800   0.440   1.896 -0.2065  0.0974 -0.2012
33782W        W40382  26.069   6.214  24.840  0.2233 -0.3125  0.2567
33783W        W40383  30.288   1.899   5.710 -0.2401 -0.2776 -0.0495
33784W        W40384  26.579   5.609   0.501 -0.1162 -0.2230 -0.1301
33785W        W40385  13.642   3.588  25.159 -0.1340  0.1545  0.2254
33786W        W40386  11.822   0.733  21.715  0.4184  0.3897 -0.0296
33787W        W40387   0.417   2.694   8.503 -0.1548 -0.1051 -0.1367
33788W        W40388   0.002   4.016  25.422  0.1006 -0.1370  0.0454
33789W        W40389  22.275   0.801   4.040 -0.1007  0.1243  0.3878
33790W        W40390  12.110   2.824   2.754 -0.1841  0.0856  0.0250
33791W        W40391  18.685   3.020   0.229 -0.2451  0.1266 -0.3499
33792W        W40392  15.144   1.903   4.756  0.0683  0.0980  0.2083
33793W        W40393  27.839   3.539  20.821 -0.1655 -0.1339  0.3162
33794W        W40394  15.550   3.424  24.071  0.0603  0.0772 -0.0511
33795W        W40395  12.550   4.979  20.916  0.2671 -0.0356 -0.1152
33796W        W40396  30.795   1.650   0.507  0.2114  0.0865  0.2057
33797W        W40397  22.321   7.049  24.403 -0.1240 -0.1663  0.3923
33798W        W40398  20.681   2.555  18.618  0.1847  0.2291  0.0488
33799W        W40399   6.765   7.203   0.477 -0.0562  0.0661  0.0021
33800W        W40400  27.050   0.113   1.089  0.1428  0.0077  0.0382
33801W        W40401  22.704   6.390  10.571  0.1908  0.0229  0.0673
33802W        W40402  28.084   6.235  20.356 -0.1671  0.1547  0.1644
33803W        W40403  14.899   5.009  24.565  0.1406  0.0131  0.1505
33804W        W40404  12.119   3.001  19.902  0.1637  0.1255  0.0514
33805W        W40405   8.452   6.391   6.893 -0.0582  0.0762  0.3128
33806W        W40406  23.073   0.061  23.662 -0.1477 -0.3872 -0.2306
33807W        W40407  18.188   3.596   5.498  0.0130 -0.0382 -0.0740
33808W        W40408  23.410   7.729  15.853  0.0392  0.2947  0.0426
33809W        W40409   1.860   6.913   1.769  0.1749 -0.1087 -0.0153
33810W        W40410   2.480   2.295  25.103  0.0173 -0.0546  0.0169
33811W        W40411   5.203   7.148  15.082 -0.1264 -0.0846  0.1122
33812W        W40412  25.729   6.129  21.800 -0.2908 -0.0392  0.0806
33813W        W40413   6.383   4.603   1.421 -0.2205 -0.3830  0.0464
33814W        W40414  23.643   3.602   5.338  0.0180 -0.3462  0.2477
33815W        W40415  31.131   2.891   1.134  0.0531 -0.1840 -0.2853
33816W        W40416  24.547   3.394  16.306  0.0677 -0.2732 -0.1411
33817W        W40417  20.439   6.945  19.939  0.1379  0.1004 -0.0900
33818W        W40418   5.927   1.643   1.747  0.0172  0.0775 -0.1947
33819W        W40419   4.528   2.713   2.505 -0.1270 -0.2252  0.0290
33820W        W40420  13.563   1.776   0.628 -0.0353  0.4511 -0.0448
33821W        W40421  14.391   0.061   7.264 -0.1087 -0.0847  0.0703
33822W        W40422  10.390   2.936   4.444  0.0259 -0.1567 -0.0630
33823W        W40423  24.612   3.785   6.374 -0.1419 -0.1982  0.0795
33824W        W40424   5.204   6.634   3.792  0.3097 -0.2374  0.1441
33825W        W40425  25.797   0.406   2.270  0.1314 -0.0683 -0.2044
33826W        W40426  19.978   0.008  16.008 -0.0762  0.0012 -0.0409
33827W        W40427  12.636   4.685   4.865 -0.2023  0.1815  0.0210
33828W        W40428   8.353   0.988   1.920  0.3260 -0.1381  0.0922
33829W        W40429   3.051   6.343  16.936  0.0623 -0.3317  0.0351
33830W        W40430  20.414   3.569  22.271 -0.2436 -0.2164 -0.1245
33831W        W40431   3.991   3.772   2.448  0.0462  0.1456  0.1766
33832W        W40432  27.518   2.349  21.874  0.0083  0.1905  0.0126
33833W        W40433  29.106   4.134   1.473  0.1048  0.0441  0.2083
33834W        W40434  26.571   7.334  23.377  0.0046  0.0261  0.1752
33835W        W40435  17.951   0.145   4.457 -0.1660 -0.3300 -0.2159
33836W        W40436  23.317   7.296   0.839 -0.2271 -0.0649 -0.1281
33837W        W40437  12.513   1.513  18.125  0.0179  0.0056  0.0401
33838W        W40438  13.274   6.062  22.357  0.0560 -0.3080  0.2721
33839W        W40439  15.275   5.749  22.200 -0.4715 -0.1236 -0.0525
33840W        W40440  15.969   4.249   0.093 -0.1049  0.3588  0.0219
33841W        W40441  25.007   2.808   8.195  0.0034 -0.0526 -0.1492
33842W        W40442  28.708   1.624  19.846 -0.1459  0.1458  0.1435
33843W        W40443  10.702   3.601  10.488  0.2992 -0.0115  0.1562
33844W        W40444   4.590   0.236   5.824 -0.0969  0.0380 -0.0271
33845W        W40445   0.813   4.124  18.055  0.0083  0.0449  0.0420
33846W        W40446  20.308   6.337  20.076 -0.1548  0.0648  0.0433
33847W        W40447   2.733   2.927  22.499 -0.3334  0.0386  0.0921
33848W        W40448  28.640   3.884   2.343 -0.2599 -0.1405  0.0240
33849W        W40449  24.265   6.244  25.040  0.2755 -0.1189  0.2300
33850W        W40450  22.157   4.214  18.452 -0.0299 -0.0502  0.1350
33851W        W40451  20.735   1.190  21.991 -0.3262  0.0643  0.1598
33852W        W40452  18.013   4.371  25.012  0.1805  0.0933 -0.1595
33853W        W40453  15.342   0.581  10.615 -0.0624  0.0221 -0.0555
33854W        W40454   9.611   2.979   5.843  0.0728 -0.1668 -0.3262
33855W        W40455   5.876   7.662  23.834 -0.0370 -0.0104  0.1216
33856W        W40456  23.275   4.022   4.071 -0.1940 -0.2526  0.0551
33857W        W40457  15.162   6.137   3.643  0.1587 -0.0872  0.0896
33858W        W40458   1.078   3.461   3.814  0.2129  0.0635 -0.1961
33859W        W40459  14.932   4.473   2.018 -0.0189  0.0220 -0.0520
33860W        W40460  22.697   2.724   2.844 -0.0855  0.0098  0.2491
33861W        W40461  15.180   7.116  10.065  0.0836  0.0587  0.0892
33862W        W40462  18.387   5.157   2.307 -0.0395  0.3605  0.2149
33863W        W40463  20.610   1.167   8.012 -0.0377  0.1336 -0.0608
33864W        W40464  11.438   4.884   9.631 -0.2375 -0.1133  0.1092
33865W        W40465  11.407   7.416  21.493 -0.0381  0.0017 -0.1634
33866W        W40466  26.382   2.278   5.043  0.1124 -0.1020 -0.0420
33867W        W40467  21.698   5.108   1.531  0.4262  0.0492  0.0587
33868W        W40468  26.640   5.411  22.715 -0.0598  0.2462  0.2645
33869W        W40469   1.892   5.205  17.762  0.1103 -0.0668  0.2099
33870W        W40470  14.684   3.236  22.889 -0.0418  0.1031 -0.0184
33871W        W40471  24.519   5.944  19.519 -0.0281  0.2494 -0.1633
33872W        W40472  16.163   5.581  18.079 -0.0509 -0.0050  0.0730
33873W        W40473   9.434   4.361   5.780 -0.1847 -0.0321 -0.1244
33874W        W40474  29.461   1.910  20.212 -0.0014  0.1091  0.0351
33875W        W40475  16.468   3.016   5.992 -0.0233 -0.0945 -0.2899
33876W        W40476  30.803   7.799  24.416 -0.0309 -0.2769  0.0076
33877W        W40477  14.810   7.633  22.832  0.1729  0.2715 -0.1770
33878W        W40478  31.300   2.486  23.534 -0.1919  0.1003 -0.1682
33879W        W40479   5.824   4.758   1.525  0.2001  0.0351 -0.3591
33880W        W40480  23.055   4.912  25.974 -0.2444 -0.0837  0.2275
33881W        W40481  11.713   5.944   5.787  0.1100  0.1645  0.2111
33882W        W40482  21.982   0.463   4.389 -0.0529 -0.0465 -0.1494
33883W        W40483  21.977   1.716  25.895 -0.2587  0.1841 -0.0368
33884W        W40484   5.426   7.006   3.510  0.2183  0.1859 -0.2975
33885W        W40485   4.816   1.666   0.488  0.0288 -0.1669 -0.2363
33886W        W40486   9.269   0.349   3.590  0.2816 -0.1689  0.0084
33887W        W40487  25.716   0.502  25.471  0.1380 -0.1625  0.0855
33888W        W40488  24.209   0.980  25.313  0.1167  0.0112 -0.0424
33889W        W40489  28.478   2.643   0.492 -0.1757 -0.0748 -0.0591
33890W        W40490  20.531   1.295   0.292 -0.2200 -0.1312  0.0349
33891W        W40491  13.122   7.724  21.071  0.3258 -0.1573  0.0158
33892W        W40492  29.331   6.972   3.824  0.0856  0.0585  0.1041
33893W        W40493  29.908   1.188   9.153 -0.2427  0.2086 -0.2373
33894W        W40494  10.795   5.837  16.009  0.1210 -0.0865 -0.2212
33895W        W40495  10.393   4.699  18.666 -0.2559  0.2414 -0.0637
33896W        W40496  13.457   3.995   8.764  0.1190  0.2859 -0.1666
33897W        W40497  13.854   7.520   5.493 -0.1015 -0.0413 -0.0777
33898W        W40498  26.653   3.323   4.693 -0.0782  0.3843  0.1966
33899W        W40499   4.442   6.805   2.381  0.0001  0.3257  0.0174
33900W        W40500  18.805   3.864  10.275  0.2046 -0.1693 -0.1585
33901W        W40501   1.939   0.199   7.277 -0.0716 -0.2041 -0.0131
33902W        W40502  31.027   0.448   0.316  0.0870 -0.1112 -0.2529
33903W        W40503  21.422   5.633   2.071  0.0849  0.1302  0.0145
33904W        W40504  22.133   4.083   3.866 -0.1302  0.0263  0.0199
33905W        W40505  30.660   5.543   2.791  0.5703 -0.0760 -0.0104
33906W        W40506  16.654   7.565  24.385  0.0317  0.1326 -0.1820
33907W        W40507  20.313   1.294  20.624  0.0352  0.0331 -0.3465
33908W        W40508  10.404   0.787  22.890 -0.1374 -0.1708 -0.2057
33909W        W40509  27.229   0.056  10.120  0.1543 -0.0700 -0.0713
33910W        W40510  24.491   4.469  23.685  0.0275 -0.0618 -0.3365
33911W        W40511  19.577   7.424  23.785 -0.0196 -0.1305 -0.1182
33912W        W40512  29.955   6.334   7.147  0.0226  0.0892  0.0909
33913W        W40513  28.371   7.845  22.840  0.0560  0.0443  0.0029
33914W        W40514  26.329   6.279   3.557 -0.0311 -0.3074  0.1563
33915W        W40515  24.728   5.183  17.140 -0.1219 -0.1854  0.1540
33916W        W40516  14.079   7.449  18.517  0.2468 -0.0425  0.3083
33917W        W40517   5.630   4.484  23.457 -0.2105  0.1324 -0.0405
33918W        W40518  11.310   0.258  15.749  0.0185 -0.1124 -0.2465
33919W        W40519  15.764   5.731  19.814  0.0956 -0.0969  0.0482
33920W        W40520  25.220   0.914  22.153 -0.1443 -0.0524 -0.0456
33921W        W40521  24.123   1.411   3.194  0.0893  0.1444  0.1842
33922W        W40522   7.790   6.213  17.041 -0.1045 -0.5845  0.1388
33923W        W40523   9.097   7.168   9.566 -0.0385  0.0866 -0.1392
33924W        W40524  18.614   0.431   0.075  0.2609 -0.0486  0.5452
33925W        W40525  17.218   2.331  18.810 -0.0836 -0.1610 -0.3119
33926W        W40526  23.974   1.896  10.643  0.0143  0.3204 -0.1085
33927W        W40527  30.069   3.977  24.782 -0.1709  0.2127  0.0857
33928W        W40528   9.958   1.118   1.503  0.0105  0.1416 -0.1235
33929W        W40529   3.052   2.808   8.519  0.0625 -0.0651  0.0109
33930W        W40530   9.631   7.343   9.657  0.2150  0.1799 -0.3370
33931W        W40531  30.766   6.586  20.869  0.1320 -0.1538  0.0186
33932W        W40532  14.962   6.622  16.291 -0.2232  0.2579  0.2026
33933W        W40533   8.996   4.050   2.037 -0.1542 -0.1667 -0.4003
33934W        W40534  17.671   7.689   8.790  0.2376  0.3332  0.2403
33935W        W40535  30.485   0.507  15.408  0.2445  0.1566 -0.2483
33936W        W40536  26.631   4.237  16.366 -0.1195  0.2703 -0.0250
33937W        W40537  13.572   3.533  16.352 -0.0679 -0.0626  0.2644
33938W        W40538   1.907   6.421   2.115 -0.2008  0.1792 -0.0622
33939W        W40539  20.047   0.570  16.377 -0.0436  0.1568  0.1242
33940W        W40540  26.351   4.129   7.233 -0.1830  0.0206 -0.0175
33941W        W40541   9.910   3.956   9.027  0.1742 -0.0508 -0.0433
33942W        W40542  18.764   0.536  18.907  0.0017 -0.1114 -0.1691
33943W        W40543   1.078   7.605   0.255  0.0092  0.2583 -0.2336
33944W        W40544  28.052   7.765   6.219 -0.0039  0.2364  0.1177
33945W        W40545   9.027   3.612  24.307 -0.3149  0.2627  0.1106
33946W        W40546  10.122   7.230  10.659  0.1075 -0.4212 -0.3127
33947W        W40547  22.036   7.373  22.658  0.2302  0.0626  0.0700
33948W        W40548   4.831   0.473   6.239 -0.0402 -0.0238  0.3522
33949W        W40549   1.764   3.586   4.516 -0.0052 -0.0401  0.1814
33950W        W40550  24.082   4.192  15.898 -0.0194 -0.2739 -0.1199
33951W        W40551  28.497   6.236  15.286 -0.0836  0.1988  0.1910
33952W        W40552  11.304   2.312  10.358  0.0196 -0.0153  0.0860
33953W        W40553   0.393   6.725  18.262 -0.1103 -0.3831  0.0402
33954W        W40554  12.962   3.122  16.657  0.1977 -0.2571  0.1395
33955W        W40555   5.932   1.405   6.055 -0.2062  0.0001  0.1804
33956W        W40556  15.013   5.996   6.282  0.2034  0.0310  0.1164
33957W        W40557  22.376   5.350  19.103  0.1669  0.1282  0.0337
33958W        W40558   1.453   6.681   6.830  0.2516 -0.2782  0.0656
33959W        W40559  12.736   7.779  23.146  0.0461 -0.0565 -0.2839
33960W        W40560  28.022   7.219  18.147 -0.0437  0.0241 -0.0024
33961W        W40561   1.754   7.453  25.856 -0.0157 -0.0861  0.2499
33962W        W40562  15.256   3.604  20.434 -0.1967  0.0544  0.1731
33963W        W40563  16.415   0.721  18.686 -0.0803 -0.0168  0.0449
33964W        W40564   6.629   2.464   3.217  0.0510 -0.1286 -0.1430
33965W        W40565  12.128   1.983   4.029 -0.2387  0.1115  0.1412
33966W        W40566   1.757   2.734  19.280  0.0991 -0.2226 -0.0492
33967W        W40567  22.964   6.522  16.000 -0.2014  0.0585  0.2523
33968W        W40568   7.363   2.029   3.171 -0.0809  0.1168  0.1628
33969W        W40569  15.394   5.290  22.901  0.2204  0.1094  0.2107
33970W        W40570  22.193   6.831  16.693 -0.0368 -0.0178  0.0838
33971W        W40571   6.003   6.642  25.003  0.3474  0.0831 -0.0645
33972W        W40572  20.949   1.967  20.863  0.2122 -0.0199  0.2339
33973W        W40573   7.398   7.630  15.938 -0.0249  0.3206  0.2009
33974W        W40574  22.599   0.440   2.432 -0.1686  0.3730  0.0208
33975W        W40575  18.055   5.885   5.305 -0.0551 -0.3090  0.0205
33976W        W40576  17.836   1.966  25.118  0.2722  0.0469  0.2943
33977W        W40577   3.447   6.411  25.981  0.1610 -0.4254 -0.2666
33978W        W40578  29.842   3.476   2.599  0.0402  0.0347  0.2391
33979W        W40579   9.458   1.856   4.791  0.0710 -0.0388 -0.0054
33980W        W40580  28.267   6.658   2.500 -0.2767 -0.1347 -0.0558
33981W        W40581  11.874   3.586   1.423 -0.1566  0.1439  0.0936
33982W        W40582  18.318   4.675   8.361  0.0364  0.2692 -0.1081
33983W        W40583  19.228   0.065   4.686 -0.0806  0.1631 -0.0386
33984W        W40584   3.345   0.114  23.867  0.3190  0.2221  0.0366
33985W        W40585  30.085   7.142   3.257  0.0052 -0.1542  0.2758
33986W        W40586  26.298   1.585  21.753  0.1030  0.1596  0.0100
33987W        W40587  31.217   1.874   9.061 -0.0797  0.2359 -0.1618
33988W        W40588  15.733   1.258  24.076  0.1111  0.2250  0.1702
33989W        W40589  13.066   4.575  17.366 -0.0103 -0.0559 -0.4196
33990W        W40590   6.558   6.891  24.446 -0.0954  0.1716  0.1199
33991W        W40591   0.233   0.868   9.347  0.0390 -0.1244 -0.0106
33992W        W40592   7.908   6.345   4.286  0.5453  0.2549  0.0529
33993W        W40593  28.910   7.698  17.373  0.1892  0.2715 -0.1365
33994W        W40594   8.764   3.931   2.442 -0.1493 -0.0416 -0.1683
33995W        W40595   7.946   1.353  24.037 -0.0178 -0.0543 -0.1080
33996W        W40596  14.039   2.187   1.319 -0.2053  0.1048  0.1757
33997W        W40597  21.110   6.919   2.322 -0.2144 -0.2141  0.1026
33998W        W40598   6.707   1.140  17.440 -0.0768  0.0116 -0.1299
33999W        W40599  28.873   5.262  21.481  0.0374  0.0199 -0.3041
34000W        W40600  10.106   7.648  19.934 -0.1556  0.3990 -0.1451
34001W        W40601  16.306   6.171   5.205  0.0981  0.2814  0.0365
34002W        W40602  27.677   4.431  10.590 -0.2059  0.0486 -0.2035
34003W        W40603  19.378   4.857  17.251 -0.1136  0.1345  0.0162
34004W        W40604  26.343   7.217   1.715  0.4040 -0.1951 -0.2250
34005W        W40605   4.595   2.951  22.519 -0.1205  0.0015 -0.0064
34006W        W40606  14.468   2.838  21.547 -0.0891  0.1556 -0.2390
34007W        W40607   7.420   5.485  25.780 -0.2820 -0.4939 -0.1620
34008W        W40608   8.299   7.584  11.057 -0.4901  0.0526  0.0451
34009W        W40609  26.968   2.271   7.221 -0.1646  0.0700  0.0792
34010W        W40610  24.485   5.398   4.711  0.1310 -0.0720 -0.0986
34011W        W40611  14.707   1.825  25.295 -0.0719  0.1193  0.1821
34012W        W40612  21.926   3.274  21.962  0.2197  0.0083 -0.0331
34013W        W40613  27.523   6.628   2.529 -0.0627 -0.0075 -0.3485
34014W        W40614   8.735   0.560   5.342 -0.2020  0.4193 -0.0426
34015W        W40615  26.868   6.812  22.455  0.2879  0.2143 -0.1748
34016W        W40616   6.118   7.167  23.803 -0.0440  0.1589  0.0516
34017W        W40617  22.114   5.524   9.528 -0.1275 -0.2278  0.1166
34018W        W40618   2.591   0.124  16.744  0.1374  0.0469  0.0759
34019W        W40619  11.847   5.852  17.870 -0.3133  0.2349 -0.1274
34020W        W40620   5.084   1.398   5.241 -0.1996  0.1923  0.1117
34021W        W40621  20.852   1.654  15.593  0.1896  0.0519 -0.2497
34022W        W40622  16.888   1.336  24.450  0.4185 -0.2236 -0.1361
34023W        W40623  28.753   6.127  20.849 -0.3112  0.2397  0.0865
34024W        W40624   7.363   7.764  19.709 -0.1036  0.0323 -0.1962
34025W        W40625   1.241   0.951  23.462  0.0059  0.0586  0.0085
34026W        W40626  27.597   2.144  19.890  0.1638 -0.0639  0.1955
34027W        W40627  14.577   3.438   8.145 -0.1432  0.0993 -0.0700
34028W        W40628   2.772   0.145   1.597 -0.2563 -0.1780 -0.2828
34029W        W40629   2.702   7.749  16.200  0.1940 -0.0165 -0.3584
34030W        W40630  30.831   7.056   4.624  0.0423 -0.0305  0.1479
34031W        W40631  25.042   5.301  10.762 -0.2691  0.1366 -0.1014
34032W        W40632   0.765   6.149   0.429 -0.1516 -0.3296  0.0788
34033W        W40633  22.021   5.278  23.622 -0.1047  0.3323  0.1877
34034W        W40634   6.093   6.129  15.402  0.0076  0.3828 -0.1327
34035W        W40635  31.274   6.340   7.981 -0.2677  0.3184  0.1006
34036W        W40636  28.623   5.765  15.440  0.0267 -0.3132  0.0528
34037W        W40637  28.999   6.211  25.000 -0.3187  0.1074 -0.2475
34038W        W40638  12.733   3.486   8.684  0.2752 -0.0542  0.2572
34039W        W40639  15.397   0.704  20.046  0.1979  0.2648 -0.0830
34040W        W40640  19.064   4.374   0.388 -0.1660  0.0957  0.2612
34041W        W40641  22.422   0.269   1.421  0.1062  0.0609  0.1903
34042W        W40642  14.079   1.132   7.800  0.2255 -0.0248  0.0284
34043W        W40643  16.569   6.310  15.540  0.0376 -0.1429 -0.0105
34044W        W40644   5.799   0.770  21.573 -0.3181 -0.0088  0.2334
34045W        W40645  13.122   3.806  15.788  0.0747 -0.0019  0.1580
34046W        W40646  23.523   5.448   8.771 -0.1406 -0.3223 -0.0336
34047W        W40647  30.648   4.601   5.343  0.1086 -0.4869 -0.1502
34048W        W40648  16.035   1.061   5.213 -0.1179 -0.0593 -0.2184
34049W        W40649  17.255   7.142  22.122 -0.0318  0.2170  0.3164
34050W        W40650   9.557   6.993   5.060 -0.3059 -0.0096 -0.0894
34051W        W40651   5.002   7.115  24.721  0.2329  0.1101  0.3143
34052W        W40652  10.433   4.370  23.857  0.1910  0.1674 -0.0063
34053W        W40653  17.054   5.316  24.076  0.2414  0.1902  0.1940
34054W        W40654  22.906   6.611   6.296 -0.1390  0.0338 -0.0935
34055W        W40655   6.930   3.574   3.177 -0.2640  0.1912 -0.0645
34056W        W40656   6.292   5.722  16.611 -0.3665 -0.0812 -0.0459
34057W        W40657   3.225   7.731   1.114  0.2724 -0.1101 -0.0697
34058W        W40658   8.300   1.874  23.797 -0.2583 -0.2875 -0.0482
34059W        W40659  24.495   7.400   0.202 -0.0898 -0.2089 -0.0467
34060W        W40660  13.793   3.998   0.343 -0.1063 -0.2791 -0.3075
34061W        W40661  14.088   6.878  25.601  0.0541 -0.1205 -0.0826
34062W        W40662   5.998   4.160   1.790  0.2236  0.2297  0.1086
34063W        W40663  20.277   0.735   8.151 -0.1439 -0.0256 -0.1091
34064W        W40664  23.466   2.903  17.407 -0.1250  0.0837  0.0233
34065W        W40665  26.334   0.710   5.573  0.3640  0.1553  0.3216
34066W        W40666  21.974   6.222   8.976 -0.3500 -0.1386  0.0070
34067W        W40667  19.844   5.582  17.270 -0.1734  0.0452 -0.0210
34068W        W40668  28.592   0.607  23.847  0.1732  0.2876 -0.0584
34069W        W40669  24.846   6.597   3.014  0.0950  0.0101 -0.1402
34070W        W40670  20.476   1.155  18.308 -0.2044  0.1505  0.2722
34071W        W40671   4.099   0.929   8.001  0.1385 -0.1263 -0.1712
34072W        W40672  21.198   3.372  19.539 -0.1567  0.2260  0.1159
34073W        W40673  27.780   5.317   7.308 -0.0372  0.3001 -0.3058
34074W        W40674   5.892   1.676   2.274 -0.0514 -0.0085 -0.1060
34075W        W40675   1.425   4.080  25.392 -0.0124 -0.0397  0.0316
34076W        W40676   7.636   6.755  22.162 -0.2362  0.1778  0.0689
34077W        W40677   4.842   2.545   2.119  0.2160  0.2058  0.1615
34078W        W40678  23.527   6.976  15.647  0.0642 -0.0636  0.2354
34079W        W40679  18.198   6.423  17.010  0.0273 -0.0100  0.2807
34080W        W40680  28.734   7.410  15.385  0.0424 -0.1825  0.2684
34081W        W40681  12.040   4.871  25.551 -0.1074 -0.0872 -0.1156
34082W        W40682  21.214   5.620   6.530 -0.0409  0.0428 -0.1346
34083W        W40683  28.741   2.883  20.311  0.1858 -0.3567 -0.1040
34084W        W40684   7.044   1.456   7.933 -0.1899 -0.1827 -0.1083
34085W        W40685  31.415   7.358  25.122 -0.0206 -0.1838 -0.0646
34086W        W40686  13.283   6.841   7.429 -0.1783  0.0962  0.0462
34087W        W40687  28.261   0.738  20.518  0.1843 -0.3308 -0.0103
34088W        W40688   5.157   6.420  20.207 -0.0543  0.1419  0.0451
34089W        W40689  21.559   2.051  21.597 -0.0091 -0.0929  0.2650
34090W        W40690  28.370   3.684   9.340 -0.0228 -0.0340  0.0391
34091W        W40691  12.992   6.710   6.548 -0.1540 -0.1175 -0.0513
34092W        W40692  12.403   6.166   4.669 -0.1267  0.0202  0.0791
34093W        W40693  14.083   4.364   6.904 -0.1391 -0.3060  0.1084
34094W        W40694  24.544   2.345  16.962  0.0400  0.1552 -0.1625
34095W        W40695   7.858   6.107  23.486 -0.0238  0.0833  0.3226
34096W        W40696  29.001   5.878   3.963  0.1101  0.2275  0.0443
34097W        W40697  17.405   3.998  19.905  0.0070 -0.0527  0.1392
34098W        W40698  22.855   7.825   7.175 -0.2696 -0.0594  0.1405
34099W        W40699   8.211   3.753  22.984  0.0585  0.0675 -0.1387
34100W        W40700  23.423   6.440   1.144  0.1780  0.3049  0.0650
34101W        W40701  29.670   6.468  19.285 -0.0613  0.1129  0.0955
34102W        W40702  21.376   5.354  25.034 -0.3355  0.0180  0.2045
34103W        W40703  17.586   4.056  19.397 -0.0086 -0.1735  0.1766
34104W        W40704  12.809   2.856  22.622 -0.3074 -0.0748  0.0926
34105W        W40705  12.592   7.495   4.825  0.1715 -0.1886  0.0202
34106W        W40706  24.451   2.950  24.278 -0.2038 -0.0945  0.1238
34107W        W40707  27.811   7.779  21.542 -0.0865 -0.1093  0.1536
34108W        W40708  16.719   7.251   0.856 -0.0592  0.4412 -0.2414
34109W        W40709   8.215   5.697   3.541  0.2397 -0.3389 -0.0919
34110W        W40710  18.594   6.405  19.847 -0.0767 -0.0899 -0.0837
34111W        W40711   9.336   3.583   9.730  0.2008 -0.0647 -0.1234
34112W        W40712  30.737   2.820  25.248  0.1123 -0.3333  0.3050
34113W        W40713  26.707   2.791   9.885 -0.0588 -0.0266 -0.1198
34114W        W40714  15.407   3.916  18.333 -0.0377  0.2015 -0.3230
34115W        W40715  19.070   3.365  17.377 -0.0359  0.1625  0.4860
34116W        W40716   4.395   2.013   3.244  0.2789 -0.1498 -0.2914
34117W        W40717  27.206   0.751  24.927 -0.4142 -0.3922 -0.1620
34118W        W40718  26.361   1.121   9.029  0.0698  0.0831  0.1688
34119W        W40719  14.372   1.437  23.669  0.3434 -0.2372 -0.1422
34120W        W40720  18.818   5.991  11.240 -0.0521 -0.4784  0.0488
34121W        W40721  23.869   5.456   4.034 -0.2598 -0.1048  0.0690
34122W        W40722  10.758   4.496  22.062 -0.1725 -0.1004  0.2819
34123W        W40723  29.521   1.847   8.408  0.0755 -0.0525 -0.0097
34124W        W40724   4.720   5.607   4.217 -0.0671 -0.1358  0.1434
34125W        W40725  26.133   2.965  22.623 -0.0349  0.0628 -0.1400
34126W        W40726   8.513   0.516   2.621  0.1286  0.1910 -0.0728
34127W        W40727  21.573   2.017  25.661  0.3041  0.1768  0.0350
34128W        W40728  25.468   4.506  17.861 -0.3787  0.0007 -0.2306
34129W        W40729  29.931   5.714  22.224 -0.0024 -0.0432 -0.0124
34130W        W40730  29.711   5.709  25.556 -0.0800 -0.0549 -0.1552
34131W        W40731  27.498   1.640  10.343  0.0227  0.1675  0.1566
34132W        W40732  29.184   0.885   0.093  0.0322 -0.2019 -0.0609
34133W        W40733   7.466   2.467  20.731  0.0462 -0.1353 -0.4759
34134W        W40734  22.936   5.347  22.796  0.0464  0.2731  0.2684
34135W        W40735   5.610   3.357  17.708 -0.2706 -0.0225 -0.3216
34136W        W40736  21.410   4.394   9.939  0.0462  0.2403  0.1274
34137W        W40737   0.023   2.477   4.218  0.0649  0.0446  0.0484
34138W        W40738  29.735   3.817  21.108  0.0983  0.1871 -0.1234
34139W        W40739  14.281   5.780   5.095 -0.1154  0.2493  0.2149
34140W        W40740  29.821   2.590  17.709 -0.1051 -0.0923  0.0468
34141W        W40741   4.765   3.234  16.510 -0.2850  0.1597 -0.0766
34142W        W40742   0.700   5.183   8.382  0.1474 -0.1190 -0.0307
34143W        W40743  24.340   1.024   5.349  0.1190  0.0473 -0.1416
34144W        W40744   5.751   7.199   6.416  0.0652  0.1411 -0.2317
34145W        W40745  29.070   0.766  19.673  0.0631 -0.3963  0.2364
34146W        W40746  18.215   1.728  24.327  0.2751 -0.0103  0.1946
34147W        W40747   8.676   6.815  24.122 -0.1512  0.1034 -0.0448
34148W        W40748  20.491   5.979   9.886  0.1250  0.1105  0.0592
34149W        W40749   1.049   6.568   4.800  0.3279  0.0294  0.0607
34150W        W40750   4.778   7.250   3.335  0.0811  0.1024  0.1850
34151W        W40751   7.092   1.545  11.035  0.2708 -0.0495  0.1546
34152W        W40752  31.232   4.521  21.931  0.1725 -0.1892 -0.0232
34153W        W40753  29.365   1.364  22.299  0.1736 -0.2275  0.1160
34154W        W40754  20.909   5.225   3.503 -0.0736 -0.3562 -0.1999
34155W        W40755  17.356   1.936  23.831 -0.0419 -0.3010 -0.0911
34156W        W40756  10.375   4.022   5.320  0.2558 -0.0593  0.0036
34157W        W40757  15.564   2.006   5.073  0.0006  0.0080  0.1576
34158W        W40758  21.032   7.803  25.897 -0.0299  0.4554 -0.2519
34159W        W40759   0.786   4.362   2.621 -0.1218  0.1154  0.3812
34160W        W40760  26.196   0.335   0.737 -0.2287 -0.1545 -0.0798
34161W        W40761   9.373   3.071  21.125 -0.0491 -0.1913 -0.1484
34162W        W40762   5.638   5.274  15.456  0.0740 -0.0277  0.1738
34163W        W40763  13.018   7.473  20.627 -0.2850 -0.0098  0.1471
34164W        W40764  26.679   6.211  10.327 -0.3888 -0.0807  0.0134
34165W        W40765   0.253   3.653   3.401 -0.0054 -0.0355 -0.0649
34166W        W40766   0.950   4.278   3.085  0.1130 -0.3266  0.1402
34167W        W40767  14.058   6.173   6.521  0.0906 -0.1908 -0.1407
34168W        W40768  27.540   1.097  19.156 -0.2267 -0.1910  0.0652
34169W        W40769   7.786   3.591  21.304  0.2286  0.0199 -0.2320
34170W        W40770   5.206   1.400  25.012 -0.1388 -0.4282  0.0647
34171W        W40771   5.931   6.538  21.397 -0.2031  0.1393  0.2801
34172W        W40772  18.494   2.494  23.336  0.0035  0.3068  0.1392
34173W        W40773  17.676   5.906  16.191  0.1367 -0.1406  0.0893
34174W        W40774  19.613   3.919   7.109 -0.2158  0.0524 -0.2301
34175W        W40775  31.113   6.305   2.113  0.0509 -0.0316 -0.0139
34176W        W40776   4.998   4.583   2.145  0.0922 -0.2061  0.2011
34177W        W40777  10.895   2.457   5.878 -0.2517 -0.0218 -0.0005
34178W        W40778  24.947   3.399   5.977  0.1045 -0.1151  0.0212
34179W        W40779  13.508   7.328  21.871 -0.0867  0.1360  0.0651
34180W        W40780  15.495   3.349   9.611  0.0806  0.0078  0.1811
34181W        W40781  21.707   3.947  11.112 -0.0867 -0.1070  0.0123
34182W        W40782   6.948   0.277   4.031  0.3187  0.1186  0.3128
34183W        W40783   0.561   5.915  17.980  0.2374  0.1769  0.0395
34184W        W40784   7.399   0.729  21.213  0.0569 -0.0079  0.1288
34185W        W40785   8.988   3.191  18.023 -0.0071 -0.3269 -0.0041
34186W        W40786   7.455   6.511   2.518 -0.0140  0.0041  0.1071
34187W        W40787  25.566   0.555   9.494  0.0769 -0.0862  0.2469
34188W        W40788   2.576   4.063  18.392 -0.0250  0.0639  0.0225
34189W        W40789  24.232   6.291  25.900 -0.0781 -0.0722  0.0156
34190W        W40790  27.710   6.896  16.117 -0.1415  0.0577  0.1385
34191W        W40791  16.025   0.246   6.790 -0.0592  0.2474  0.0702
34192W        W40792   8.108   2.974  21.702 -0.1424  0.1239 -0.2061
34193W        W40793  28.176   7.387  19.286  0.1060  0.0188  0.0061
34194W        W40794   4.233   1.951   5.164 -0.1669 -0.0538  0.2198
34195W        W40795   4.052   1.046  16.176 -0.0021  0.1048  0.1876
34196W        W40796  10.890   1.909   1.653 -0.1166 -0.0505 -0.1184
34197W        W40797  10.523   4.810   9.180  0.0918 -0.0841 -0.0878
34198W        W40798  13.739   3.924  16.546 -0.1863  0.1713 -0.2466
34199W        W40799  23.314   6.325  16.564 -0.1662 -0.1052 -0.0460
34200W        W40800   1.178   1.637   5.128 -0.0422 -0.1763  0.2879
34201W        W40801  23.057   1.248   6.685  0.3983  0.2559  0.0877
34202W        W40802   1.322   1.061  22.706 -0.3399  0.1965 -0.0616
34203W        W40803  30.849   6.514  21.484 -0.0842  0.3022  0.1749
34204W        W40804  22.502   3.885  25.950  0.0264  0.2087 -0.4378
34205W        W40805   6.330   6.617  17.777 -0.2744 -0.3078  0.3805
34206W        W40806  23.713   1.695  25.717 -0.0702  0.1731 -0.1421
34207W        W40807  15.690   1.655  25.438 -0.0546  0.1065 -0.1312
34208W        W40808   1.810   0.087  21.004 -0.0949  0.1847 -0.2588
34209W        W40809  30.612   5.195  22.145  0.1951  0.1057  0.0923
34210W        W40810  27.128   7.588  22.351  0.2068  0.2231 -0.0463
34211W        W40811  20.368   7.823  18.182  0.0530 -0.1820 -0.2340
34212W        W40812  30.088   2.142  19.322 -0.3229 -0.3054 -0.0127
34213W        W40813  29.683   3.041   1.652 -0.1558 -0.4290  0.5847
34214W        W40814  30.041   7.072  25.360 -0.2382 -0.1304 -0.1042
34215W        W40815   9.752   1.132  15.677  0.0941  0.1010 -0.1955
34216W        W40816  30.871   2.109  15.090 -0.4391 -0.1215 -0.0471
34217W        W40817  17.131   2.239   3.170  0.0916 -0.1161  0.0605
34218W        W40818  22.981   2.681   6.959 -0.0118 -0.0275 -0.1053
34219W        W40819   2.804   5.409  16.335  0.0935 -0.3189  0.0365
34220W        W40820  11.142   1.293  24.459 -0.1621  0.1242 -0.1883
34221W        W40821  19.846   4.860   5.661  0.3918 -0.1464  0.2748
34222W        W40822   9.427   0.448  18.154 -0.1281  0.0020  0.0129
34223W        W40823  10.327   6.307   3.333  0.0390 -0.2481 -0.1804
34224W        W40824   4.518   0.513  21.237  0.1635  0.1745  0.2039
34225W        W40825  11.951   3.933   4.488  0.1698 -0.0448 -0.1523
34226W        W40826   4.736   3.127   7.312 -0.0829 -0.2263 -0.1331
34227W        W40827  13.774   2.479  10.224 -0.2352 -0.2132 -0.1148
34228W        W40828   0.523   7.519   5.668  0.2322 -0.0106  0.2444
34229W        W40829  17.100   3.271   6.779  0.1008  0.0759 -0.2420
34230W        W40830  20.103   0.942  18.637 -0.2088  0.3742  0.1740
34231W        W40831   8.249   6.652   9.688 -0.0755 -0.1223 -0.1239
34232W        W40832   6.399   4.544   5.348 -0.0248 -0.2746 -0.3716
34233W        W40833   2.944   0.523  24.581  0.1839 -0.2278  0.2282
34234W        W40834   5.006   0.623  21.058 -0.0810  0.3613  0.0465
34235W        W40835  26.617   5.762   7.661 -0.0151 -0.1333  0.4620
34236W        W40836  25.398   0.901   5.862 -0.0487  0.2112  0.2711
34237W        W40837   5.991   5.822   8.862 -0.1322 -0.1018  0.0776
34238W        W40838  21.615   4.254   3.861 -0.1386  0.4840 -0.0686
34239W        W40839  15.778   5.420  16.389  0.1833 -0.1336 -0.2029
34240W        W40840  23.874   2.503   5.213  0.0810  0.1524  0.0916
34241W        W40841  22.394   6.436  23.436 -0.1474  0.1503 -0.2423
34242W        W40842   7.611   1.843  21.786  0.2948 -0.0777 -0.1089
34243W        W40843  27.053   6.494  24.867  0.3089  0.3202 -0.0173
34244W        W40844  10.344   2.242  10.424  0.0093  0.3923  0.0995
34245W        W40845  14.161   7.228   6.417 -0.2787  0.2019 -0.2159
34246W        W40846   2.729   1.583   6.254  0.1239  0.1623 -0.1021
34247W        W40847   7.831   5.158   7.332 -0.0106 -0.2175 -0.2700
34248W        W40848  14.296   5.571  15.651 -0.2865  0.0707 -0.2737
34249W        W40849   3.733   2.732   7.012 -0.1294 -0.2227 -0.0667
34250W        W40850   2.902   7.205   5.891 -0.1136 -0.3075 -0.1849
34251W        W40851  21.386   5.365  25.947  0.1895 -0.0829 -0.0271
34252W        W40852  26.096   2.284  17.028 -0.1592  0.1466  0.1489
34253W        W40853  17.409   0.005  10.617 -0.0610  0.1102 -0.1036
34254W        W40854  21.929   1.291  19.299  0.1884  0.2031 -0.0296
34255W        W40855  19.895   4.028  17.308 -0.1434 -0.0354 -0.1398
34256W        W40856   7.067   0.247   8.505  0.1343 -0.1874  0.2235
34257W        W40857  15.490   2.058  23.067 -0.1577  0.0969 -0.1360
34258W        W40858  15.196   5.559  17.381  0.1532  0.1913 -0.1114
34259W        W40859  15.124   1.334  15.999  0.0644  0.2953  0.1738
34260W        W40860  29.543   7.197   5.009 -0.3304 -0.2315  0.1530
34261W        W40861   1.942   2.347  22.237  0.2948 -0.0231  0.0318
34262W        W40862  14.663   6.685  24.057  0.1901 -0.0750  0.1870
34263W        W40863  14.152   1.254  21.829  0.0624  0.0373  0.2058
34264W        W40864   6.489   3.735   2.935  0.2166  0.1203 -0.0760
34265W        W40865   1.561   2.534   2.540  0.2672  0.1110 -0.0178
34266W        W40866  16.669   0.714  11.569 -0.1807  0.1083 -0.0308
34267W        W40867  14.177   6.541   0.279  0.0352 -0.2725  0.1280
34268W        W40868   3.160   2.567   3.417 -0.0822  0.0639  0.0440
34269W        W40869  28.272   3.343   5.591 -0.0409  0.0346 -0.1096
34270W        W40870  12.024   1.860  20.649  0.1997 -0.0356  0.2420
34271W        W40871  30.818   5.325  19.980 -0.0568 -0.0083 -0.3899
34272W        W40872  28.484   6.267  25.360 -0.0798 -0.0581  0.0553
34273W        W40873  21.072   2.832  18.367  0.3288 -0.0846 -0.1723
34274W        W40874  25.259   2.984   1.117 -0.1744  0.1503 -0.0191
34275W        W40875  28.700   6.915  21.488 -0.1481 -0.1465  0.0882
34276W        W40876  17.094   7.434  20.497 -0.3400  0.2337 -0.0314
34277W        W40877   4.121   3.811   0.004  0.0812 -0.0700  0.0003
34278W        W40878   8.309   5.512   8.008  0.0666  0.0413 -0.0091
34279W        W40879  22.180   3.802  22.915  0.0227 -0.1248  0.0344
34280W        W40880  12.278   0.774   2.919  0.2467 -0.0255  0.1958
34281W        W40881  23.559   3.298   2.245 -0.1778  0.0253  0.1261
34282W        W40882   7.591   3.725   4.009 -0.0327 -0.0997  0.1139
34283W        W40883  19.042   1.045   2.603  0.0949 -0.1783  0.0528
34284W        W40884  17.041   5.157  18.361  0.2975 -0.2625  0.0565
34285W        W40885  29.538   2.050   2.317  0.4545 -0.2417 -0.0793
34286W        W40886   5.012   5.198   5.627 -0.0175 -0.1551 -0.1655
34287W        W40887   7.747   6.391   3.833  0.0275  0.0895  0.0523
34288W        W40888   3.043   7.248  24.710 -0.0051  0.0736  0.0125
34289W        W40889   1.870   1.930   4.307 -0.0660 -0.1513 -0.1584
34290W        W40890  26.323   1.895   7.929  0.0452 -0.1713 -0.0871
34291W        W40891   9.409   1.537   5.707 -0.1088  0.2180  0.2297
34292W        W40892  15.031   2.938  19.653 -0.0137 -0.0065  0.0445
34293W        W40893  15.599   2.059  25.146  0.1962  0.1414  0.0118
34294W        W40894  13.958   4.664   8.139 -0.0020 -0.0093 -0.1072
34295W        W40895  10.074   2.780   3.448 -0.0332 -0.1689  0.0999
34296W        W40896  13.965   7.745   3.149 -0.1281 -0.1644  0.0340
34297W        W40897  18.053   7.620  15.705  0.0543 -0.0650 -0.1257
34298W        W40898  16.981   2.024   4.604 -0.0256  0.0146  0.1146
34299W        W40899  28.063   5.094  24.669  0.1567  0.4598  0.1903
34300W        W40900  23.997   3.278   4.210 -0.1682  0.0344 -0.0780
34301W        W40901   6.125   5.340   4.234 -0.0719 -0.1104 -0.2352
34302W        W40902   8.907   7.662   2.534 -0.0625  0.2390 -0.0960
34303W        W40903   4.123   3.218   1.790 -0.2785 -0.0335  0.0010
34304W        W40904  28.372   3.121  15.833  0.2106 -0.3050 -0.1645
34305W        W40905  14.461   5.479  21.290 -0.1152  0.0753  0.1796
34306W        W40906  26.524   6.955  23.763  0.1690 -0.3028 -0.0054
34307W        W40907   2.760   5.371   7.194  0.1900  0.2580 -0.1045
34308W        W40908  29.081   2.908   1.226 -0.0544  0.0219  0.0226
34309W        W40909   2.281   2.772   8.847 -0.0521  0.0604 -0.0376
34310W        W40910   4.303   7.001   6.583 -0.2015 -0.0576 -0.1315
34311W        W40911   8.458   5.984  22.895 -0.0425 -0.2253 -0.0064
34312W        W40912  21.047   3.299  25.573 -0.0401  0.1811 -0.0234
34313W        W40913  22.272   7.729   1.675  0.2333 -0.2535  0.0184
34314W        W40914  14.004   7.838   4.730 -0.1181 -0.1304  0.0138
34315W        W40915   7.440   0.406   3.693  0.0402 -0.3227 -0.0167
34316W        W40916   9.279   5.517  10.310 -0.1239 -0.0496 -0.0228
34317W        W40917   9.572   6.027   3.699 -0.1318  0.1873 -0.3347
34318W        W40918  13.515   4.865   3.314  0.1220  0.1543  0.2161
34319W        W40919   0.822   0.004  18.881  0.0938 -0.1013  0.2691
34320W        W40920  26.340   4.111  16.801  0.2518  0.0387 -0.0304
34321W        W40921   0.545   0.143  17.402  0.3875  0.0232  0.1118
34322W        W40922  26.719   7.067   4.880  0.0131  0.0519 -0.0522
34323W        W40923   8.690   7.708   8.829  0.1229 -0.1803  0.2330
34324W        W40924  23.126   5.938   1.226 -0.0797 -0.0698 -0.1656
34325W        W40925   8.026   5.542   8.427 -0.0399  0.0622 -0.1575
34326W        W40926  24.698   6.742   8.191  0.1087  0.0084 -0.3671
34327W        W40927  13.557   2.254   1.459 -0.2489 -0.2331 -0.0294
34328W        W40928  24.707   5.200   7.701  0.0953  0.2403  0.2463
34329W        W40929  23.991   0.491   1.019 -0.0971  0.2431  0.2687
34330W        W40930  26.194   6.782  21.521 -0.0386  0.3891  0.1635
34331W        W40931  25.017   5.439   9.649 -0.1661 -0.5617  0.0226
34332W        W40932  11.224   7.463   3.374 -0.1256 -0.3188  0.0592
34333W        W40933   5.758   6.874   2.131 -0.4069  0.0626 -0.1571
34334W        W40934  21.884   0.637   6.898 -0.0441  0.1724  0.0827
34335W        W40935  15.487   7.032  18.978 -0.0020  0.2895  0.0235
34336W        W40936  29.735   4.494   8.979  0.1897  0.1810 -0.1005
34337W        W40937  15.205   0.182  17.042  0.3388  0.2681 -0.1234
34338W        W40938  17.714   4.218   7.665 -0.2208  0.0889 -0.0839
34339W        W40939  25.411   2.495  24.757 -0.0851 -0.0593 -0.3211
34340W        W40940   9.952   3.256  17.960  0.0005  0.0782 -0.0530
34341W        W40941   7.226   4.741   5.705 -0.1875 -0.0693  0.2167
34342W        W40942  23.098   6.348   0.798  0.1336  0.1688  0.1263
34343W        W40943  21.535   5.221   1.026  0.0871  0.0825  0.0406
34344W        W40944  23.051   7.503   4.997 -0.0211  0.2317  0.0710
34345W        W40945  10.525   5.859  16.499 -0.1879  0.0625  0.0508
34346W        W40946  16.753   6.662  23.101 -0.1928  0.0682  0.2678
34347W        W40947  26.639   0.569  19.737  0.4531 -0.1100  0.0727
34348W        W40948  31.374   7.597  19.152  0.0212 -0.0842 -0.1782
34349W        W40949  23.655   4.419  23.820  0.0967  0.1763 -0.2463
34350W        W40950  16.863   4.742   2.238  0.1549 -0.1156  0.0799
34351W        W40951  14.559   2.544  20.066 -0.0703 -0.0912  0.0628
34352W        W40952  14.522   7.141  24.338  0.0230  0.1105 -0.1381
34353W        W40953   4.968   1.302  23.558  0.4180  0.0425  0.1061
34354W        W40954  28.294   7.094   7.364 -0.3082 -0.5605 -0.0542
34355W        W40955  30.310   1.878  22.386 -0.3077 -0.2676  0.0829
34356W        W40956  24.408   1.362  25.928  0.0290 -0.1936 -0.0995
34357W        W40957  13.480   0.680   5.390  0.0756 -0.0148 -0.0120
34358W        W40958   3.290   4.461   8.908 -0.0026 -0.0962  0.0992
34359W        W40959  13.849   3.604   6.460  0.2153 -0.0344 -0.0827
34360W        W40960  24.063   2.064   1.745  0.1458 -0.0685  0.0252
34361W        W40961  30.997   5.785  19.763  0.1232 -0.2338 -0.0672
34362W        W40962  24.575   1.222   7.437  0.0834  0.1026  0.2111
34363W        W40963  14.243   6.512  18.509 -0.2263 -0.1448 -0.1646
34364W        W40964   8.712   0.463  10.479  0.3011 -0.0205 -0.1713
34365W        W40965  18.403   3.717  17.035 -0.3607  0.1252  0.1539
34366W        W40966  19.792   7.488  10.695 -0.1208  0.1590  0.2038
34367W        W40967  28.519   0.240  15.039  0.0325 -0.0252  0.1763
34368W        W40968   6.735   4.310   4.963 -0.2327  0.3271  0.0837
34369W        W40969   9.194   4.439  21.642 -0.1448 -0.3936  0.1956
34370W        W40970  12.597   0.310   5.114  0.1617  0.0199  0.1787
34371W        W40971  11.674   0.536  19.984 -0.1089  0.1917  0.0115
34372W        W40972  18.217   2.002  25.469 -0.2441 -0.0777 -0.0242
34373W        W40973  19.792   5.101  16.157 -0.1003  0.1440  0.0795
34374W        W40974  21.000   6.969   7.401 -0.2751 -0.1977 -0.0280
34375W        W40975  23.363   5.448   0.606  0.2353 -0.1023  0.0979
34376W        W40976   2.061   6.644  21.448 -0.1170 -0.2048  0.0360
34377W        W40977  13.530   4.472  19.080 -0.0000 -0.1586  0.0523
34378W        W40978   3.385   5.582  15.287  0.2387 -0.1354 -0.2813
34379W        W40979  20.287   3.997  21.466 -0.2330 -0.1893 -0.0954
34380W        W40980  28.836   6.845  24.426 -0.0192 -0.2185 -0.1927
34381W        W40981  13.123   0.052  18.347  0.3415 -0.0236  0.2549
34382W        W40982  30.391   1.941   2.829  0.0281 -0.1869 -0.0427
34383W        W40983  30.278   1.579   0.290  0.2906  0.0943 -0.1075
34384W        W40984  10.721   4.884  19.450  0.0394  0.0486  0.2261
34385W        W40985  11.373   7.157  16.249  0.3893  0.1932  0.1875
34386W        W40986  30.880   3.629  16.637 -0.2066 -0.0467 -0.2432
34387W        W40987   0.272   4.977   1.146  0.0568 -0.0827 -0.0117
34388W        W40988  29.197   1.550  10.305 -0.0143  0.0063  0.0351
34389W        W40989  26.044   3.748   7.818  0.0655  0.4803  0.1162
34390W        W40990  18.744   6.413   1.089  0.0289 -0.1273 -0.1528
34391W        W40991  27.756   0.660  19.011 -0.0140 -0.0514 -0.0659
34392W        W40992  30.604   1.811   8.324 -0.0535  0.0915 -0.0606
34393W        W40993   4.183   6.416   6.603 -0.0918 -0.2434 -0.1499
34394W        W40994   0.344   0.027   7.634  0.0145 -0.1649  0.1414
34395W        W40995   5.589   2.807  17.630 -0.3601 -0.0612 -0.0689
34396W        W40996  24.178   1.580  25.526  0.1204 -0.0770 -0.0301
34397W        W40997  22.177   3.542  10.587 -0.2026  0.1827 -0.2642
34398W        W40998  25.131   1.357  15.807  0.1485 -0.1381 -0.1174
34399W        W40999   1.628   0.302  24.097  0.0187  0.2043  0.1057
34400W        W41000   5.097   2.874   4.380 -0.1328  0.0511  0.0812
34401W        W41001  14.302   4.580   0.678 -0.4090  0.2276  0.0853
34402W        W41002  15.542   5.822  16.756  0.1219 -0.1217 -0.0727
34403W        W41003  11.594   3.591  23.348 -0.0484  0.4084  0.2684
34404W        W41004  15.035   5.136   0.537 -0.0938 -0.1311  0.0889
34405W        W41005   7.875   3.260   6.218  0.2059  0.0679  0.0247
34406W        W41006   8.452   1.180   8.706 -0.5192  0.0342  0.0399
34407W        W41007  25.411   1.421   2.272  0.0932  0.0239  0.1032
34408W        W41008   1.129   1.948  22.987 -0.1201  0.0528  0.2348
34409W        W41009  26.576   0.639   1.564 -0.0851  0.2158  0.2068
34410W        W41010   0.414   0.432   7.195  0.1246  0.0231 -0.3161
34411W        W41011   8.477   3.731  24.430  0.0098  0.2323 -0.1756
34412W        W41012   7.229   5.149   2.534 -0.0221  0.3548  0.2608
34413W        W41013  24.276   6.322  15.023  0.2882 -0.0207 -0.0284
34414W        W41014  22.406   7.137   1.750 -0.0360 -0.2702 -0.3534
34415W        W41015   7.498   1.360  18.588  0.0367 -0.1288 -0.0485
34416W        W41016  16.100   3.188  18.748 -0.0275  0.1664 -0.0420
34417W        W41017  25.962   4.624  24.168 -0.1757  0.2868 -0.0715
34418W        W41018   7.223   2.289   8.386  0.1095 -0.0630 -0.2502
34419W        W41019  29.008   1.026   3.893 -0.2039  0.1747  0.0470
34420W        W41020  29.234   5.706  18.303 -0.1402  0.2259  0.2622
34421W        W41021  31.424   7.193   7.214  0.0767 -0.0409  0.2340
34422W        W41022  25.349   5.560  22.750  0.1438  0.1273 -0.0179
34423W        W41023   9.974   6.113   0.871  0.0184 -0.0783  0.0209
34424W        W41024   8.781   3.565   9.621 -0.0854 -0.0776  0.0367
34425W        W41025   3.197   6.763  10.429  0.3648  0.1812  0.0317
34426W        W41026  16.019   5.132   4.086  0.1856 -0.0738 -0.0150
34427W        W41027   4.807   7.476   0.944 -0.0786  0.2997 -0.0241
34428W        W41028  19.941   7.449   8.078  0.2848 -0.1238 -0.0229
34429W        W41029  21.427   3.474  16.737 -0.0962  0.0902 -0.0871
34430W        W41030  20.370   1.523   6.572 -0.1774 -0.0486 -0.0504
34431W        W41031   8.694   7.535  18.817 -0.2915 -0.1615  0.0824
34432W        W41032   2.863   4.403  24.732 -0.4113  0.1010  0.0568
34433W        W41033   4.328   6.246   8.326 -0.2448  0.0657 -0.1116
34434W        W41034  13.796   0.430   8.265  0.0243  0.0077 -0.1875
34435W        W41035  31.283   0.865  19.484  0.2247  0.2099 -0.2986
34436W        W41036  23.999   4.156   1.441  0.0541  0.0590  0.1053
34437W        W41037  19.949   5.220  21.104  0.0599  0.0542 -0.1092
34438W        W41038   6.369   2.022  24.912  0.1079  0.1393 -0.0798
34439W        W41039   1.332   2.005  17.158  0.0121 -0.1207 -0.0010
34440W        W41040  30.182   6.326  19.179 -0.1821 -0.0361 -0.3997
34441W        W41041  20.119   1.756  23.546  0.3194  0.0724 -0.4333
34442W        W41042   4.175   2.465   4.797 -0.0508  0.0595 -0.0762
34443W        W41043  27.525   4.530   5.345 -0.1817 -0.0842 -0.2137
34444W        W41044  16.039   0.389  24.289 -0.0389  0.1108  0.2759
34445W        W41045  17.729   3.017   3.675 -0.0280  0.0106  0.2025
34446W        W41046   3.500   6.456   9.641  0.0817 -0.1115  0.1373
34447W        W41047  27.347   4.198   8.199 -0.1858  0.2043  0.1084
34448W        W41048   8.111   7.637   8.365 -0.1815  0.2605 -0.2122
34449W        W41049  31.411   0.228   8.086 -0.0282 -0.0838 -0.0216
34450W        W41050   0.388   7.488  23.296  0.0371  0.2665  0.0785
34451W        W41051  30.140   4.874  19.227  0.0002  0.3265 -0.2144
34452W        W41052  26.619   4.295  22.073  0.1173 -0.0964 -0.0607
34453W        W41053  21.094   4.620   3.582  0.0005 -0.0593  0.3965
34454W        W41054  30.295   3.055  23.321 -0.2852  0.0647 -0.0175
34455W        W41055  30.802   2.255  21.674 -0.0483  0.0899 -0.1341
34456W        W41056  17.860   6.721   9.574  0.1630  0.1082  0.0108
34457W        W41057  18.146   3.200   5.109  0.1186 -0.1883  0.0764
34458W        W41058  28.038   5.348  10.752  0.1027 -0.0969  0.0219
34459W        W41059  13.312   3.778  23.542  0.1465  0.0247 -0.1525
34460W        W41060  25.941   2.621   1.449  0.0869  0.4387 -0.1559
34461W        W41061  16.854   6.968  17.365  0.2615 -0.0173 -0.0278
34462W        W41062  31.350   0.320   7.552  0.0431 -0.0838 -0.0600
34463W        W41063   5.311   2.721  18.514  0.1738 -0.1697 -0.3805
34464W        W41064  29.434   1.827  16.626 -0.2104  0.0004  0.1644
34465W        W41065   9.057   0.152  26.005  0.0913  0.3126 -0.1991
34466W        W41066  18.499   2.258  24.715 -0.0450 -0.0501 -0.0800
34467W        W41067  15.920   4.928  19.343  0.0881  0.2390  0.1148
34468W        W41068  22.642   5.031   8.429 -0.1490 -0.0057 -0.2531
34469W        W41069   4.653   2.984   1.128  0.0538 -0.0121  0.0823
34470W        W41070  23.127   6.165  11.465 -0.1538 -0.0026  0.1279
34471W        W41071   7.134   1.348  23.299 -0.1169 -0.4433 -0.3040
34472W        W41072   6.968   3.243  15.524 -0.0263  0.2581  0.1073
34473W        W41073  13.642   3.257  22.290  0.3654  0.0151 -0.0690
34474W        W41074  29.563   1.466  21.304 -0.1015 -0.1891  0.3837
34475W        W41075  30.139   7.520  17.525  0.3452  0.0867  0.0034
34476W        W41076  18.316   7.820  18.139 -0.1611 -0.4256  0.0383
34477W        W41077   4.599   3.040   4.836  0.1663  0.0480  0.5900
34478W        W41078  28.142   1.312  14.895  0.0683  0.0277 -0.0240
34479W        W41079   3.118   1.327   5.547 -0.0136  0.0027  0.0911
34480W        W41080   7.034   0.458  22.978 -0.0353  0.2274  0.0609
34481W        W41081   2.962   2.050   6.075 -0.2019  0.2401 -0.1186
34482W        W41082  10.146   4.623   9.510  0.0642  0.5488  0.0004
34483W        W41083  26.212   3.935  25.478 -0.2316  0.0571  0.0392
34484W        W41084   3.377   3.982   8.850  0.2766  0.3844  0.1344
34485W        W41085  25.482   3.780   2.069  0.3901 -0.0190  0.3501
34486W        W41086  31.219   1.102  15.510  0.1321 -0.1409 -0.1487
34487W        W41087   9.497   4.422  21.250 -0.0166  0.0124  0.1003
34488W        W41088  23.325   0.180  22.321 -0.0930 -0.0079  0.4533
34489W        W41089  13.709   2.478  19.608 -0.4772  0.4138 -0.2833
34490W        W41090   1.118   7.340  16.011 -0.2016 -0.0207 -0.2470
34491W        W41091   3.017   7.820  24.627  0.2528  0.2874  0.0250
34492W        W41092  25.756   2.658  14.998  0.1761  0.1879  0.1284
34493W        W41093   2.340   5.485  22.748 -0.2196 -0.2361 -0.0333
34494W        W41094   3.687   7.124   4.308  0.1353  0.2358  0.0038
34495W        W41095  22.531   1.111   5.530  0.1597  0.1343  0.1695
34496W        W41096   8.399   1.964  25.586  0.1104 -0.0051 -0.0662
34497W        W41097   6.708   5.662   3.439  0.0716 -0.1980 -0.1541
34498W        W41098   2.114   0.964  17.783  0.4387 -0.0528  0.2560
34499W        W41099  12.939   5.026   0.852 -0.0491  0.0877  0.1980
34500W        W41100  14.538   3.780  10.369  0.1120 -0.0814  0.1832
34501W        W41101   1.724   2.961   3.277  0.0062 -0.0044 -0.0246
34502W        W41102   5.287   1.353  18.700  0.1351  0.3650  0.1053
34503W        W41103   7.629   5.039  20.940  0.2018 -0.1086 -0.0707
34504W        W41104   9.651   2.279  16.688 -0.0503 -0.0740  0.0111
34505W        W41105   7.399   7.317  20.558  0.4383  0.0862  0.1725
34506W        W41106  26.318   5.872  25.217  0.0295  0.2738  0.0675
34507W        W41107  19.268   4.993   9.525  0.2086 -0.1989 -0.0130
34508W        W41108  16.964   3.288   8.475  0.1330  0.0048 -0.2152
34509W        W41109  30.805   6.817   2.756  0.4474 -0.1975 -0.3076
34510W        W41110   4.347   2.074  17.251  0.0879  0.0783  0.0313
34511W        W41111  17.103   3.576   4.891  0.1287  0.0936 -0.0328
34512W        W41112  13.095   0.610   2.359 -0.2745  0.1513  0.0588
34513W        W41113  25.914   2.809  25.618 -0.1438  0.0070  0.2800
34514W        W41114   9.593   1.270   9.054  0.0624  0.3511  0.0745
34515W        W41115  13.439   1.096  21.441 -0.0538  0.1369 -0.1098
34516W        W41116  12.344   2.025  24.236 -0.1233 -0.2376 -0.1693
34517W        W41117   5.127   1.615   9.422 -0.0169  0.2079 -0.0227
34518W        W41118   8.012   5.537   1.911 -0.0205  0.0957 -0.0239
34519W        W41119   2.892   3.661   3.772 -0.0178  0.1713 -0.1266
34520W        W41120  29.894   6.144  15.607 -0.0161  0.0485  0.0646
34521W        W41121   4.425   6.145  16.490  0.3615 -0.0385 -0.1685
34522W        W41122  20.523   6.263  10.684  0.2765  0.0189 -0.1143
34523W        W41123  20.822   4.915  25.541 -0.1014  0.1297 -0.2970
34524W        W41124  17.532   2.217  20.261 -0.2451 -0.2601  0.2616
34525W        W41125  29.876   5.933   2.752 -0.0816 -0.1775 -0.0396
34526W        W41126   3.817   3.983  15.773  0.2487  0.2058 -0.5161
34527W        W41127  12.139   3.250  18.705  0.0175  0.0597 -0.0541
34528W        W41128   8.883   5.185   1.637  0.1178 -0.0239 -0.0022
34529W        W41129   1.451   3.490   7.280  0.2295  0.2474 -0.1487
34530W        W41130  16.316   3.244   4.190 -0.0420  0.4248  0.0725
34531W        W41131  29.210   5.785  19.614  0.0425  0.3981 -0.1056
34532W        W41132   0.271   6.486   6.850 -0.1651 -0.2794  0.0384
34533W        W41133  27.405   0.027   8.685  0.1455 -0.1526 -0.2623
34534W        W41134  29.498   6.294   8.814  0.0617  0.1082 -0.2368
34535W        W41135   0.124   6.411   0.296 -0.0819  0.2216 -0.1383
34536W        W41136  23.957   0.874   6.374  0.2249  0.2699 -0.0414
34537W        W41137   0.759   1.689   9.295 -0.0681 -0.0406 -0.0580
34538W        W41138   9.742   1.677   8.283 -0.1010  0.1791  0.0251
34539W        W41139  16.859   4.041   0.590 -0.0616  0.0069 -0.0951
34540W        W41140   4.338   7.709  19.725 -0.0630  0.0154  0.0160
34541W        W41141  27.199   1.776  21.321 -0.2004  0.2666 -0.1822
34542W        W41142  19.284   2.339  10.905  0.3476 -0.0473  0.0199
34543W        W41143   5.636   7.682  19.214 -0.3995  0.0631 -0.0719
34544W        W41144   9.032   5.915  23.864 -0.0123  0.0283  0.1690
34545W        W41145  11.136   3.233  18.915 -0.1983 -0.2339 -0.0474
34546W        W41146  25.341   2.574   1.431 -0.0177 -0.2188 -0.2387
34547W        W41147  25.327   5.450  21.365 -0.1494  0.1596  0.0547
34548W        W41148  18.215   3.743  10.706  0.1102  0.0564 -0.0393
34549W        W41149  21.758   7.793   1.480  0.2547  0.1881  0.2395
34550W        W41150  21.704   3.916   9.873  0.2050  0.1233  0.0654
34551W        W41151  30.944   6.296  17.931 -0.2253  0.0254  0.2095
34552W        W41152   4.897   5.988  23.553 -0.1823  0.1421  0.1065
34553W        W41153  26.542   2.623  25.175  0.0138 -0.0663  0.0784
34554W        W41154  21.775   3.713  25.849 -0.0482  0.1395  0.0779
34555W        W41155   3.699   4.052  14.883  0.5637 -0.0100 -0.1457
34556W        W41156  21.499   3.149   9.285  0.2077  0.0259  0.1609
34557W        W41157   9.942   7.182  25.602 -0.0990  0.1032  0.0756
34558W        W41158   9.218   0.742  18.613 -0.0293 -0.0691 -0.0058
34559W        W41159  18.606   3.157  18.914  0.2153 -0.0034  0.1992
34560W        W41160   5.213   5.640  11.135 -0.0440  0.2080  0.1604
34561W        W41161  24.273   4.368  19.340 -0.0455 -0.0096 -0.1265
34562W        W41162  18.353   5.769   1.368 -0.0296  0.1890  0.0586
34563W        W41163  18.009   6.891  10.980  0.0111 -0.0673 -0.2706
34564W        W41164  19.267   5.140   0.436  0.0846  0.2104  0.2734
34565W        W41165  16.647   1.058  16.295 -0.0759 -0.2332  0.1032
34566W        W41166  18.934   5.425   2.082  0.0023  0.0085 -0.0348
34567W        W41167   2.530   5.068   6.218  0.1793 -0.1504 -0.2997
34568W        W41168   2.130   6.035   6.313 -0.1349  0.2606  0.0933
34569W        W41169  25.920   0.767  22.706  0.1864 -0.0853  0.0078
34570W        W41170  22.904   1.676   2.207 -0.0925 -0.1069  0.3440
34571W        W41171  21.148   5.451   8.363 -0.0489 -0.1811  0.0737
34572W        W41172  30.295   2.795   3.639  0.0548 -0.0292 -0.0025
34573W        W41173  28.986   4.159   7.734 -0.1359  0.0894 -0.2172
34574W        W41174   9.380   0.403  23.064  0.0533 -0.1251  0.1418
34575W        W41175  22.790   3.614  23.179 -0.0327 -0.1057 -0.0295
34576W        W41176  22.147   6.646   8.653 -0.0765 -0.0338 -0.4442
34577W        W41177   0.449   1.977  22.665 -0.0636 -0.0867 -0.4039
34578W        W41178  24.688   4.614   9.287  0.1336 -0.0147 -0.1720
34579W        W41179  16.469   7.743  21.867  0.0577  0.0978  0.3842
34580W        W41180  24.252   4.305   3.692  0.1266  0.0387  0.0277
34581W        W41181  29.395   0.044  15.747 -0.0236 -0.1662 -0.1015
34582W        W41182  20.704   6.860   1.928 -0.0002 -0.0058 -0.0169
34583W        W41183   0.407   3.152   5.550 -0.0410 -0.2744  0.2748
34584W        W41184  22.331   2.669  10.615 -0.0373 -0.0011 -0.1161
34585W        W41185  30.685   3.107   3.880 -0.0750  0.3755  0.0109
34586W        W41186   1.347   6.833   3.125 -0.2425 -0.3205 -0.1069
34587W        W41187  23.100   5.129   2.900  0.1854 -0.0043 -0.1012
34588W        W41188  30.452   5.619  14.710  0.0197  0.1912 -0.1566
34589W        W41189  25.909   3.903  18.615  0.1236 -0.2596  0.2044
34590W        W41190  18.651   1.603   9.522 -0.0167 -0.1625 -0.0963
34591W        W41191   5.340   5.898  20.291  0.0908 -0.0411 -0.3810
34592W        W41192  17.268   1.156  24.744  0.1799  0.0249 -0.0582
34593W        W41193   8.754   4.686   3.159  0.2030 -0.1058  0.2495
34594W        W41194   3.623   4.272   3.214 -0.1173 -0.1831  0.1591
34595W        W41195  21.545   7.630  18.551  0.0568 -0.1568 -0.0311
34596W        W41196  21.499   6.279  16.381 -0.0384 -0.1425 -0.1486
34597W        W41197  20.638   5.902  19.260  0.2442 -0.1585  0.0733
34598W        W41198  21.180   2.741   9.163  0.3683  0.3424  0.3985
34599W        W41199  21.797   3.000   8.015 -0.0078 -0.0337  0.0643
34600W        W41200  11.925   5.168   6.412 -0.0888  0.0204 -0.0878
34601W        W41201   2.073   5.456   1.707 -0.0324  0.1610 -0.1074
34602W        W41202   7.304   1.137   3.592 -0.0378 -0.0668 -0.0592
34603W        W41203  12.652   2.058  23.773 -0.0857 -0.1033  0.6370
34604W        W41204  15.288   0.890  23.860  0.2064 -0.0433 -0.0973
34605W        W41205  20.302   0.332  17.783 -0.1793 -0.0022 -0.0210
34606W        W41206   6.197   0.091   6.382  0.3202  0.0683 -0.1682
34607W        W41207   3.055   7.232  17.221  0.0119 -0.3430 -0.0681
34608W        W41208  15.472   2.867   9.784  0.0462  0.1599 -0.1136
34609W        W41209  12.364   4.829   1.575  0.0003 -0.4244  0.0545
34610W        W41210  15.619   0.872   1.084  0.1473  0.1686 -0.5147
34611W        W41211  17.185   4.713   2.608 -0.0066  0.0008  0.0112
34612W        W41212  24.538   5.304  18.804  0.1849 -0.0075 -0.1615
34613W        W41213  26.180   3.143  24.324 -0.1101  0.0740  0.0927
34614W        W41214  31.273   6.350   6.958  0.2351  0.1545  0.2333
34615W        W41215  29.780   1.453   0.418 -0.2010 -0.0293 -0.0797
34616W        W41216  24.768   2.177   3.371 -0.1341  0.0576 -0.3405
34617W        W41217  25.739   1.978   3.015  0.1391 -0.1222 -0.0472
34618W        W41218  25.697   4.302  23.414 -0.1066  0.3844  0.1579
34619W        W41219  19.631   3.342   8.943  0.0346  0.2852  0.1719
34620W        W41220  21.874   2.704  25.671 -0.0338  0.1271 -0.1413
34621W        W41221  23.783   7.335  23.390  0.1913  0.0015 -0.0766
34622W        W41222  10.712   4.894  20.808 -0.0723  0.1051 -0.2345
34623W        W41223  25.674   4.971   3.312 -0.1759 -0.1665 -0.0937
34624W        W41224  26.875   2.469   5.391 -0.0855  0.0572 -0.0172
34625W        W41225   7.611   0.851   9.070 -0.0283 -0.1348 -0.0403
34626W        W41226   1.307   0.829  10.310  0.1177  0.1253 -0.0390
34627W        W41227  28.026   4.442  17.852  0.0302 -0.2812 -0.3667
34628W        W41228  14.813   5.566  25.605 -0.1480 -0.0570 -0.0180
34629W        W41229  17.011   7.313   0.112 -0.1357 -0.0261 -0.4629
34630W        W41230  30.528   5.327  22.617 -0.1770 -0.0837 -0.0550
34631W        W41231  17.103   4.339  21.166  0.0259 -0.1052 -0.0161
34632W        W41232   9.685   4.602   9.829  0.1404 -0.2384 -0.2140
34633W        W41233  30.624   4.716  23.220  0.0141 -0.1009 -0.1069
34634W        W41234   4.269   4.258  22.635  0.2507  0.0463  0.1147
34635W        W41235  27.033   6.285  17.902 -0.2260 -0.1167 -0.0137
34636W        W41236  16.475   4.253  24.480 -0.0224 -0.2241 -0.1456
34637W        W41237  29.362   4.332  21.014  0.0655 -0.1350  0.0615
34638W        W41238  29.436   0.016   2.081  0.1388 -0.1251  0.1545
34639W        W41239   5.882   3.649   9.549  0.2059 -0.0679  0.2538
34640W        W41240  22.765   5.219  11.128 -0.1647  0.0231 -0.1694
34641W        W41241  28.184   0.454   4.567  0.0977 -0.1580 -0.1249
34642W        W41242  24.738   4.826  10.092 -0.1701  0.0068  0.0527
34643W        W41243  20.888   4.654  24.745  0.1298 -0.0369 -0.3407
34644W        W41244  28.512   4.300  17.838 -0.5248  0.2557 -0.2213
34645W        W41245  24.145   2.206   6.479  0.1344 -0.1850  0.3093
34646W        W41246  22.727   2.145   9.799 -0.1021  0.0946  0.0094
34647W        W41247   2.318   3.439  15.574  0.2441  0.3664  0.3488
34648W        W41248  26.758   2.762   1.822  0.0959 -0.1097  0.1155
34649W        W41249   7.411   2.021   5.814  0.2434  0.0418 -0.1615
34650W        W41250  17.071   5.349  20.894 -0.3025  0.0035 -0.0116
34651W        W41251  31.050   7.013   5.775 -0.1077 -0.0085  0.1567
34652W        W41252  21.018   6.091  11.510 -0.2406  0.1193  0.2804
34653W        W41253   4.515   3.506   3.811 -0.2857  0.0218 -0.0521
34654W        W41254  29.610   4.280  24.963 -0.0243 -0.1705  0.2044
34655W        W41255   9.667   2.200  17.767 -0.0205  0.3581 -0.2066
34656W        W41256   6.653   6.633  10.523 -0.1887  0.2278  0.2686
34657W        W41257  28.492   1.610   8.718 -0.2670 -0.0630  0.1327
34658W        W41258  23.138   7.061   9.844 -0.1086 -0.0501 -0.0479
34659W        W41259   3.362   0.152  22.966 -0.1727  0.2262 -0.0252
34660W        W41260  29.685   4.310   9.570  0.1511  0.0379  0.0299
34661W        W41261  18.197   3.945  16.614 -0.1945 -0.0241  0.0151
34662W        W41262  19.085   7.572   0.312 -0.1733 -0.2154 -0.0450
34663W        W41263  30.431   4.475  24.623 -0.4637 -0.0994  0.1051
34664W        W41264  25.104   5.521  22.182 -0.1252 -0.2735  0.2611
34665W        W41265  24.863   7.310  22.926 -0.2234 -0.3396  0.1126
34666W        W41266  12.549   2.107   1.543 -0.0896  0.1122 -0.0481
34667W        W41267  15.062   3.155  18.009 -0.2374  0.2180 -0.2163
34668W        W41268  15.413   4.346   9.605 -0.1643 -0.2643  0.1575
34669W        W41269   7.071   3.276   0.853  0.0187  0.2444  0.2385
34670W        W41270  29.711   6.825  15.384 -0.1537  0.3201  0.0883
34671W        W41271   2.767   0.269   4.632  0.0615  0.1989 -0.0094
34672W        W41272  20.985   2.399   8.804  0.0732  0.0519 -0.0991
34673W        W41273  25.597   3.091  21.403  0.0688 -0.1174 -0.1819
34674W        W41274  12.027   4.268   9.913  0.1673 -0.0373 -0.2981
34675W        W41275   0.217   0.173  18.355  0.0154  0.0136  0.0667
34676W        W41276   1.300   0.452  23.716 -0.2976  0.0203  0.0780
34677W        W41277  27.409   0.888  16.455 -0.1494 -0.1204  0.1059
34678W        W41278  30.078   6.423   2.456  0.0300  0.2277  0.0799
34679W        W41279  10.116   7.590   6.620  0.1927  0.2093 -0.0891
34680W        W41280  30.022   2.381  24.565  0.0059  0.0759  0.3647
34681W        W41281   8.480   0.351   1.964 -0.1850 -0.2388  0.3872
34682W        W41282  29.173   2.906  17.291  0.2523 -0.1428  0.0774
34683W        W41283   0.420   7.687   4.210 -0.2828  0.2074  0.0751
34684W        W41284   7.545   4.090  10.071 -0.4891  0.0064 -0.0003
34685W        W41285   2.730   3.814  25.465  0.0913  0.2240 -0.1105
34686W        W41286   0.464   4.371   5.328 -0.1826 -0.2474  0.0421
34687W        W41287   3.375   3.763  15.549  0.3054  0.2190  0.0061
34688W        W41288   3.705   2.962  19.149 -0.0166  0.2750 -0.2682
34689W        W41289  23.971   7.390   4.263 -0.1588  0.2714  0.1670
34690W        W41290  23.562   1.506   5.078 -0.1122 -0.0514 -0.1500
34691W        W41291  17.125   5.798  20.335  0.4249  0.0710  0.0395
34692W        W41292  15.677   7.228  23.419 -0.1332  0.0493 -0.1586
34693W        W41293  12.422   6.923  10.576 -0.2036 -0.1315 -0.2386
34694W        W41294  15.217   0.629  24.332 -0.1214  0.2300  0.2571
34695W        W41295  12.537   4.794   9.240  0.1670 -0.3544  0.3631
34696W        W41296   2.157   4.436   1.378 -0.1854  0.1534  0.0955
34697W        W41297  14.872   2.539  21.374  0.0599 -0.0785  0.0232
34698W        W41298   5.583   0.971   7.675  0.0829 -0.0914 -0.0098
34699W        W41299  20.035   7.418   3.520 -0.6202 -0.0982 -0.1756
34700W        W41300   3.450   5.504   4.989  0.3990 -0.0306  0.0365
34701W        W41301  22.551   0.698  19.105  0.2635  0.0005 -0.0236
34702W        W41302  10.873   6.571   2.968 -0.1959  0.1262  0.3845
34703W        W41303  10.536   1.892   1.097  0.0216  0.2461 -0.1075
34704W        W41304  10.514   1.932  17.137  0.1330 -0.2044  0.3816
34705W        W41305  29.611   5.848  22.583 -0.0528 -0.1952  0.1064
34706W        W41306  18.122   5.936  14.887  0.0530  0.1083  0.0737
34707W        W41307   1.548   6.604   9.618 -0.0144 -0.0040 -0.1002
34708W        W41308   3.049   1.690  21.739  0.0364 -0.0087  0.1669
34709W        W41309   4.911   7.798   5.625  0.1386 -0.2914 -0.0792
34710W        W41310  24.043   0.340   2.264  0.0818  0.3518 -0.1260
34711W        W41311  28.650   4.450  10.678  0.1953 -0.0676 -0.1734
34712W        W41312   3.791   2.840  23.170  0.2180 -0.2280  0.1838
34713W        W41313   4.295   1.108  20.055 -0.0240  0.1364  0.2719
34714W        W41314   7.365   2.317   9.405  0.0800  0.0993  0.3705
34715W        W41315  18.339   3.274   2.420  0.0737 -0.1236  0.2461
34716W        W41316  21.500   7.033   3.867 -0.1117  0.0138  0.1076
34717W        W41317   0.764   5.999  10.015  0.1946 -0.1360  0.0390
34718W        W41318  18.519   5.830   9.123 -0.1115 -0.0045 -0.0882
34719W        W41319  14.461   3.543  18.413  0.0253  0.2313  0.0377
34720W        W41320   1.946   0.275  24.509  0.1573 -0.1667  0.0990
34721W        W41321  21.523   0.542  11.248  0.2487 -0.1509  0.1060
34722W        W41322   7.863   2.082   1.278 -0.1690 -0.2553 -0.0140
34723W        W41323   4.629   2.282   5.867 -0.0749  0.0246 -0.0170
34724W        W41324   7.676   2.808   4.042  0.2257 -0.1118  0.2680
34725W        W41325   8.657   3.078  20.368 -0.1256  0.0697 -0.0359
34726W        W41326  13.001   5.226   2.748 -0.1436  0.2144  0.0762
34727W        W41327   1.709   6.389  14.945 -0.0493  0.0226  0.0019
34728W        W41328   0.505   0.820  19.475  0.0555 -0.0149  0.0863
34729W        W41329  21.299   0.105   0.239 -0.0600  0.0095 -0.0277
34730W        W41330  24.082   0.663   5.588 -0.2397  0.2363  0.0326
34731W        W41331  25.927   1.438  18.502 -0.3987  0.1394 -0.2634
34732W        W41332  24.131   3.199  23.980  0.1183 -0.2555  0.0837
34733W        W41333  29.336   0.188   4.701  0.3324  0.1329  0.4918
34734W        W41334  19.588   5.906   2.392 -0.0107  0.0196 -0.2802
34735W        W41335  28.518   7.436   1.455  0.0180  0.0943  0.0771
34736W        W41336  13.767   2.062   9.160 -0.0481  0.1356  0.0867
34737W        W41337  24.639   2.924   7.862 -0.3514  0.1986  0.1045
34738W        W41338  20.272   1.985   6.385  0.1367 -0.5068 -0.1933
34739W        W41339  22.958   3.434  10.293 -0.0978 -0.4549  0.4689
34740W        W41340   8.462   6.087  19.644  0.0348  0.1638 -0.0779
34741W        W41341   9.273   1.349  21.280  0.0027 -0.0871  0.2192
34742W        W41342  17.767   5.691   6.367 -0.1751 -0.1477 -0.0070
34743W        W41343  25.445   7.771  21.828 -0.1519 -0.1982  0.1648
34744W        W41344   4.907   3.229  24.607 -0.2345 -0.0259 -0.1856
34745W        W41345   4.136   7.315  20.676 -0.1720 -0.0051  0.1272
34746W        W41346   1.013   1.398   4.703  0.1325  0.0711 -0.0274
34747W        W41347  13.347   0.154  24.775  0.1966 -0.1401 -0.1211
34748W        W41348  27.319   0.097  22.733  0.2249 -0.3550  0.3281
34749W        W41349   8.913   4.105  24.491 -0.3912  0.0706 -0.1760
34750W        W41350  28.360   1.018  21.975 -0.2865  0.1798 -0.0380
34751W        W41351  18.170   1.864  21.618  0.0315 -0.2784 -0.2088
34752W        W41352   6.526   3.264   3.212  0.5516 -0.1570 -0.1625
34753W        W41353  25.953   5.936  18.953  0.0607 -0.1081  0.2247
34754W        W41354   6.249   0.002  15.407 -0.1754  0.1391  0.0412
34755W        W41355  25.964   2.708   9.111 -0.0521  0.1966 -0.0357
34756W        W41356  29.345   6.771   4.760 -0.1038 -0.1694  0.0409
34757W        W41357  22.891   0.061   0.322  0.2143  0.0328  0.0821
34758W        W41358   8.085   1.776   2.527 -0.0680  0.0120  0.2740
34759W        W41359  27.721   7.057  23.006  0.1350 -0.1470  0.2254
34760W        W41360   5.763   6.381   6.006  0.1650 -0.1105 -0.0935
34761W        W41361   2.600   7.183  17.191  0.1093 -0.2094  0.1144
34762W        W41362   3.358   1.719  17.363  0.1959  0.1021  0.0816
34763W        W41363  26.835   0.548  18.771  0.0255 -0.1780 -0.0979
34764W        W41364   6.564   5.548   1.146 -0.0304  0.3561 -0.0299
34765W        W41365  17.981   1.629  19.171  0.0360 -0.3938 -0.1329
34766W        W41366  14.720   1.034   2.887  0.1518 -0.2310 -0.1334
34767W        W41367   2.546   3.266   1.604 -0.0187 -0.0375  0.0090
34768W        W41368  24.062   5.589   8.126  0.0262 -0.0904 -0.1586
34769W        W41369  11.463   1.924   3.157  0.1729  0.1671 -0.1059
34770W        W41370  26.707   6.870  15.629  0.1165 -0.1920  0.1116
34771W        W41371  23.264   2.844  23.036  0.0187 -0.3095  0.0493
34772W        W41372  28.208   4.321  16.246 -0.0264 -0.1056  0.2470
34773W        W41373   1.162   4.460   1.717 -0.0333  0.3158  0.0031
34774W        W41374   0.091   3.378  16.393  0.2305  0.2956 -0.0177
34775W        W41375  23.500   1.876  19.013  0.1357 -0.0991  0.0467
34776W        W41376  19.980   4.709  21.377  0.0038 -0.2164  0.3760
34777W        W41377  27.772   6.285   0.493 -0.2419  0.0042 -0.1863
34778W        W41378  11.899   7.427   1.250 -0.3629  0.1370  0.0211
34779W        W41379  11.215   3.394   8.411 -0.1903 -0.1684 -0.0056
34780W        W41380   2.693   2.350  18.219 -0.0716 -0.1666 -0.0301
34781W        W41381   7.006   3.970  21.678 -0.1947 -0.1145 -0.0109
34782W        W41382   2.494   6.338   9.828 -0.1518  0.2233 -0.2635
34783W        W41383  22.956   1.383   9.036  0.2091  0.0747  0.0067
34784W        W41384  13.207   6.232  25.410  0.0069 -0.2445  0.1028
34785W        W41385  28.273   6.231   8.639 -0.0809  0.1563 -0.0254
34786W        W41386  30.649   4.678   3.334 -0.1538 -0.2618  0.3088
34787W        W41387  12.915   1.236  16.912  0.1791 -0.2122  0.4324
34788W        W41388  29.288   6.609   3.541  0.2281  0.0703  0.0384
34789W        W41389  28.960   4.483   2.626  0.0051 -0.0677 -0.0148
34790W        W41390   9.316   0.765  19.378  0.0234  0.0052 -0.1552
34791W        W41391  18.823   0.063   4.329  0.2753 -0.2991  0.1772
34792W        W41392   5.356   3.716  16.112  0.0071  0.2909  0.1171
34793W        W41393  30.065   3.085  21.145 -0.1508  0.0452 -0.0907
34794W        W41394   1.801   6.070  23.932  0.0326  0.0664 -0.0730
34795W        W41395  17.760   2.979  16.218  0.0087 -0.2287 -0.0505
34796W        W41396  14.679   3.504  25.591  0.1015 -0.0499 -0.1282
34797W        W41397   4.312   6.496  25.677  0.4714  0.0277  0.0988
34798W        W41398  22.891   5.353  20.388 -0.0121  0.1016 -0.2307
34799W        W41399  27.308   5.067   7.487 -0.0290 -0.0758 -0.0053
34800W        W41400   5.365   6.466   3.338 -0.0580  0.0038 -0.1460
34801W        W41401  29.473   2.256  21.356  0.0853 -0.1406  0.0126
34802W        W41402  28.950   6.262  17.361  0.0388 -0.0486 -0.0909
34803W        W41403   7.050   0.509   6.446  0.1299  0.2784 -0.1261
34804W        W41404  12.354   7.667   5.695  0.1832 -0.1467  0.0089
34805W        W41405  25.204   2.287   9.136  0.3158  0.0487  0.0882
34806W        W41406  11.868   7.083   8.763  0.0151 -0.1019  0.0938
34807W        W41407  15.754   6.127  17.875  0.0311  0.3554  0.2035
34808W        W41408   2.166   7.085   1.411  0.1497 -0.1266  0.0911
34809W        W41409  14.208   4.558  15.989  0.0569 -0.1662  0.1382
34810W        W41410  16.085   4.720   1.112  0.2617 -0.1020 -0.2530
34811W        W41411  14.291   1.636  24.297 -0.0505 -0.2563 -0.1251
34812W        W41412   6.501   6.535   4.646 -0.0214  0.0126 -0.0697
34813W        W41413  19.807   5.202  17.572  0.1232 -0.1101 -0.0794
34814W        W41414  10.333   7.008   6.568 -0.0317  0.1347  0.0028
34815W        W41415  15.409   3.706   2.622  0.0057 -0.1457 -0.1609
34816W        W41416  16.785   5.454   7.723 -0.0822 -0.0061  0.3245
34817W        W41417  29.171   4.305  16.093 -0.0284 -0.1115  0.0670
34818W        W41418  11.495   6.006   1.415 -0.0576  0.0391  0.3026
34819W        W41419  14.623   6.728   8.230 -0.0543  0.0186 -0.3015
34820W        W41420  22.022   4.126  23.240  0.0232  0.0718  0.1674
34821W        W41421  28.027   5.855   9.713  0.0647  0.0213  0.1082
34822W        W41422  24.644   0.492  15.577 -0.0005 -0.0688 -0.0478
34823W        W41423   9.449   3.168   8.801 -0.0817 -0.0449 -0.1528
34824W        W41424   8.835   5.757  10.434 -0.2117  0.1944 -0.0583
34825W        W41425   2.228   3.118  18.050  0.5633 -0.0143  0.0924
34826W        W41426  13.794   0.848   1.192 -0.2606 -0.1384 -0.1665
34827W        W41427   3.771   1.622  22.179 -0.1272  0.1298  0.1529
34828W        W41428   9.983   3.364  15.384  0.1518 -0.1157 -0.2083
34829W        W41429   5.037   4.364   5.379  0.0834  0.0053 -0.3264
34830W        W41430   6.372   2.456   3.856  0.1700  0.2458  0.2136
34831W        W41431  18.242   6.771  21.359 -0.0103  0.1899 -0.1521
34832W        W41432   1.938   7.466   3.428 -0.0643  0.1008  0.1005
34833W        W41433   4.963   5.419  19.480 -0.2294 -0.1511  0.0268
34834W        W41434  22.588   1.753  17.871  0.0690 -0.0563 -0.1691
34835W        W41435   3.050   4.654   5.542  0.2139  0.1600  0.3624
34836W        W41436  29.533   5.247   0.451  0.0822  0.0443 -0.2667
34837W        W41437   3.854   1.821  20.435  0.0835  0.1083  0.2884
34838W        W41438  13.355   5.068   1.151 -0.0112  0.2215  0.0289
34839W        W41439   9.324   5.505   7.210 -0.2986 -0.1036 -0.1739
34840W        W41440   5.044   0.573  14.726  0.0539 -0.1904 -0.1876
34841W        W41441  25.892   7.182  15.968 -0.1585  0.0728  0.1708
34842W        W41442   7.795   5.708   3.227 -0.0411  0.1254 -0.2778
34843W        W41443  18.161   2.702   4.485 -0.0756  0.0098  0.0994
34844W        W41444  18.674   5.697   7.848 -0.1436  0.0493  0.0911
34845W        W41445  27.068   7.614  21.878  0.1456  0.1966 -0.0474
34846W        W41446  24.452   7.247   8.232  0.0106 -0.4737 -0.0548
34847W        W41447   0.352   0.841   4.529 -0.4501  0.1658 -0.0511
34848W        W41448   2.042   5.777   9.596 -0.2453  0.1021  0.0096
34849W        W41449   9.349   4.867   0.830  0.0840 -0.2109  0.1370
34850W        W41450  11.499   4.675   9.164 -0.0904 -0.0702 -0.0969
34851W        W41451  29.026   6.474   4.479  0.0673 -0.0609 -0.2648
34852W        W41452  12.772   7.407  20.095  0.0951 -0.0238 -0.1470
34853W        W41453   1.509   6.550   3.532 -0.1398 -0.2767  0.0943
34854W        W41454   0.707   7.641  14.514 -0.0749  0.2371 -0.1588
34855W        W41455  30.422   2.809   5.716 -0.2983  0.0753  0.0198
34856W        W41456  22.144   3.438  10.081 -0.1641 -0.2295 -0.0097
34857W        W41457  19.548   2.765  16.585 -0.0672 -0.1579  0.2908
34858W        W41458   7.024   6.487   9.133  0.0429  0.2182  0.1136
34859W        W41459   4.306   4.493  25.263  0.1475 -0.1517 -0.0540
34860W        W41460  27.372   4.609   0.664  0.0643 -0.0957 -0.1063
34861W        W41461  29.876   7.569   9.493  0.2625 -0.2022  0.1373
34862W        W41462  31.351   7.227  15.148 -0.0616 -0.0830  0.0646
34863W        W41463   6.070   6.217  17.583  0.3793  0.1453  0.0124
34864W        W41464  11.134   1.519   1.929  0.0329 -0.2597 -0.2294
34865W        W41465  30.260   2.683  21.402 -0.2937  0.0203  0.1011
34866W        W41466   2.011   7.444   4.756  0.0069  0.0599  0.4389
34867W        W41467  28.356   0.535   6.958 -0.0529 -0.0112 -0.3233
34868W        W41468  17.269   3.901  20.809 -0.1462  0.1224 -0.5017
34869W        W41469   8.115   4.660  17.164 -0.1891 -0.0738 -0.0364
34870W        W41470   1.691   2.897   4.395  0.1449  0.2351  0.2879
34871W        W41471  26.594   3.724  18.032  0.1648  0.2359  0.1821
34872W        W41472  17.107   3.449  16.580  0.0282 -0.0326  0.2594
34873W        W41473   1.575   3.930  24.890  0.0535  0.0396  0.0923
34874W        W41474   7.124   1.636   7.432 -0.1180  0.1618 -0.1065
34875W        W41475   4.854   5.355  22.526  0.2046  0.0325 -0.2366
34876W        W41476  22.232   0.314   2.773  0.2878  0.1097 -0.2045
34877W        W41477  11.757   3.095  16.779  0.3293 -0.1537  0.1208
34878W        W41478  13.327   0.565   6.689 -0.0333  0.1327  0.0447
34879W        W41479  29.181   6.075  22.864  0.0971  0.1695  0.0082
34880W        W41480   5.459   1.976  20.777  0.0082  0.2299  0.1888
34881W        W41481  19.069   1.203   6.799 -0.0208  0.2454 -0.0249
34882W        W41482   7.236   7.250   3.486 -0.3665 -0.0679 -0.3640
34883W        W41483   0.997   0.019   9.780  0.1063  0.2384  0.0567
34884W        W41484  17.713   4.958   7.254 -0.3931 -0.2309 -0.0522
34885W        W41485   3.888   2.358  20.101 -0.1439  0.1157 -0.2300
34886W        W41486   9.925   5.925   9.708  0.0786 -0.0969  0.2319
34887W        W41487   6.980   4.553  21.886  0.2542 -0.1330 -0.0982
34888W        W41488  21.285   5.711   8.764  0.0411  0.4108  0.0392
34889W        W41489   7.667   5.163  24.061  0.2240  0.1245  0.1557
34890W        W41490  26.732   5.173  10.345 -0.0136  0.2833 -0.3331
34891W        W41491  27.316   6.437   7.523 -0.3705 -0.1304 -0.3077
34892W        W41492  23.917   0.684  24.567  0.0786 -0.3551 -0.3129
34893W        W41493  12.878   5.987  20.583  0.3355  0.0028  0.2192
34894W        W41494  17.530   0.965  23.018 -0.0376  0.0723  0.0770
34895W        W41495  22.810   3.410   5.702 -0.2043 -0.2129  0.0472
34896W        W41496  22.666   5.253   5.208  0.1263  0.0874  0.0215
34897W        W41497  12.150   3.650   8.474 -0.1007  0.3108  0.0768
34898W        W41498  10.368   3.706  17.166  0.0629  0.0063 -0.4754
34899W        W41499   7.745   6.481  23.104  0.0960 -0.1468  0.0616
34900W        W41500  30.522   0.190   9.340  0.1169  0.0366  0.0556
34901W        W41501   0.203   4.608  14.093  0.5060 -0.0262  0.6296
34902W        W41502  20.083   6.080  16.079 -0.0159 -0.2768  0.0518
34903W        W41503  16.816   6.901  25.745 -0.2078  0.3032  0.3886
34904W        W41504   2.518   1.116   4.658 -0.1931 -0.0527 -0.0257
34905W        W41505   8.384   5.569   6.821  0.2435 -0.2486 -0.1367
34906W        W41506   6.464   5.698   2.036  0.2363  0.2941 -0.0386
34907W        W41507  17.423   4.616  19.415 -0.1089  0.0048  0.0337
34908W        W41508  23.957   2.575  19.418 -0.0493 -0.2151  0.1791
34909W        W41509  15.224   4.733  17.284 -0.2380  0.2285 -0.2012
34910W        W41510   4.342   5.566   6.800  0.1646  0.0131 -0.4480
34911W        W41511  27.883   3.582   9.267 -0.0771  0.1034  0.0532
34912W        W41512   5.677   7.857  24.812 -0.0056 -0.0613 -0.2756
34913W        W41513   9.744   1.289   1.127  0.3171 -0.2792  0.0267
34914W        W41514  11.449   5.831  24.721 -0.4056 -0.2499  0.1114
34915W        W41515   4.980   5.782  22.267  0.1349 -0.1128  0.2775
34916W        W41516   9.705   3.036  18.714  0.2331 -0.0115 -0.1856
34917W        W41517  17.482   5.648   3.609  0.2283 -0.1951 -0.0832
34918W        W41518  29.893   3.055  23.698  0.0767  0.3435  0.0469
34919W        W41519  21.695   1.014  22.263  0.0634  0.2118 -0.0053
34920W        W41520   3.515   5.290  10.185  0.1614 -0.0268  0.1446
34921W        W41521   9.025   4.078   9.685 -0.0678 -0.0645 -0.3173
34922W        W41522  10.277   3.240  18.586  0.2404 -0.0846 -0.0635
34923W        W41523  12.839   1.903   8.873 -0.3929 -0.0417 -0.0998
34924W        W41524  26.210   6.443  19.050 -0.2495  0.1355  0.3056
34925W        W41525  17.556   1.200  16.215  0.1285  0.2549 -0.2340
34926W        W41526  25.272   7.825  10.346 -0.2403  0.0036 -0.2915
34927W        W41527  11.692   4.259   3.372  0.1894  0.0148  0.1219
34928W        W41528  11.525   6.546  19.960 -0.3137 -0.2414  0.2191
34929W        W41529   5.613   0.424   4.039  0.1984 -0.0640 -0.0042
34930W        W41530  12.151   1.842  21.216 -0.0129 -0.0272  0.2970
34931W        W41531   3.946   4.387  16.921 -0.1242  0.1367 -0.2178
34932W        W41532  15.614   6.643   0.066  0.2824  0.1054  0.0188
34933W        W41533   2.324   6.786   9.324  0.1123  0.3996 -0.1592
34934W        W41534  10.244   7.317  23.276 -0.1544  0.0111 -0.0613
34935W        W41535  24.926   1.722  20.626 -0.1787 -0.0011 -0.1318
34936W        W41536   6.347   0.557   8.637  0.0544  0.0766 -0.0651
34937W        W41537   8.944   1.637  16.709 -0.5334 -0.1661  0.1078
34938W        W41538   8.458   2.349  10.480 -0.0474 -0.1196  0.1029
34939W        W41539   7.585   2.824  25.703 -0.2150  0.0524 -0.2543
34940W        W41540   9.936   4.854  19.858 -0.0175 -0.1196  0.1788
34941W        W41541  24.267   0.257   8.286 -0.2553 -0.0216 -0.0116
34942W        W41542   6.383   7.229  21.405 -0.0604  0.0826 -0.2055
34943W        W41543  15.503   1.483   0.233 -0.0047  0.1725  0.0858
34944W        W41544  11.033   6.063   2.859  0.0862  0.0179 -0.0083
34945W        W41545   2.135   7.311   6.498  0.1602  0.0390  0.0969
34946W        W41546   2.218   3.222  22.657  0.1546 -0.1389  0.0788
34947W        W41547  21.928   7.228   7.986  0.2802  0.2698 -0.1258
34948W        W41548  30.057   5.633  22.697 -0.3472 -0.2404  0.1447
34949W        W41549  17.750   1.393   7.743  0.2507  0.0440 -0.0905
34950W        W41550  16.947   6.138   7.142 -0.1447  0.2974  0.0429
34951W        W41551   5.753   2.773   2.405 -0.2263 -0.1280  0.2892
34952W        W41552  26.946   1.651  24.079  0.2116 -0.1195 -0.0047
34953W        W41553  15.240   0.396  16.568  0.0544 -0.2468 -0.0783
34954W        W41554  21.467   6.927  24.879  0.3428 -0.1575 -0.1081
34955W        W41555  24.727   5.505  25.334  0.4066  0.0482 -0.1303
34956W        W41556  13.120   3.303  25.122  0.1566 -0.1632  0.1597
34957W        W41557  11.824   3.273   6.245  0.0019 -0.1117  0.2251
34958W        W41558  14.931   0.868   6.312 -0.0756  0.1547  0.2034
34959W        W41559   5.212   2.486   0.299 -0.3008  0.1919  0.1174
34960W        W41560   6.530   2.353  10.516  0.0703  0.0403 -0.2033
34961W        W41561   8.234   0.566   3.983  0.1967 -0.0185  0.1025
34962W        W41562  26.341   3.921   4.189  0.0800  0.1533 -0.1753
34963W        W41563   2.570   6.927   5.683 -0.0486  0.0885  0.0617
34964W        W41564  13.070   0.763   1.807  0.0353 -0.0401 -0.3357
34965W        W41565  18.545   3.026   7.931 -0.2279 -0.0889 -0.1116
34966W        W41566  22.378   2.555   9.873  0.0435 -0.2507  0.2562
34967W        W41567  23.364   5.539   6.446  0.2994 -0.0422  0.0313
34968W        W41568  26.987   1.356  18.381  0.0993 -0.0009 -0.1186
34969W        W41569  10.821   3.667  17.939 -0.3008  0.0533 -0.0201
34970W        W41570  19.878   1.920  24.798 -0.1289  0.1063 -0.2337
34971W        W41571  27.279   6.403  23.446 -0.2362 -0.0711  0.3947
34972W        W41572   3.698   7.012   5.777 -0.2843  0.0850  0.0876
34973W        W41573   7.888   2.479   7.656 -0.1147  0.3063  0.5498
34974W        W41574  30.319   2.288   0.735  0.2438  0.0390 -0.0085
34975W        W41575  25.516   3.188  25.787 -0.1029 -0.0511  0.0676
34976W        W41576  12.001   3.271   5.756  0.0066  0.0895 -0.2593
34977W        W41577   1.777   2.745   6.725 -0.0881  0.1114 -0.1943
34978W        W41578   3.195   4.805  24.350  0.0424 -0.0347  0.2203
34979W        W41579  12.029   3.486  17.758  0.1934 -0.0651 -0.1614
34980W        W41580   5.320   3.296   0.701  0.0890  0.0652 -0.1126
34981W        W41581   8.631   2.702   5.436  0.1338  0.2249 -0.0171
34982W        W41582  27.186   5.726  17.771 -0.0199  0.2945  0.0274
34983W        W41583  12.716   5.411  22.982 -0.1708 -0.1168 -0.1075
34984W        W41584  10.432   4.389   0.439  0.0431  0.1067 -0.1634
34985W        W41585  30.570   3.208  15.123  0.1259 -0.2625 -0.0362
34986W        W41586  18.169   2.048   6.317  0.0345 -0.1056  0.0831
34987W        W41587   2.768   7.273  24.305  0.1513  0.0517  0.3136
34988W        W41588  13.979   5.899  25.221 -0.1732 -0.0400  0.0358
34989W        W41589  31.030   2.482  22.602  0.0708 -0.1050  0.1611
34990W        W41590  23.178   2.984  18.916 -0.1172 -0.1689 -0.0028
34991W        W41591   3.975   7.760  16.904  0.1106 -0.1616 -0.0508
34992W        W41592   4.708   3.680   7.824  0.0072 -0.2674  0.1440
34993W        W41593  22.168   5.995   7.056 -0.1581  0.0772  0.1809
34994W        W41594   6.417   6.783   7.444 -0.0122 -0.1473 -0.1838
34995W        W41595   5.935   5.746  17.512 -0.0482  0.3773  0.1378
34996W        W41596  30.802   5.650  15.751  0.0537 -0.0689  0.0135
34997W        W41597   7.751   4.750  19.557  0.2993 -0.0287  0.0229
34998W        W41598  21.437   4.228   4.419 -0.0995  0.1016  0.2714
34999W        W41599   6.025   4.322   5.948  0.0535  0.1350  0.0947
35000W        W41600   7.263   0.974   2.631 -0.0097  0.0719 -0.3914
35001W        W41601   7.279   2.154   9.869  0.1489 -0.3501 -0.2510
35002W        W41602  15.980   0.964  23.746 -0.1352  0.1304 -0.1356
35003W        W41603  16.982   4.743   0.969 -0.1183 -0.0088 -0.0463
35004W        W41604   3.603   6.467   7.276  0.4027  0.0224 -0.0846
35005W        W41605   6.365   5.637  21.457  0.2730 -0.0769  0.2665
35006W        W41606  19.576   2.921   6.396  0.5047  0.0044 -0.3189
35007W        W41607  15.482   2.364  22.344  0.0056 -0.1128 -0.0604
35008W        W41608  31.427   4.301   0.328  0.0961 -0.0272  0.3162
35009W        W41609   7.833   4.744  20.524 -0.3207  0.2233  0.0449
35010W        W41610   6.713   5.793   0.167 -0.1248 -0.1994 -0.1802
35011W        W41611  26.825   4.877  17.654  0.1276  0.0404  0.0609
35012W        W41612  27.795   2.731   9.102 -0.1359  0.1048  0.0591
35013W        W41613   4.015   4.330  22.072 -0.0673  0.4657  0.1394
35014W        W41614  21.665   4.904  17.093 -0.1571 -0.0347 -0.2294
35015W        W41615  18.472   0.999  16.908 -0.3866  0.1439 -0.0987
35016W        W41616  21.454   2.350  15.230  0.0674 -0.2452  0.4667
35017W        W41617  18.818   3.657   4.523  0.0298 -0.0554  0.1756
35018W        W41618  13.647   2.011   9.950  0.0177  0.0899 -0.0699
35019W        W41619  19.778   7.708   2.015  0.1102 -0.0458 -0.2501
35020W        W41620   8.811   0.737   2.224  0.3486 -0.1620  0.3885
35021W        W41621  25.034   7.565  24.513 -0.0465  0.1151 -0.0052
35022W        W41622   2.307   2.223   8.686 -0.1041 -0.0215 -0.4373
35023W        W41623   9.336   6.873   2.501  0.1625  0.0606  0.2373
35024W        W41624  23.002   6.464   6.828  0.3548  0.1814  0.1429
35025W        W41625  15.651   4.873  25.934 -0.0486  0.1732 -0.1186
35026W        W41626   3.376   0.667   7.860  0.2127 -0.3341  0.0495
35027W        W41627  22.052   5.866   1.454  0.2362  0.3590  0.3096
35028W        W41628   4.296   6.306  15.472  0.0946 -0.2576 -0.2684
35029W        W41629   0.092   2.259   5.595 -0.1080  0.1473  0.1060
35030W        W41630  29.039   1.738  16.334  0.0922 -0.0268  0.1604
35031W        W41631  16.544   4.448   5.796 -0.2689  0.3554 -0.1232
35032W        W41632  26.979   7.526   9.972 -0.0739 -0.1162 -0.1420
35033W        W41633  29.886   7.674  21.346 -0.2128 -0.0762  0.1355
35034W        W41634  19.930   1.842   3.286 -0.0215 -0.2134  0.1315
35035W        W41635  30.566   3.819   4.971 -0.0800  0.0347 -0.1951
35036W        W41636  27.828   5.729   3.314 -0.0325  0.0996 -0.0869
35037W        W41637   8.502   3.681   6.506 -0.0180 -0.0327  0.0507
35038W        W41638   6.479   4.027   1.847 -0.2811 -0.0053  0.1519
35039W        W41639  14.427   5.153   4.489 -0.0968 -0.1170 -0.1502
35040W        W41640  25.162   0.812   8.722 -0.0574 -0.0595  0.0371
35041W        W41641  27.900   2.092   6.305 -0.0472 -0.3665 -0.2219
35042W        W41642  12.607   1.585  25.556 -0.1535  0.0939 -0.1442
35043W        W41643   5.394   7.239   4.483 -0.0624  0.3454  0.2170
35044W        W41644   7.643   5.968  25.096 -0.0472 -0.0581 -0.0245
35045W        W41645  18.651   4.338  10.323 -0.1012 -0.0709  0.1153
35046W        W41646   8.078   7.041  10.914 -0.3092  0.0032 -0.0227
35047W        W41647  13.240   4.086   9.312  0.2066  0.1466 -0.2735
35048W        W41648  30.831   4.242   6.712  0.0691  0.0794  0.0336
35049W        W41649  10.487   3.145   2.168  0.1606 -0.0920 -0.0097
35050W        W41650  24.209   1.764   1.337  0.1439  0.1540  0.0010
35051W        W41651   7.930   4.782   7.654 -0.1096 -0.1779 -0.3872
35052W        W41652  26.906   5.214  21.752 -0.1314 -0.1186 -0.3043
35053W        W41653  28.306   5.343   6.610 -0.4021  0.0981  0.1096
35054W        W41654  22.340   7.807   6.043  0.0828 -0.2428 -0.1874
35055W        W41655   7.095   0.801  10.367 -0.0774  0.2790  0.0325
35056W        W41656  27.925   5.960  20.758 -0.1112 -0.2430 -0.1100
35057W        W41657  10.226   7.619  17.954  0.0128  0.1988  0.1625
35058W        W41658   2.003   6.101   5.823  0.1074 -0.1883  0.1937
35059W        W41659  23.354   6.631  24.941 -0.0084  0.2227 -0.2284
35060W        W41660  27.514   2.144  20.423 -0.3383 -0.2867 -0.1259
35061W        W41661  18.202   4.274  23.075 -0.2327  0.0383 -0.0039
35062W        W41662   7.600   5.085  22.670  0.0518  0.0148  0.0437
35063W        W41663   5.720   2.121  10.627  0.0360  0.3643  0.0698
35064W        W41664  18.672   4.314  25.559 -0.2405 -0.5065  0.1568
35065W        W41665   5.304   1.374   6.595 -0.1921  0.1645  0.2814
35066W        W41666   5.526   5.286   3.584  0.0443 -0.3443 -0.0481
35067W        W41667  28.645   3.771  23.555 -0.1402 -0.3355  0.0965
35068W        W41668   1.276   3.105   5.177 -0.0728 -0.0838 -0.1153
35069W        W41669   8.462   7.724  25.209 -0.1748 -0.2266  0.1588
35070W        W41670  13.276   3.320   9.342 -0.2105  0.2069 -0.2711
35071W        W41671  25.913   0.596  25.939 -0.0093  0.0695  0.2398
35072W        W41672  28.003   0.658  22.119 -0.0572 -0.1637  0.1675
35073W        W41673  24.832   1.520   3.383 -0.0401  0.1470  0.0755
35074W        W41674  23.577   5.021   2.382  0.0175 -0.1874  0.0550
35075W        W41675  21.009   3.913   7.122 -0.1346  0.1025 -0.0577
35076W        W41676  16.318   6.099   9.326 -0.2047  0.1897  0.1302
35077W        W41677  16.650   3.939   5.559 -0.2369 -0.2296  0.5195
35078W        W41678  22.342   0.731   5.771 -0.0548 -0.2785  0.1023
35079W        W41679   8.149   1.174  17.948  0.1421  0.2359  0.2001
35080W        W41680  12.172   0.921  25.422  0.1002  0.2057  0.1270
35081W        W41681  29.489   2.628   0.452 -0.0910 -0.0867 -0.1367
35082W        W41682  22.083   6.949  19.376  0.2164  0.1057  0.3982
35083W        W41683  12.506   0.953   6.960  0.4272 -0.3535  0.8237
35084W        W41684   6.377   2.521  25.625 -0.1020 -0.1568  0.2541
35085W        W41685  10.491   6.895  21.489  0.0179  0.1444  0.3655
35086W        W41686   6.514   4.396   8.739  0.3034  0.1043  0.3061
35087W        W41687  13.389   6.331  21.889  0.0548  0.1231  0.1253
35088W        W41688  15.524   0.159   2.669 -0.2829  0.0078 -0.2297
35089W        W41689  14.999   2.564   1.902  0.3404 -0.3195 -0.1025
35090W        W41690  17.843   6.138  25.372  0.0825  0.4534  0.1770
35091W        W41691  25.918   3.439  25.665 -0.2492  0.0084 -0.2369
35092W        W41692  23.498   0.396  19.403 -0.4430  0.1085  0.1107
35093W        W41693   7.279   5.556   4.277  0.2372 -0.2997  0.0612
35094W        W41694  22.166   5.184   8.137 -0.0261 -0.1460 -0.0889
35095W        W41695  31.104   1.377  15.067  0.0191  0.1496 -0.2727
35096W        W41696  10.754   6.216  14.940  0.2519 -0.0704  0.1186
35097W        W41697   7.106   4.801   7.180 -0.0500 -0.0605  0.0152
35098W        W41698   6.025   1.334  18.055  0.1201 -0.2834 -0.1464
35099W        W41699  24.347   7.418  21.258 -0.0842 -0.1858  0.1706
35100W        W41700  18.695   0.204   5.664 -0.0754  0.3190  0.0736
35101W        W41701   3.411   3.479  19.220 -0.1457  0.3561 -0.0949
35102W        W41702  28.365   0.859  23.372 -0.1567 -0.2080  0.1395
35103W        W41703  20.234   2.595  20.935 -0.0243 -0.1154  0.1269
35104W        W41704  30.392   6.805   3.073  0.4002 -0.4172  0.0594
35105W        W41705   7.610   6.196   5.441  0.0796  0.2155 -0.1321
35106W        W41706   0.441   4.265   8.181 -0.2836 -0.1417 -0.0095
35107W        W41707   6.115   3.827  16.535  0.0246  0.4725 -0.1934
35108W        W41708  16.646   2.468  22.283 -0.0828 -0.0831 -0.3269
35109W        W41709   4.010   4.903  15.666  0.0838 -0.0501  0.1431
35110W        W41710  18.288   6.789  15.998 -0.0537  0.0459  0.1748
35111W        W41711  20.778   3.918   9.177 -0.0967  0.1084 -0.1101
35112W        W41712   4.423   3.428  23.206 -0.1874 -0.2124  0.0009
35113W        W41713   0.884   4.777  14.953  0.2259 -0.2185  0.2175
35114W        W41714  17.654   7.024  18.593  0.1079  0.1635  0.0480
35115W        W41715  14.215   5.564  10.715  0.0138 -0.0284  0.0606
35116W        W41716  16.934   3.838  19.939 -0.3639 -0.1487  0.0820
35117W        W41717  24.649   2.145   9.254 -0.2690  0.1535 -0.0519
35118W        W41718  16.351   6.555   8.828 -0.0981 -0.4052 -0.1418
35119W        W41719  15.665   5.321  25.069  0.3153 -0.1579 -0.1641
35120W        W41720  17.144   6.857   7.288  0.2889  0.0041  0.0521
35121W        W41721   7.160   4.296   1.943  0.0392 -0.2553 -0.0686
35122W        W41722  31.315   7.397  22.944 -0.2608  0.3084 -0.0658
35123W        W41723  18.453   3.930  19.723  0.0038 -0.0660  0.3236
35124W        W41724  27.553   0.171  20.549  0.0386 -0.2288  0.2033
35125W        W41725  13.888   7.330  24.659 -0.5117  0.2199 -0.0466
35126W        W41726  17.001   2.437   4.981 -0.1348 -0.0359  0.0651
35127W        W41727   9.610   4.442   8.165 -0.3711  0.3727  0.0778
35128W        W41728   1.903   5.698  16.663  0.2475  0.1916 -0.1234
35129W        W41729   8.372   4.034   0.098  0.0549 -0.1665  0.3204
35130W        W41730  14.550   1.017  11.085 -0.0007 -0.0213  0.0808
35131W        W41731  17.789   3.882  10.169  0.0592 -0.2573  0.1486
35132W        W41732  19.893   0.705   1.994  0.0725 -0.0423 -0.1554
35133W        W41733   1.876   4.912  23.255 -0.0456 -0.0965  0.0986
35134W        W41734   1.492   2.549  14.334 -0.2996  0.1156  0.3861
35135W        W41735  20.235   2.056  21.718  0.0150 -0.1320  0.2468
35136W        W41736  22.873   5.623   0.989 -0.0167 -0.1396  0.4303
35137W        W41737  28.971   6.142  25.681 -0.0847 -0.1126  0.0518
35138W        W41738  27.454   6.778  19.216 -0.0945  0.0026  0.3323
35139W        W41739  30.127   4.042  19.674  0.0261 -0.2401 -0.1302
35140W        W41740  20.529   2.280  16.112 -0.0029  0.2969  0.1041
35141W        W41741  24.332   6.501   8.517  0.1585 -0.0770  0.0789
35142W        W41742  26.030   3.975   9.101  0.0504  0.0020 -0.1580
35143W        W41743  15.242   5.608   3.756  0.2799  0.1245 -0.0212
35144W        W41744   7.122   5.191  21.864  0.1169  0.0401  0.2547
35145W        W41745  11.934   2.654   7.380 -0.1870 -0.3217  0.1327
35146W        W41746  17.456   2.585  19.405  0.1959  0.2349  0.1239
35147W        W41747  18.540   2.789  18.605  0.0900 -0.1435 -0.0376
35148W        W41748  14.934   5.522   5.075 -0.0448 -0.1045  0.0986
35149W        W41749   1.643   2.788   5.193 -0.2800 -0.0413 -0.2765
35150W        W41750   4.841   0.027  24.201  0.0163  0.0328  0.3388
35151W        W41751   3.827   3.875   9.190 -0.0489  0.1772  0.4165
35152W        W41752  27.966   0.353   7.715  0.0454  0.1159  0.2918
35153W        W41753  24.762   4.247   1.741 -0.1362  0.1379 -0.1162
35154W        W41754   2.654   4.003  24.125 -0.0975 -0.1491  0.0510
35155W        W41755   0.665   6.812   3.192 -0.1142  0.0886  0.0944
35156W        W41756  31.284   6.101  25.003 -0.2603  0.0286 -0.0772
35157W        W41757   9.769   5.479   9.561  0.1232 -0.1248  0.2387
35158W        W41758  31.283   2.817   6.208  0.0713  0.1505  0.2854
35159W        W41759  10.549   4.422  22.523  0.0955 -0.3341 -0.3400
35160W        W41760  22.229   5.733   8.354 -0.1661 -0.1867 -0.0407
35161W        W41761  29.222   2.666  25.527 -0.0520 -0.1875 -0.0267
35162W        W41762  17.622   0.719  19.572 -0.3056 -0.1707  0.1771
35163W        W41763  19.255   4.113  21.407 -0.0417  0.1239  0.0887
35164W        W41764  21.960   5.152  11.069 -0.0242  0.1348 -0.0040
35165W        W41765   9.191   6.623  15.128  0.1325  0.2294 -0.2354
35166W        W41766   8.075   5.373  15.969  0.0350  0.3347 -0.0003
35167W        W41767  15.471   7.128   0.366  0.3087 -0.1888 -0.0725
35168W        W41768  26.531   4.616  16.024  0.3392  0.2671  0.0306
35169W        W41769   9.204   5.156   6.332  0.0168 -0.2476 -0.1537
35170W        W41770  25.409   3.552  23.059  0.3049  0.3185 -0.1912
35171W        W41771   4.256   4.081   0.382  0.0518  0.0613  0.0598
35172W        W41772  14.087   5.939   6.953 -0.0596  0.0086 -0.0806
35173W        W41773   0.135   2.578   0.222 -0.1495 -0.1925 -0.0618
35174W        W41774   2.183   4.462  15.624 -0.0038  0.1240  0.2379
35175W        W41775   0.733   7.725  17.964 -0.2068 -0.4904 -0.1024
35176W        W41776   6.710   5.139  25.142 -0.1188  0.0497 -0.0758
35177W        W41777   0.275   1.994   9.293 -0.4395 -0.0745  0.1127
35178W        W41778  18.270   6.189   4.949  0.0383  0.1742 -0.0145
35179W        W41779  19.217   0.636  21.668  0.2165 -0.2894  0.0950
35180W        W41780  25.847   5.504  22.616 -0.0923 -0.2471  0.2980
35181W        W41781  15.869   3.980  16.999  0.1487 -0.5108  0.2678
35182W        W41782   1.868   7.386  18.116 -0.0222 -0.0257 -0.1043
35183W        W41783  22.069   0.459  21.717 -0.0994  0.0462  0.0847
35184W        W41784  15.558   2.464  20.969  0.3238 -0.4753 -0.0530
35185W        W41785  11.424   2.557   2.244 -0.1730  0.1149  0.2975
35186W        W41786   8.880   0.884   2.776  0.3991  0.0303 -0.1788
35187W        W41787   0.771   0.875   4.190  0.0570  0.1626  0.0427
35188W        W41788  16.071   1.858   8.953 -0.2498 -0.2482 -0.0883
35189W        W41789  22.707   6.469  15.476  0.1272  0.3003  0.1695
35190W        W41790   6.895   2.394  15.849 -0.0101  0.1132  0.2378
35191W        W41791  27.275   7.476  20.446  0.3188  0.2272  0.0679
35192W        W41792  14.419   5.150  17.001  0.2597  0.2119 -0.1638
35193W        W41793  29.236   1.469  21.779  0.1280 -0.0909 -0.0382
35194W        W41794   5.217   3.465  16.505  0.0997 -0.1571 -0.0142
35195W        W41795   5.234   3.171   7.374  0.0400  0.5022  0.3823
35196W        W41796  31.414   5.890   2.638 -0.3136 -0.0844 -0.1019
35197W        W41797  10.672   5.825  18.635  0.1857 -0.2160 -0.0074
35198W        W41798  11.103   6.526  24.109 -0.2085  0.0102  0.1694
35199W        W41799  27.777   1.886   1.768  0.0313 -0.0849 -0.2317
35200W        W41800  28.812   4.333   5.595 -0.2055  0.2061  0.1749
35201W        W41801  25.720   2.833  26.071  0.3413  0.1352 -0.1152
35202W        W41802  25.726   5.302  15.837  0.2402 -0.1859 -0.0410
35203W        W41803  24.784   2.480   7.725 -0.1471  0.1068 -0.1052
35204W        W41804  25.373   7.494  20.854  0.0607  0.2630 -0.0787
35205W        W41805  20.798   1.418  20.580 -0.2456  0.1254  0.0303
35206W        W41806  22.608   5.516   8.677  0.1677 -0.1321  0.1041
35207W        W41807  11.590   5.354  11.371  0.1138  0.0301  0.3060
35208W        W41808   1.580   7.274   6.640 -0.3151 -0.0797  0.0084
35209W        W41809  16.556   6.671   5.940 -0.1930  0.0695  0.2090
35210W        W41810   5.197   3.458  19.569  0.0573  0.0264  0.3382
35211W        W41811  18.979   3.809  17.145 -0.3694  0.1232 -0.3021
35212W        W41812  26.537   6.150  22.107 -0.0519 -0.1797  0.1368
35213W        W41813  23.692   6.188   8.395 -0.2371 -0.1838  0.3260
35214W        W41814  16.943   0.053   9.595  0.0010  0.0486 -0.1749
35215W        W41815  21.165   3.793  11.323 -0.0887 -0.1787  0.2904
35216W        W41816  29.155   1.840  21.414  0.1519  0.0144 -0.0316
35217W        W41817   8.120   4.694  15.533  0.1924  0.0508 -0.3105
35218W        W41818  12.680   1.762  22.321  0.1546  0.3657 -0.0436
35219W        W41819  13.131   4.859   5.442 -0.1957 -0.0994  0.1622
35220W        W41820  20.844   4.487   5.784 -0.1449  0.1095  0.1989
35221W        W41821  19.543   3.857   8.754 -0.4160  0.0062  0.6590
35222W        W41822  15.028   1.525   3.740 -0.0113 -0.1730 -0.0790
35223W        W41823  26.789   4.866  20.447  0.0307  0.0227  0.0626
35224W        W41824  21.920   0.541  18.058  0.1718 -0.0430 -0.0205
35225W        W41825  24.869   4.422   9.687  0.1834  0.0680  0.0119
35226W        W41826  29.291   0.413  19.978 -0.1513 -0.1265 -0.2961
35227W        W41827  19.871   4.368   7.250 -0.1932  0.1260  0.2098
35228W        W41828   4.062   0.724   3.348 -0.2624 -0.2779  0.2941
35229W        W41829  24.772   2.648  18.050  0.0541 -0.2122 -0.1057
35230W        W41830   7.025   7.363   6.323  0.0661  0.1286 -0.0789
35231W        W41831  26.431   1.653  10.579 -0.0943 -0.0680 -0.0059
35232W        W41832   1.536   6.529   7.262  0.0555  0.0286  0.0003
35233W        W41833   5.699   6.925  21.642  0.1440  0.0624 -0.2426
35234W        W41834   0.162   7.200   8.140  0.1801 -0.2363 -0.5265
35235W        W41835  20.303   2.867  18.875 -0.0777 -0.0021 -0.0632
35236W        W41836   5.865   2.891  10.251  0.0375  0.0219  0.1665
35237W        W41837  14.954   5.734  24.020 -0.1375 -0.2553  0.1528
35238W        W41838   0.672   3.994   4.449  0.1361 -0.1129 -0.0577
35239W        W41839  12.196   0.375  10.870 -0.1893 -0.1771 -0.2620
35240W        W41840  24.993   0.216  21.697 -0.1115  0.1124 -0.1983
35241W        W41841  16.424   2.659   7.310  0.1800 -0.3414 -0.2077
35242W        W41842  30.094   4.648   5.187  0.1366  0.0163  0.2001
35243W        W41843  27.371   4.871  18.706 -0.1465  0.0727  0.1968
35244W        W41844   7.355   1.704  22.264  0.2571  0.0917  0.0933
35245W        W41845   7.762   1.987  23.458 -0.1200  0.0350  0.2403
35246W        W41846  25.008   3.391  22.024  0.0154 -0.0689  0.1669
35247W        W41847  25.435   0.987  20.743  0.0019  0.2328 -0.3608
35248W        W41848   6.388   5.555  17.791 -0.0648  0.2714  0.0063
35249W        W41849  29.639   4.061  20.703 -0.1394 -0.1316  0.3689
35250W        W41850   2.946   3.739   8.865 -0.2073  0.0864 -0.0631
35251W        W41851   6.008   1.581  20.768 -0.1620  0.1017 -0.1506
35252W        W41852  17.438   5.540   6.751 -0.1321 -0.0177 -0.1714
35253W        W41853  27.760   3.351  23.549  0.0154 -0.0621 -0.0089
35254W        W41854  16.165   3.746  21.564 -0.3118 -0.1311 -0.2746
35255W        W41855  25.907   5.178   3.721 -0.1300  0.1464  0.3580
35256W        W41856  10.297   1.194  16.923 -0.1154 -0.2022 -0.0395
35257W        W41857  18.924   2.049  20.659  0.1853  0.1098  0.0600
35258W        W41858   6.404   2.951   2.690 -0.0271 -0.1311 -0.1423
35259W        W41859  12.125   3.874  18.939 -0.0914  0.2657 -0.2305
35260W        W41860   6.544   7.185  20.846  0.0167  0.1026 -0.0247
35261W        W41861  21.187   2.979   3.067  0.1198 -0.3334  0.3079
35262W        W41862   3.552   0.943   8.789  0.2929  0.3607 -0.0034
35263W        W41863  21.029   4.737  17.704  0.3189 -0.1055 -0.0520
35264W        W41864   6.966   1.043  20.219 -0.0090 -0.1108  0.1316
35265W        W41865  21.967   2.736  17.223 -0.2033 -0.3034 -0.0961
35266W        W41866  10.846   2.185   7.903  0.2970 -0.2265 -0.0864
35267W        W41867  22.348   2.465  20.693 -0.0734 -0.0941 -0.1629
35268W        W41868  18.563   2.492   6.904  0.1044 -0.0978 -0.3103
35269W        W41869   1.757   1.647   7.670  0.1750 -0.2337 -0.1904
35270W        W41870   6.837   0.946  19.170 -0.1329  0.0693  0.0825
35271W        W41871   8.108   0.089  17.913 -0.0124  0.2358  0.0196
35272W        W41872  24.316   0.979  16.518 -0.0079  0.0896 -0.0492
35273W        W41873  20.875   2.844   3.431  0.1384 -0.4339 -0.3439
35274W        W41874  30.264   3.753   8.652  0.0563  0.2050 -0.0802
35275W        W41875  18.312   4.911   0.266 -0.1004  0.0454  0.0362
35276W        W41876  22.530   5.969   2.746  0.3128  0.1063 -0.2975
35277W        W41877  22.987   6.782  10.291 -0.0056 -0.1020 -0.1235
35278W        W41878  30.802   6.237   1.020 -0.1608 -0.1318 -0.2261
35279W        W41879   5.063   4.788  17.509 -0.1310  0.4978  0.0513
35280W        W41880  18.777   3.287   5.961 -0.1422  0.0120 -0.0343
35281W        W41881  27.216   4.072  20.113  0.0433 -0.1892 -0.0934
35282W        W41882   6.590   1.787  16.813  0.0396 -0.6509 -0.1551
35283W        W41883  26.211   3.491  15.446 -0.2486  0.1638 -0.1002
35284W        W41884  22.176   6.464   0.791 -0.2999  0.3054  0.0799
35285W        W41885  24.032   5.924   2.785 -0.2056 -0.0195 -0.0375
35286W        W41886  18.840   1.245  22.709  0.2536  0.1950 -0.0725
35287W        W41887  16.237   1.396  11.430 -0.1054  0.0149  0.2355
35288W        W41888   5.784   3.162   0.601  0.4166 -0.0155  0.2588
35289W        W41889  12.282   5.950   8.386 -0.2061  0.0972  0.1298
35290W        W41890   1.469   2.472   0.052  0.0188 -0.2849 -0.0956
35291W        W41891  16.994   4.469   5.489  0.0089 -0.4160  0.1743
35292W        W41892  31.100   2.974  21.976 -0.2899 -0.1360 -0.1103
35293W        W41893  14.473   1.927  11.209 -0.2113  0.2552  0.0542
35294W        W41894  18.695   7.305  24.543 -0.1855 -0.2349  0.0354
35295W        W41895  10.983   2.699   4.498 -0.2565 -0.1169  0.0524
35296W        W41896  30.609   1.474  19.296 -0.0911  0.0419 -0.2311
35297W        W41897  14.091   3.139   3.996 -0.2179  0.0682 -0.1807
35298W        W41898  13.411   5.955   9.703 -0.0767  0.0844 -0.0587
35299W        W41899  26.968   1.850  25.520  0.2316  0.0718 -0.0169
35300W        W41900  20.630   7.362  10.401  0.0227 -0.2579 -0.0011
35301W        W41901  25.195   5.223  19.955 -0.0106  0.2820 -0.0482
35302W        W41902   0.721   3.597  16.913  0.3788  0.1670  0.1948
35303W        W41903   4.689   5.860  15.830  0.0027 -0.0715  0.1406
35304W        W41904  20.605   6.810  16.665 -0.2836  0.2838 -0.1635
35305W        W41905  15.113   0.750   6.959  0.1217  0.2638  0.0923
35306W        W41906   6.176   4.207   6.967  0.1801  0.1979 -0.0247
35307W        W41907  27.270   5.633  19.803 -0.2830 -0.2884 -0.1810
35308W        W41908   8.315   3.651   9.634  0.1816  0.1558 -0.0799
35309W        W41909   8.978   6.894  16.557  0.2332  0.0578  0.0390
35310W        W41910  25.626   3.269   0.904  0.1224 -0.1631 -0.3876
35311W        W41911   2.861   3.172   1.989  0.1843  0.0434  0.0977
35312W        W41912   8.287   1.094  23.332 -0.0203 -0.4909  0.2629
35313W        W41913  21.515   4.022   6.453 -0.1626 -0.0296 -0.2393
35314W        W41914  18.547   1.018   5.161  0.3861 -0.4186 -0.1691
35315W        W41915  29.433   2.547   3.597 -0.0858 -0.1178 -0.3846
35316W        W41916   7.661   4.567  20.048 -0.1899  0.2436 -0.1561
35317W        W41917  19.650   2.772  11.573 -0.2607 -0.0662  0.3323
35318W        W41918  20.621   0.263  21.691  0.4799  0.2039 -0.1169
35319W        W41919   6.522   2.439   9.924 -0.1454 -0.2281 -0.0123
35320W        W41920   2.255   4.455  16.538  0.0791 -0.0281  0.0065
35321W        W41921   2.448   5.378   5.866  0.1762 -0.1001  0.0578
35322W        W41922  27.660   5.041   2.748 -0.0307 -0.1454  0.1886
35323W        W41923  30.881   7.851  16.954 -0.0483 -0.2770  0.1399
35324W        W41924  15.399   2.422  24.738 -0.1731 -0.2640  0.1812
35325W        W41925  21.926   6.599  23.360  0.0072 -0.0074 -0.1927
35326W        W41926   7.622   7.438   7.412 -0.1326 -0.1522  0.1122
35327W        W41927  14.728   2.136   1.730 -0.0555 -0.0758  0.3356
35328W        W41928  27.405   5.716  23.256 -0.1304  0.0491  0.0985
35329W        W41929  15.257   1.243   6.244  0.0080 -0.0247 -0.0964
35330W        W41930  10.711   7.234  19.054  0.0504  0.1731 -0.0970
35331W        W41931  19.404   5.338  18.020 -0.0121 -0.2248 -0.0253
35332W        W41932  10.367   6.606   2.591 -0.1108  0.0177  0.0583
35333W        W41933   5.045   3.659  15.742  0.2705  0.0491 -0.1676
35334W        W41934   8.782   4.245  21.872 -0.0655 -0.0663 -0.3179
35335W        W41935   5.190   6.180  16.731 -0.0620  0.0352  0.4581
35336W        W41936   9.602   6.617  23.740 -0.4590  0.0049 -0.2361
35337W        W41937  27.379   3.768  18.456 -0.0027  0.5837 -0.1434
35338W        W41938  30.089   2.721  24.161 -0.4832 -0.3655 -0.2560
35339W        W41939  11.552   0.232  20.751 -0.1262  0.0327 -0.3016
35340W        W41940  16.164   3.714   8.735  0.4338  0.0825 -0.3221
35341W        W41941  27.259   3.560   1.001  0.1380 -0.2908  0.1125
35342W        W41942  10.878   1.203  17.123  0.0006 -0.2893 -0.0790
35343W        W41943  28.516   1.766   0.961 -0.0516  0.2084  0.0556
35344W        W41944  19.672   4.855  10.322 -0.1207 -0.0110 -0.1781
35345W        W41945  25.082   1.841   8.942  0.1033  0.0412  0.3268
35346W        W41946   4.493   0.736   8.710 -0.0174  0.0669 -0.0478
35347W        W41947  23.936   3.151  18.428 -0.1959  0.1757  0.0513
35348W        W41948   7.550   3.779  16.869  0.0969 -0.3551  0.2666
35349W        W41949  28.847   1.574  22.950  0.2505  0.0538  0.0014
35350W        W41950   6.529   5.130  15.992 -0.2176 -0.0453  0.2803
35351W        W41951  28.705   5.374   6.130 -0.1483 -0.0958  0.3059
35352W        W41952  18.566   1.984  17.021  0.0427  0.2423 -0.1413
35353W        W41953  30.425   6.324  24.926  0.1913 -0.1171  0.1788
35354W        W41954  12.344   0.684  15.210  0.1818 -0.5583 -0.2873
35355W        W41955   0.372   4.692  22.911  0.2653  0.2637  0.1222
35356W        W41956  30.200   0.025  21.722  0.1527 -0.2314  0.1463
35357W        W41957  18.255   1.167   7.574  0.0207  0.0340  0.0059
35358W        W41958  17.984   6.426  22.602 -0.0256  0.1819  0.3553
35359W        W41959  10.961   1.396  21.237  0.0208 -0.0193 -0.0891
35360W        W41960  28.543   4.117   4.510 -0.0250 -0.0062 -0.1272
35361W        W41961  17.594   5.272  25.228 -0.1362 -0.1113 -0.1889
35362W        W41962  10.761   3.785   5.418 -0.1974 -0.0551 -0.0022
35363W        W41963  30.473   7.461   7.513 -0.0881 -0.0631 -0.1805
35364W        W41964   9.873   4.834  15.826  0.0970  0.1847 -0.0449
35365W        W41965   6.906   0.369   2.808  0.2159  0.0790 -0.1124
35366W        W41966   3.715   4.730  21.235  0.1194  0.1056 -0.2382
35367W        W41967  17.246   4.865  16.658 -0.0919 -0.0119  0.1808
35368W        W41968  13.591   1.929   2.498 -0.0914 -0.3857  0.0255
35369W        W41969  14.189   0.466   4.517  0.1042  0.0883 -0.2158
35370W        W41970   7.980   2.705  20.773  0.0638 -0.2705  0.2756
35371W        W41971  15.158   1.756   5.274 -0.2943 -0.2797 -0.0140
35372W        W41972   2.305   6.157  17.921 -0.0262 -0.1476  0.1829
35373W        W41973   3.583   4.113  24.516 -0.2149  0.0824 -0.2045
35374W        W41974  11.830   7.655   6.146 -0.0376  0.0311 -0.1241
35375W        W41975  28.014   0.640   1.565 -0.2234 -0.1457 -0.1318
35376W        W41976  28.221   0.066  20.842 -0.0318  0.0535 -0.0934
35377W        W41977   3.120   5.614  25.704 -0.0416  0.0122 -0.1483
35378W        W41978  23.588   0.330   0.651 -0.0750  0.0549 -0.0218
35379W        W41979  19.585   6.632   5.385  0.2334  0.1622 -0.1133
35380W        W41980  27.915   1.417  25.610 -0.0829  0.2079 -0.0576
35381W        W41981   5.206   5.589   3.308 -0.3530 -0.0044 -0.0343
35382W        W41982   8.668   0.117   4.789  0.0618 -0.0363 -0.2829
35383W        W41983  30.136   3.052  25.904  0.1654 -0.1572 -0.2483
35384W        W41984   4.037   0.389  19.029 -0.1036  0.2405 -0.0795
35385W        W41985  21.315   0.930  18.646  0.0981  0.0916 -0.0223
35386W        W41986   0.540   0.162   5.328  0.1744 -0.0016 -0.3446
35387W        W41987   7.669   2.883  15.886 -0.0401 -0.0766  0.2712
35388W        W41988  20.306   6.665   5.883 -0.2470 -0.0314  0.0530
35389W        W41989   2.754   0.500  25.829  0.0201  0.1919  0.1620
35390W        W41990   4.489   4.261  18.064  0.0901  0.2009  0.3117
35391W        W41991  31.134   5.161   6.560 -0.0920  0.1596 -0.0497
35392W        W41992  26.635   3.115   2.316 -0.2700  0.0785 -0.1952
35393W        W41993   3.806   6.525   4.046 -0.3666 -0.0569  0.0767
35394W        W41994  21.536   6.487  24.183  0.0573  0.2956 -0.1696
35395W        W41995  15.574   2.100   6.846 -0.0859  0.2731 -0.0479
35396W        W41996  12.523   5.442   8.387 -0.0804 -0.0925  0.1263
35397W        W41997  21.422   6.170  17.359  0.0777 -0.1440  0.2647
35398W        W41998  13.558   1.253  16.855  0.0927 -0.0090 -0.0576
35399W        W41999  11.528   0.899   1.302  0.1137  0.1282 -0.1613
35400W        W42000   1.415   5.146  14.102 -0.0518 -0.1338  0.2393
35401W        W42001  16.966   4.498  16.403 -0.0454 -0.3108 -0.2206
35402W        W42002  23.624   4.909   4.827  0.4253  0.1523 -0.1250
35403W        W42003  17.321   3.583   6.392 -0.0004 -0.2585  0.0824
35404W        W42004  21.816   7.334   0.372  0.0763 -0.0837  0.0467
35405W        W42005   5.287   7.623   4.116 -0.0497 -0.2267 -0.1512
35406W        W42006   1.627   4.476  24.575 -0.0422  0.1175 -0.0907
35407W        W42007  20.028   6.997   6.228  0.1850  0.0484  0.2487
35408W        W42008  10.980   4.155   1.621 -0.3653 -0.3274 -0.3138
35409W        W42009  13.670   1.453   5.965 -0.2067  0.0708 -0.2922
35410W        W42010  19.389   5.751  16.629 -0.0289 -0.1106  0.3682
35411W        W42011  31.084   3.320  23.770  0.0951  0.1990 -0.3548
35412W        W42012  16.758   6.185   2.734  0.2073  0.0413  0.2044
35413W        W42013  21.478   7.113  10.499  0.2045  0.0335 -0.1053
35414W        W42014  24.843   5.329  15.350  0.0433 -0.1540 -0.1551
35415W        W42015  31.307   1.995  19.383 -0.1262  0.0470 -0.1086
35416W        W42016   1.968   6.461   3.355  0.1929  0.0075 -0.2277
35417W        W42017  16.697   6.585   6.989  0.2673 -0.0254  0.0198
35418W        W42018  26.216   0.893  19.857 -0.3044  0.0991 -0.0925
35419W        W42019  30.775   3.530   2.954  0.3004  0.3860  0.0500
35420W        W42020   7.323   6.101   4.543 -0.1184 -0.4144  0.1648
35421W        W42021   8.327   6.380  19.079 -0.2085  0.0432  0.0733
35422W        W42022  26.495   0.994  25.300  0.0085  0.1731 -0.0443
35423W        W42023  26.089   5.663   0.435  0.0134 -0.1397  0.0905
35424W        W42024  14.493   2.894  19.707  0.0932  0.1530 -0.2655
35425W        W42025   6.567   4.651  16.325 -0.0656 -0.2180 -0.1488
35426W        W42026   5.777   1.684   8.187 -0.4429  0.2419 -0.1555
35427W        W42027  28.198   1.811   3.226 -0.0105 -0.0599  0.1055
35428W        W42028   4.518   3.021  23.509  0.0909  0.0823 -0.0596
35429W        W42029  15.127   6.807  22.182 -0.0341 -0.0609  0.0364
35430W        W42030  19.050   0.236   6.005 -0.1480  0.1182 -0.0135
35431W        W42031   5.242   4.500   4.863 -0.0365 -0.1583 -0.3510
35432W        W42032   7.379   4.007  24.149 -0.0689 -0.1172 -0.3104
35433W        W42033  11.327   7.592  25.828 -0.0904  0.1179 -0.0206
35434W        W42034  18.399   5.422   9.458  0.0886 -0.1822  0.1231
35435W        W42035  27.132   4.562  21.156  0.1921  0.1167  0.0037
35436W        W42036  11.592   5.037  19.103 -0.0418  0.1536  0.1739
35437W        W42037  20.510   7.306   1.795  0.3674 -0.1982  0.1255
35438W        W42038  15.370   5.427  24.174 -0.1965 -0.1133 -0.1299
35439W        W42039  30.633   7.192  15.148  0.1436  0.1595  0.2469
35440W        W42040  22.390   1.954  10.102 -0.6129  0.2286  0.2667
35441W        W42041   2.073   5.830   0.198  0.0725  0.4396  0.2998
35442W        W42042  10.642   6.673  25.241  0.0674  0.0239 -0.2696
35443W        W42043  14.488   5.165  22.736 -0.3378 -0.0042 -0.1724
35444W        W42044   0.617   0.801  16.751 -0.1163 -0.0123 -0.0493
35445W        W42045  20.976   1.842  23.887  0.1484 -0.0638  0.0223
35446W        W42046  10.528   2.018   3.165  0.0070 -0.2499  0.2461
35447W        W42047  20.076   4.298   0.952  0.1657  0.0059 -0.5103
35448W        W42048  18.801   0.969  20.830 -0.1993 -0.0643  0.1386
35449W        W42049  21.590   6.294  19.026  0.0094  0.1436  0.0018
35450W        W42050  23.256   3.992  22.230 -0.0484  0.0590 -0.0674
35451W        W42051  28.513   3.529  19.889  0.1810 -0.0792 -0.1493
35452W        W42052  10.305   3.085  24.471 -0.0820 -0.2224  0.2938
35453W        W42053  29.836   6.330   9.579  0.2408 -0.0308 -0.1215
35454W        W42054  23.042   0.319   0.718 -0.0261  0.0337 -0.3351
35455W        W42055   0.438   1.136  25.252 -0.2636  0.0187  0.2451
35456W        W42056   2.697   2.536  16.739  0.2209 -0.2075 -0.2093
35457W        W42057   3.269   4.093  10.614  0.1451  0.1574  0.1428
35458W        W42058  29.099   4.405  18.505  0.1418 -0.1745  0.0124
35459W        W42059  19.966   0.486   9.421 -0.0313 -0.2097 -0.3572
35460W        W42060   7.724   2.869   5.058  0.0457 -0.1111  0.0482
35461W        W42061  10.179   0.020   0.672 -0.0535  0.4524 -0.0432
35462W        W42062   5.545   3.000   2.767 -0.1560 -0.1649  0.2015
35463W        W42063  14.100   5.809   7.894  0.2279  0.1631 -0.2281
35464W        W42064   2.198   2.162   3.902 -0.1727 -0.1179 -0.4030
35465W        W42065  19.550   5.989   4.797  0.0676 -0.0692  0.0825
35466W        W42066  30.852   4.277  20.373 -0.2535  0.0988  0.2676
35467W        W42067  18.753   7.036   1.766  0.2840  0.3280  0.2050
35468W        W42068  29.940   7.412  21.886  0.2032 -0.2072 -0.0536
35469W        W42069  12.730   3.277   0.820 -0.3487 -0.0161 -0.0230
35470W        W42070  28.914   4.983  20.470 -0.1088 -0.1213 -0.1063
35471W        W42071  24.367   3.504  25.805 -0.0785 -0.0110 -0.2886
35472W        W42072  31.382   5.049   0.694  0.2346 -0.0858  0.1370
35473W        W42073  31.016   4.967  23.868  0.0456 -0.0979  0.2675
35474W        W42074  10.432   2.942   3.094 -0.0583 -0.1404  0.2010
35475W        W42075   4.741   4.910  10.172 -0.1139 -0.0993 -0.1301
35476W        W42076   3.702   2.233   4.706  0.0693 -0.0831  0.0151
35477W        W42077  22.109   7.480   0.766  0.1709 -0.0116  0.1752
35478W        W42078   4.508   4.612   7.238 -0.3156 -0.1086  0.1488
35479W        W42079  25.881   6.953   1.569  0.1418 -0.1915  0.0103
35480W        W42080   9.878   1.722  25.351 -0.3589  0.0318 -0.0427
35481W        W42081   8.210   0.414  24.038  0.0939 -0.3295 -0.4007
35482W        W42082  21.906   1.753   3.286  0.0844 -0.3163 -0.1406
35483W        W42083  22.628   2.902  19.949 -0.0960  0.0728 -0.2026
35484W        W42084  12.799   7.426  25.200 -0.1663  0.0366 -0.4296
35485W        W42085  28.435   5.744  19.495 -0.0961  0.1604 -0.1131
35486W        W42086  24.609   0.467  21.651 -0.0231  0.0215 -0.0922
35487W        W42087  14.364   0.662   0.543 -0.2544 -0.0657  0.1722
35488W        W42088  27.898   1.803  22.996  0.0294  0.5190 -0.1861
35489W        W42089   5.106   7.313  25.304 -0.3252 -0.0009  0.0244
35490W        W42090  13.301   3.479  10.103 -0.0874  0.0240  0.0602
35491W        W42091   0.391   4.456   4.276  0.5307  0.0231  0.1292
35492W        W42092   8.444   5.300   9.287 -0.0330  0.2331 -0.0774
35493W        W42093  20.554   0.198  21.184 -0.0421 -0.2209 -0.1093
35494W        W42094   9.990   7.790  23.276  0.3177  0.0243  0.0102
35495W        W42095   8.095   1.652  25.132 -0.0669  0.1092  0.0265
35496W        W42096  15.907   5.667  15.945  0.0492 -0.1393  0.0077
35497W        W42097  20.842   2.409  23.285 -0.2917 -0.2331 -0.0612
35498W        W42098  17.963   5.547   1.166  0.0788  0.1554  0.0876
35499W        W42099   6.884   2.705  22.447  0.0474 -0.0527  0.2564
35500W        W42100  22.652   5.433   8.142 -0.2562 -0.1309 -0.0764
35501W        W42101  23.296   5.150  19.484 -0.0619  0.0459 -0.1212
35502W        W42102  26.385   3.506   9.175 -0.0713 -0.1552  0.0558
35503W        W42103  27.249   2.121  17.266  0.2048  0.2815  0.2474
35504W        W42104  15.583   5.889   3.519  0.2398  0.1739 -0.0329
35505W        W42105  19.094   7.456  24.004  0.2519 -0.3884  0.1750
35506W        W42106   0.735   0.496   2.789  0.2201 -0.4150  0.0201
35507W        W42107  29.642   1.718  26.010  0.0119 -0.1121 -0.1909
35508W        W42108   4.253   2.499   2.815 -0.0437  0.4237  0.2500
35509W        W42109  27.045   3.899   0.507  0.1987 -0.1351  0.0027
35510W        W42110   7.233   6.699   0.175 -0.1248 -0.2107 -0.1832
35511W        W42111   2.285   1.380  24.249 -0.0321 -0.0665 -0.0958
35512W        W42112  21.208   0.906  11.072  0.1966 -0.0862 -0.4264
35513W        W42113  29.640   1.417   4.943 -0.0453 -0.5239  0.1872
35514W        W42114  27.502   1.000   8.215 -0.1549 -0.2063 -0.2447
35515W        W42115  28.544   0.811  19.533 -0.1463  0.2573  0.0108
35516W        W42116  22.063   3.004  10.993 -0.0559 -0.3280  0.0941
35517W        W42117  15.747   5.875  23.510 -0.0649 -0.2194  0.1598
35518W        W42118  18.521   6.406   9.127 -0.1664 -0.2982 -0.0089
35519W        W42119  24.123   7.662  24.732  0.2662 -0.2015  0.0104
35520W        W42120  16.659   6.590  15.980 -0.1401  0.2216  0.2387
35521W        W42121  15.459   4.703   2.103 -0.0961 -0.1690  0.3122
35522W        W42122  26.564   1.696   6.264 -0.1077 -0.1982 -0.1515
35523W        W42123  19.297   4.981  24.628  0.1519  0.0062  0.0501
35524W        W42124  30.954   6.116  25.807 -0.0004 -0.0467  0.0906
35525W        W42125  16.758   4.928   2.736 -0.0358  0.1500 -0.2278
35526W        W42126   0.388   7.808  16.672  0.0279  0.0269  0.4705
35527W        W42127   5.304   3.982   7.279 -0.2138  0.0299  0.0906
35528W        W42128   3.327   0.090   9.658 -0.2909  0.0834  0.0415
35529W        W42129  30.870   5.312   5.024  0.3027 -0.0333  0.2662
35530W        W42130  12.478   1.400   3.106  0.0215  0.2216  0.1599
35531W        W42131   2.693   3.725   6.971  0.2324  0.1353 -0.0229
35532W        W42132  29.752   7.856   6.591  0.1440  0.1611  0.0370
35533W        W42133   3.700   3.125  14.283  0.0657  0.0903 -0.1628
35534W        W42134  28.434   7.544  17.470  0.2330  0.2529  0.2041
35535W        W42135  27.717   6.434  25.700  0.0037  0.0155 -0.3489
35536W        W42136  27.879   2.113   8.462  0.2082  0.2798 -0.0589
35537W        W42137  27.665   3.250   8.976  0.1038  0.0717 -0.3644
35538W        W42138  19.932   2.898  10.277 -0.0665 -0.1921 -0.0319
35539W        W42139  30.422   1.329   9.960 -0.0915 -0.1614 -0.1017
35540W        W42140  13.227   3.050   3.666  0.0348 -0.2316 -0.1954
35541W        W42141  31.215   1.703  21.911  0.0644  0.0956  0.1766
35542W        W42142  22.492   4.899   4.408 -0.0406  0.2416  0.1742
35543W        W42143   6.654   0.737  22.184 -0.0132  0.0731  0.0196
35544W        W42144  23.490   7.287  19.676  0.2709 -0.2285  0.0383
35545W        W42145  18.708   7.121  11.471 -0.2266 -0.1124 -0.0201
35546W        W42146  11.446   0.174  24.963  0.0477  0.0998  0.1838
35547W        W42147   3.040   5.969   2.555 -0.0668 -0.1308 -0.1788
35548W        W42148   8.536   6.852  17.150  0.0565  0.1376 -0.0513
35549W        W42149   6.152   7.729   2.616  0.0710  0.1267 -0.3097
35550W        W42150   3.600   6.635  23.231 -0.1438 -0.3305  0.0066
35551W        W42151  22.273   6.647  24.842 -0.2442 -0.0564  0.2249
35552W        W42152   8.543   1.942   0.989 -0.1732  0.1441  0.0132
35553W        W42153   3.113   0.266   3.606  0.0062 -0.1186 -0.3550
35554W        W42154  24.852   3.429  24.218  0.0063  0.2082  0.1190
35555W        W42155  18.016   2.651  21.493 -0.2221 -0.1722 -0.0686
35556W        W42156  29.371   2.237  22.651  0.0134 -0.1078  0.0558
35557W        W42157  25.309   6.492  25.151 -0.1774  0.1080  0.2172
35558W        W42158   3.860   7.067  22.799  0.1874 -0.1843  0.0056
35559W        W42159  15.605   4.040   2.927  0.2430  0.3443 -0.1843
35560W        W42160  27.103   3.371   4.317  0.2254 -0.2724  0.1139
35561W        W42161  12.019   2.478  17.355  0.1814  0.0672  0.1019
35562W        W42162   5.561   5.842   1.844 -0.0002 -0.2353 -0.1897
35563W        W42163  30.145   5.301  15.976  0.3112 -0.0633 -0.1369
35564W        W42164  26.267   7.242  21.373  0.0491 -0.2995 -0.2407
35565W        W42165  24.354   5.546  17.883  0.0814  0.2311  0.0406
35566W        W42166  29.659   5.308   6.220 -0.1720 -0.0129  0.0950
35567W        W42167  17.176   6.490  17.464  0.0768  0.2858  0.0389
35568W        W42168  28.710   0.936   0.596  0.0113  0.2292 -0.1879
35569W        W42169   0.291   0.093  14.785 -0.1224 -0.3958 -0.3133
35570W        W42170   3.512   4.776  21.703  0.1131 -0.0920 -0.1874
35571W        W42171   4.493   4.824  20.303  0.0155  0.0806  0.0016
35572W        W42172  26.126   1.666   6.655 -0.1889  0.2306 -0.0540
35573W        W42173   1.348   1.864  24.944 -0.2635  0.2043  0.0229
35574W        W42174  31.210   5.726   1.778  0.1744 -0.2039 -0.0531
35575W        W42175  18.896   3.532  25.493  0.2316  0.1676  0.0274
35576W        W42176   0.671   1.803   5.982 -0.1841  0.0213 -0.0012
35577W        W42177  28.250   4.686   1.195  0.1831  0.2476  0.0808
35578W        W42178  18.998   2.805  19.534  0.0236  0.0753 -0.1186
35579W        W42179   6.510   5.504   6.839 -0.1125  0.0958 -0.2533
35580W        W42180  17.425   3.466   3.572 -0.2691 -0.1653  0.0080
35581W        W42181  25.229   5.323  20.882  0.1217  0.1181 -0.3299
35582W        W42182  24.765   2.340  16.514 -0.1222 -0.0302  0.3552
35583W        W42183   4.822   7.004   6.701 -0.1455 -0.2200  0.1765
35584W        W42184   9.663   4.808   2.191 -0.1365  0.0866  0.3123
35585W        W42185   4.318   1.628  25.653 -0.1806 -0.0955 -0.3897
35586W        W42186   2.168   0.446   2.104 -0.0952 -0.0696  0.0270
35587W        W42187   3.922   0.073  16.248  0.1009  0.0071 -0.0974
35588W        W42188   5.340   7.198   2.578 -0.0830 -0.0675  0.0257
35589W        W42189  11.043   6.219  23.765  0.0068  0.1240 -0.0513
35590W        W42190  23.554   0.728   8.617  0.1985  0.1292  0.3603
35591W        W42191   6.359   0.771   4.422 -0.1088 -0.2721 -0.0362
35592W        W42192  25.665   5.380  23.499  0.0580 -0.0324 -0.2437
35593W        W42193   1.011   6.831  14.722 -0.1069 -0.4816 -0.0390
35594W        W42194  18.577   3.309  17.348 -0.1430  0.0456  0.1903
35595W        W42195   1.630   0.258  15.234 -0.2367 -0.2611 -0.0126
35596W        W42196   8.289   1.850   4.230  0.3714 -0.0272  0.0704
35597W        W42197   9.330   7.778  10.310  0.1915  0.0757  0.1879
35598W        W42198  30.325   2.678  18.134  0.0592  0.1517  0.0402
35599W        W42199  28.847   3.474   1.061  0.3963 -0.4331  0.1256
35600W        W42200  19.381   4.836   2.060  0.1779 -0.1850  0.3710
35601W        W42201  21.507   7.179  16.112  0.0889  0.1007 -0.0234
35602W        W42202   8.366   6.531  16.288 -0.0491  0.0674 -0.2154
35603W        W42203  11.355   4.493  10.475 -0.1112 -0.1303  0.1356
35604W        W42204  26.151   2.572  16.657  0.0405 -0.0138  0.3261
35605W        W42205  16.471   0.626   8.705 -0.2076  0.0916  0.3130
35606W        W42206  12.991   2.739   3.381 -0.1452  0.1135  0.1371
35607W        W42207   8.990   2.075  20.365 -0.0467 -0.3102 -0.1338
35608W        W42208  12.194   2.299  20.907 -0.1838  0.0858  0.4081
35609W        W42209  20.615   6.425  19.378  0.2553 -0.1844  0.1819
35610W        W42210   6.211   4.823  24.283 -0.0818 -0.1012  0.1743
35611W        W42211  20.367   7.764   2.085 -0.3653  0.1164 -0.0475
35612W        W42212   0.398   4.478  17.888  0.0324 -0.2410 -0.2076
35613W        W42213  25.737   5.664  21.602 -0.0110 -0.4150 -0.1001
35614W        W42214  20.990   4.943  20.995  0.0356 -0.0286  0.0342
35615W        W42215   5.065   6.191   9.891 -0.1038  0.0948  0.0148
35616W        W42216  26.323   0.842   3.373  0.0818  0.0492 -0.1254
35617W        W42217  31.021   5.030  22.332  0.3205 -0.2839  0.1335
35618W        W42218  19.506   0.922  20.822 -0.0762 -0.0976  0.1845
35619W        W42219  18.828   1.502  11.130 -0.3166 -0.0143 -0.1204
35620W        W42220  28.087   2.808  24.771  0.0773 -0.2464  0.1870
35621W        W42221  14.812   1.880  16.669  0.0495 -0.3339 -0.2381
35622W        W42222  15.391   3.712   5.384 -0.2459 -0.1232  0.0775
35623W        W42223  15.952   1.491   6.241  0.0104 -0.0363 -0.1504
35624W        W42224   8.644   2.155   4.081 -0.3046 -0.0662 -0.4246
35625W        W42225   8.712   0.932  23.608 -0.0744 -0.5570 -0.0255
35626W        W42226   2.975   5.910   0.553  0.0755 -0.0030  0.0290
35627W        W42227   3.995   5.270   9.928 -0.0705  0.4723 -0.1644
35628W        W42228   1.158   5.647  19.122  0.0256 -0.0998  0.3117
35629W        W42229  13.772   5.439   5.338 -0.2341  0.2267 -0.0044
35630W        W42230   8.307   0.019   6.929 -0.0508  0.0718 -0.0951
35631W        W42231  25.719   3.533   1.700  0.3956 -0.0413 -0.2021
35632W        W42232   3.392   4.882  17.544  0.1314  0.1262  0.0410
35633W        W42233  23.001   1.019  17.620  0.0493  0.1868 -0.1472
35634W        W42234  11.860   4.937  23.562 -0.1111 -0.1380 -0.3002
35635W        W42235  26.760   0.095   1.563  0.1277  0.1769  0.0701
35636W        W42236  12.785   4.697  16.704 -0.0057 -0.0146 -0.1670
35637W        W42237   1.889   4.613  21.299  0.3702 -0.0984 -0.0484
35638W        W42238  17.597   4.470  24.728  0.2004 -0.2925  0.0536
35639W        W42239  17.656   3.995   2.587  0.0167 -0.0562 -0.0519
35640W        W42240  25.838   5.372   8.969 -0.0663  0.1055  0.0972
35641W        W42241   7.874   5.992   2.864 -0.0609  0.0944  0.1651
35642W        W42242  10.646   2.311   1.945 -0.2534  0.2135 -0.4031
35643W        W42243  27.214   6.247   4.777 -0.0142  0.1019  0.0889
35644W        W42244  23.257   5.788  16.226 -0.0069  0.0785  0.0519
35645W        W42245   2.557   0.524  15.551  0.0188 -0.0148 -0.0460
35646W        W42246  16.294   7.489  25.980  0.0420 -0.1458 -0.1782
35647W        W42247  22.180   3.680   7.592 -0.0337  0.2098  0.1720
35648W        W42248  12.620   1.486   7.624  0.3681 -0.0948  0.2554
35649W        W42249  25.204   5.590   2.948 -0.3602 -0.3824  0.2550
35650W        W42250   2.484   2.343  18.875 -0.0152 -0.0886  0.0677
35651W        W42251  16.028   0.559  22.585 -0.1857 -0.1385 -0.3186
35652W        W42252  15.385   0.436   4.609  0.1911 -0.1569 -0.0084
35653W        W42253  29.648   6.662   5.152  0.0540  0.0971 -0.0302
35654W        W42254  10.054   5.571  22.877  0.0814 -0.1580  0.0768
35655W        W42255  24.761   6.829  25.724  0.1969 -0.2338 -0.1444
35656W        W42256  16.429   6.871  18.046 -0.2138  0.1051  0.0944
35657W        W42257   6.568   6.679   6.438 -0.0318 -0.0224 -0.1621
35658W        W42258   9.911   2.959   9.811 -0.1372  0.1986  0.2568
35659W        W42259  28.067   0.538  14.799 -0.1026  0.1502 -0.0062
35660W        W42260  11.005   7.724  24.326 -0.1992 -0.0246 -0.0411
35661W        W42261   4.526   5.375   2.153 -0.0751 -0.0821 -0.3422
35662W        W42262  10.679   1.680  25.273 -0.0899 -0.0729 -0.0631
35663W        W42263   7.403   3.801  19.252 -0.0838 -0.2091  0.0295
35664W        W42264  20.958   5.089   7.399 -0.2024 -0.0808 -0.0882
35665W        W42265  12.111   1.812   2.402 -0.3038 -0.1152  0.0945
35666W        W42266  11.442   0.465  23.559 -0.0252  0.1194  0.0622
35667W        W42267  19.740   5.450   2.180  0.0317 -0.1202 -0.0790
35668W        W42268   8.558   5.840   5.546  0.0257 -0.0153 -0.0848
35669W        W42269  26.905   5.350   2.084  0.0331  0.4760 -0.0362
35670W        W42270  16.173   1.585  25.673 -0.2209 -0.1386  0.2531
35671W        W42271  17.178   3.838  16.988  0.2613 -0.2094  0.0282
35672ION     NA42272   4.275   3.497   5.233  0.2845  0.3286 -0.1022
35673ION     NA42273  12.598   5.381   0.942 -0.0887 -0.0657  0.2276
35674ION     NA42274   9.997   5.748  23.979  0.3442 -0.2499 -0.1251
35675ION     NA42275  21.629   6.848   2.915  0.2762  0.0444  0.3704
35676ION     NA42276  15.688   4.617   0.526  0.3019  0.0219 -0.0312
35677ION     NA42277   6.440   1.600   5.295  0.1765 -0.0912  0.1332
35678ION     NA42278  30.882   5.361   2.510  0.0015  0.0758  0.0625
35679ION     NA42279  18.463   0.319  24.133 -0.3407  0.0006 -0.1971
35680ION     NA42280   0.328   3.994  25.812  0.3172 -0.3027  0.5520
35681ION     NA42281  28.624   0.633  24.304 -0.1495  0.2160 -0.0325
35682ION     NA42282  29.417   6.738  22.254  0.3711  0.0041  0.0054
35683ION     NA42283  30.272   1.720   1.934 -0.2859 -0.4361  0.4446
35684ION     NA42284   6.329   7.112  16.757  0.4807 -0.0736  0.1591
35685ION     NA42285   3.231   3.587  17.014 -0.0595  0.2330 -0.1454
35686ION     NA42286  29.150   4.937   9.334 -0.2657  0.1384 -0.1716
35687ION     NA42287   2.164   7.654  22.946 -0.1901  0.1509  0.2940
35688ION     NA42288  21.591   1.987  22.034  0.4039  0.0536 -0.1393
35689ION     NA42289  18.773   7.404  22.050  0.1248 -0.0897 -0.3206
35690ION     NA42290  17.868   7.461   9.544  0.3550  0.0237  0.1467
35691ION     NA42291   3.609   2.066   5.495  0.1793  0.0786  0.0105
35692ION     NA42292  10.963   4.788  25.446 -0.2722  0.4509  0.1492
35693ION     NA42293  28.725   6.046   6.720  0.3054  0.2768 -0.3946
35694ION     NA42294   8.505   4.703   1.127  0.9081  0.0242 -0.0641
35695ION     NA42295  18.548   2.063  21.377 -0.0332 -0.1418 -0.0762
35696ION     NA42296  29.294   6.684   2.003  0.1328 -0.0174  0.0325
35697ION     NA42297   4.425   2.142   8.395  0.1978 -0.1314 -0.1334
35698ION     NA42298  11.945   4.766   9.898  0.2398 -0.1455 -0.0176
35699ION     NA42299  16.413   6.619  21.716 -0.1640  0.1563 -0.1014
35700ION     NA42300   9.564   3.422  24.362 -0.4913 -0.3611 -0.0420
35701ION     NA42301  12.177   0.853   3.352 -0.0393 -0.2650 -0.4684
35702ION     NA42302  19.236   2.035  20.359 -0.1000  0.2856 -0.4256
35703ION     NA42303   9.233   4.984   4.206 -0.0233 -0.1675  0.0489
35704ION     NA42304  10.099   2.719   2.981 -0.1649  0.3570  0.0619
35705ION     NA42305   6.503   5.659  20.763  0.0721  0.3824  0.2123
35706ION     NA42306  29.373   1.856  18.456  0.1057  0.1061  0.0684
35707ION     NA42307   8.756   7.325   9.745 -0.3385  0.0947 -0.0401
35708ION     NA42308  12.449   6.426   5.421 -0.3935  0.2028  0.2245
35709ION     NA42309   2.495   3.431   4.854 -0.1637  0.0569  0.1007
35710ION     NA42310   9.853   0.496  17.348  0.0592  0.0650 -0.1301
35711ION     NA42311  22.865   4.822   4.186 -0.1402  0.6845  0.1292
35712ION     NA42312  24.863   5.801   4.211 -0.4130 -0.2997 -0.2767
35713ION     NA42313   4.514   1.675  20.893  0.0349 -0.1733  0.0585
35714ION     NA42314  27.437   2.343  23.650  0.0612  0.2110  0.0062
35715ION     NA42315  25.567   5.648   4.644 -0.3247  0.2971  0.2657
35716ION     NA42316  20.742   6.217   3.548 -0.0374  0.0861 -0.0297
35717ION     NA42317  23.735   5.509   6.646  0.2906 -0.1940  0.0462
35718ION     NA42318  11.529   7.460   1.429  0.0337 -0.0988  0.2069
35719ION     NA42319  17.639   6.091   6.578 -0.1354 -0.0629 -0.4797
35720ION     NA42320   0.861   3.667  24.672  0.4398  0.3096  0.3372
35721ION     NA42321  24.571   1.386  21.938 -0.3373  0.2037  0.2780
35722ION     NA42322  15.054   6.548   3.572 -0.3125  0.2891  0.1924
35723ION     NA42323  12.242   6.096   2.114  0.2488  0.2045 -0.0198
35724ION     NA42324  18.156   5.064   8.330  0.2058 -0.0581  0.0934
35725ION     NA42325  11.364   2.862   4.301 -0.0284 -0.1660  0.2473
35726ION     NA42326  22.611   0.369   5.139  0.2721 -0.0283 -0.5220
35727ION     NA42327  11.038   0.989  21.851  0.4389  0.0307  0.6316
35728ION     NA42328  10.536   7.801  17.718 -0.1269  0.4895  0.0780
35729ION     NA42329  28.217   2.010  21.375 -0.3798 -0.2917 -0.1268
35730ION     NA42330  30.244   2.174   4.446  0.1239  0.0297 -0.2245
35731ION     NA42331   7.753   2.877  21.964  0.2753 -0.2277 -0.1347
35732ION     NA42332  22.628   3.098   1.068 -0.0212  0.3078  0.2118
35733ION     NA42333  24.048   0.439   6.418 -0.2269 -0.4208  0.1669
35734ION     NA42334  20.838   3.237   3.291 -0.3913  0.3753 -0.2030
35735ION     NA42335  18.868   2.351  24.918  0.1018 -0.2292  0.2120
35736ION     NA42336  23.696   7.315   4.649 -0.2780 -0.1320  0.1534
35737ION     NA42337  31.401   4.506   8.958 -0.0158 -0.2332  0.1474
35738ION     NA42338   5.717   0.861  25.469  0.4709  0.5623 -0.1004
35739ION     NA42339  26.746   3.454  19.836  0.2252 -0.1137 -0.0415
35740ION     NA42340   7.174   4.311   4.566  0.2738  0.3578 -0.1206
35741ION     NA42341   7.908   1.374  20.538 -0.0965 -0.0500  0.3067
35742ION     NA42342   5.421   7.761  19.576 -0.0519 -0.1738 -0.0395
35743ION     NA42343  16.134   1.225  22.389 -0.1995 -0.0636  0.0830
35744ION     NA42344  10.344   5.689  24.756 -0.4562  0.2775  0.3996
35745ION     NA42345  19.275   6.099  25.092 -0.3876 -0.3742 -0.2487
35746ION     NA42346  20.807   3.975   6.393 -0.2778  0.0855  0.4161
35747ION     NA42347  15.918   6.430   2.459  0.0100 -0.1165  0.0609
35748ION     NA42348  17.703   0.101  19.251  0.4877  0.5818  0.0761
35749ION     NA42349  13.783   2.285   4.014 -0.4263 -0.0137 -0.3033
35750ION     NA42350  24.113   1.881   7.673 -0.6012 -0.2808  0.2483
35751ION     NA42351  29.559   4.232  16.271  0.3532  0.5403 -0.0645
35752ION     NA42352  29.807   4.860  22.194  0.5524  0.1297  0.0455
35753ION     NA42353  10.429   4.209  24.282 -0.1893 -0.0184  0.0083
35754ION     NA42354  26.287   7.109  16.181 -0.1202  0.2253 -0.2333
35755ION     NA42355  16.574   1.179   9.302 -0.6010  0.1722 -0.4446
35756ION     NA42356  26.020   3.459  19.475  0.0944  0.1585  0.1744
35757ION     NA42357   1.961   1.536   2.689  0.1711  0.0616  0.3939
35758ION     NA42358   4.776   7.859  19.735 -0.2944  0.0888 -0.1080
35759ION     NA42359  30.054   7.707  19.094  0.2255 -0.2940  0.1280
35760ION     NA42360  12.458   4.993  16.819 -0.0345  0.1673 -0.0267
35761ION     NA42361  25.994   0.408  22.440  0.2918 -0.4317 -0.2910
35762ION     NA42362  23.454   2.767   8.220  0.1723  0.2273  0.0437
35763ION     NA42363  30.345   0.391   9.654 -0.4675 -0.2919 -0.3690
35764ION     NA42364   0.575   7.236   1.809 -0.0651 -0.2392 -0.1113
35765ION     NA42365  26.661   6.528   8.759  0.1623  0.2861  0.4654
35766ION     NA42366  24.458   2.930  15.657 -0.0895 -0.1086  0.0542
35767ION     NA42367   4.958   2.918   2.397  0.1284  0.4298  0.1363
35768ION     NA42368  10.116   1.897   0.893  0.0015  0.3922 -0.3820
35769ION     NA42369   7.466   0.677  16.334 -0.3303 -0.2550 -0.3731
35770ION     NA42370  16.130   4.427  18.629 -0.0776 -0.0362  0.1629
35771ION     NA42371  21.262   4.217   4.863  0.0740 -0.4462 -0.0374
35772ION     NA42372  17.931   2.613   7.546  0.0841 -0.1937 -0.0318
35773ION     NA42373   4.674   2.149  15.965  0.2652 -0.0614  0.2920
35774ION     NA42374  29.738   1.840  21.345  0.1060 -0.1338  0.4780
35775ION     NA42375  16.449   7.487  23.445 -0.1393 -0.1731  0.3778
35776ION     NA42376  12.097   4.588   3.963 -0.0491 -0.0384  0.1465
35777ION     NA42377   8.183   0.336  21.174  0.1019  0.2006  0.6603
35778ION     NA42378  24.236   5.946   5.198  0.2800 -0.2265 -0.2163
35779ION     NA42379  24.778   7.709  15.983  0.2410  0.0967 -0.0378
35780ION     NA42380  22.214   3.778   8.837  0.0942 -0.5755 -0.2582
35781ION     NA42381  14.945   2.023   8.848 -0.1374  0.1103 -0.4839
35782ION     NA42382  18.570   1.286  19.477  0.3299 -0.0759 -0.0302
35783ION     NA42383   8.168   1.036  25.538 -0.2910 -0.0557 -0.1358
35784ION     NA42384  26.520   5.228   2.013  0.2459  0.5158 -0.3538
35785ION     NA42385   7.762   6.459   7.645 -0.2492  0.0972 -0.0559
35786ION     NA42386  22.752   2.471  25.392  0.3358  0.2595 -0.1695
35787ION     NA42387  27.949   6.323  21.839 -0.1756 -0.1328 -0.2168
35788ION     NA42388  19.048   6.775  24.357 -0.2086 -0.1801  0.0415
35789ION     NA42389  24.395   1.779  10.917 -0.1065 -0.0380 -0.2860
35790ION     NA42390  29.366   5.283   3.522  0.3659  0.4581  0.3651
35791ION     NA42391   6.189   7.020   9.542 -0.0879 -0.2732 -0.3058
35792ION     NA42392  15.392   7.578  18.981 -0.0733 -0.1519 -0.0290
35793ION     NA42393   3.138   3.978   3.955 -0.3207  0.1536  0.5671
35794ION     NA42394  23.464   5.163   2.727 -0.0217 -0.2079 -0.3378
35795ION     NA42395  16.102   0.776  17.819 -0.1876  0.1572  0.1889
35796ION     NA42396  26.473   3.697  17.609  0.2210 -0.4433 -0.0552
35797ION     NA42397  24.911   5.929   6.310  0.2586 -0.0298  0.3997
35798ION     NA42398   1.279   6.244   4.698 -0.2167  0.4863  0.2539
35799ION     NA42399  16.102   7.382   8.188  0.1091  0.1362 -0.0330
35800ION     NA42400  12.650   0.643  25.293  0.2939  0.0039 -0.2482
35801ION     NA42401   6.977   4.363  24.859 -0.2376  0.2770 -0.0147
35802ION     NA42402  28.920   3.716  16.097  0.4078 -0.0039  0.4341
35803ION     NA42403   0.181   3.960   8.064 -0.4822 -0.1974 -0.2110
35804ION     NA42404  11.293   3.318   8.829 -0.0921  0.1900 -0.1231
35805ION     NA42405  15.439   0.267  24.920 -0.3421  0.2096  0.3496
35806ION     NA42406  23.231   1.262  16.425 -0.2167  0.2728  0.1971
35807ION     NA42407   6.693   2.656  19.416 -0.4414  0.0445  0.0632
35808ION     NA42408  29.947   2.757   6.366  0.3486  0.1352  0.3067
35809ION     NA42409   7.618   7.699   8.749  0.2251 -0.6952 -0.2249
35810ION     NA42410   7.635   4.066  18.987  0.4544 -0.2042 -0.1251
35811ION     NA42411  11.001   7.463  20.193 -0.1626  0.2107  0.0589
35812ION     NA42412  23.360   4.765  24.682  0.4528 -0.0019 -0.4031
35813ION     NA42413   4.417   2.659  18.604  0.2367 -0.0867  0.0238
35814ION     NA42414   7.867   1.724   8.998  0.0370  0.0975  0.0637
35815ION     NA42415  23.988   2.288  22.462 -0.2596 -0.4961 -0.3235
35816ION     NA42416  23.630   0.661   3.385 -0.2384  0.5568  0.1483
35817ION     CL42417  31.418   3.083   0.008  0.2367  0.4459 -0.1393
35818ION     CL42418  15.165   7.273  19.080  0.1235 -0.3359 -0.3821
35819ION     CL42419  17.563   2.970  18.877  0.0987  0.1842 -0.3625
35820ION     CL42420  10.190   0.317  17.277 -0.0355  0.1503 -0.2050
35821ION     CL42421  23.023   7.539  25.292 -0.2932 -0.5352  0.0165
35822ION     CL42422  18.604   7.185   7.752 -0.5036  0.0817 -0.3880
35823ION     CL42423  11.447   6.967   6.521 -0.0685 -0.1482  0.3668
35824ION     CL42424   0.917   6.371  16.212 -0.0928  0.2781  0.2292
35825ION     CL42425  12.921   1.746  23.107 -0.0091 -0.3111  0.2861
35826ION     CL42426   0.336   4.821   1.600 -0.1961  0.0830 -0.2719
35827ION     CL42427  10.302   6.993  20.281  0.1176  0.1762 -0.1910
35828ION     CL42428  31.186   5.187   2.514 -0.1336 -0.3685  0.1740
35829ION     CL42429  14.190   6.814   6.407  0.4564 -0.2580  0.1988
35830ION     CL42430  15.094   3.979   5.376  0.6215 -0.2231 -0.1820
35831ION     CL42431  18.895   6.082   2.910 -0.2030 -0.1403 -0.4885
35832ION     CL42432  14.857   2.993  16.770  0.0877 -0.2763  0.0504
35833ION     CL42433  17.086   2.178  20.207 -0.1845  0.0671  0.4203
35834ION     CL42434   5.917   7.385  16.172 -0.1340 -0.1176 -0.1089
35835ION     CL42435  20.873   0.376   6.237 -0.0035 -0.3443  0.3615
35836ION     CL42436   4.391   7.622   0.898  0.0864  0.3137 -0.0707
35837ION     CL42437  11.991   7.298   0.414  0.1385 -0.0788  0.2351
35838ION     CL42438   8.740   7.141   9.316 -0.1069  0.0855  0.0612
35839ION     CL42439  29.579   7.387  19.160 -0.1997  0.1644  0.2224
35840ION     CL42440  15.332   3.479  22.456 -0.2815 -0.1084 -0.1720
35841ION     CL42441  19.119   6.564  24.660  0.3743  0.4271  0.0388
35842ION     CL42442   6.491   7.821  22.516  0.2645  0.0461  0.0473
35843ION     CL42443  14.122   6.689  20.893  0.1640 -0.2188  0.0741
35844ION     CL42444  20.912   3.796   9.936  0.2400 -0.6007 -0.0065
35845ION     CL42445  21.452   0.175   3.991 -0.2555  0.1310 -0.5154
35846ION     CL42446   1.355   6.003   7.237  0.1822  0.0732 -0.1646
35847ION     CL42447  18.463   3.570   1.160  0.0109 -0.2795 -0.1569
35848ION     CL42448  10.688   5.998  22.977  0.1725  0.3943 -0.1165
35849ION     CL42449   4.619   0.778  18.484  0.1486  0.1653 -0.1212
35850ION     CL42450  29.707   2.434   2.419 -0.1953  0.6391 -0.3866
35851ION     CL42451   6.026   7.599   0.211  0.1148  0.4071 -0.1112
35852ION     CL42452   6.659   6.118  19.295 -0.1286  0.1983  0.3528
35853ION     CL42453   5.185   1.647  25.919  0.2052 -0.0051  0.0170
35854ION     CL42454   1.945   4.708  22.514 -0.3814  0.1655  0.0164
35855ION     CL42455   9.748   3.311  24.110 -0.1816 -0.4052 -0.5252
35856ION     CL42456  26.567   5.669   5.085 -0.2862 -0.0810  0.0865
35857ION     CL42457   3.491   2.900  21.152  0.0910 -0.0872  0.0709
35858ION     CL42458  24.429   0.295   4.877  0.4216  0.5158 -0.0173
35859ION     CL42459  13.387   5.635   6.089 -0.0456 -0.3048 -0.6099
35860ION     CL42460  18.712   5.597  20.650  0.0711  0.3661  0.1655
35861ION     CL42461   6.107   1.044  21.629 -0.0317 -0.2077  0.0838
35862ION     CL42462  26.561   1.671   6.734  0.1257 -0.1530 -0.5720
35863ION     CL42463   2.330   1.476   8.279 -0.1919  0.0348 -0.0755
35864ION     CL42464  28.441   7.011   9.453 -0.1921  0.0205 -0.2618
35865ION     CL42465  26.473   1.856  15.718 -0.2791 -0.0293 -0.0710
35866ION     CL42466  10.167   0.972   7.645  0.3623  0.0600  0.7771
35867ION     CL42467  12.109   4.403   3.662  0.1859 -0.3770  0.0967
35868ION     CL42468  24.453   5.296   0.065 -0.0796 -0.0165 -0.0136
35869ION     CL42469   2.015   4.899  16.517  0.0247  0.2687  0.1955
35870ION     CL42470  27.385   5.454   4.513 -0.1359 -0.2602 -0.0598
35871ION     CL42471   9.725   3.577  24.716 -0.3362 -0.4555 -0.2295
35872ION     CL42472  29.184   2.658  24.177  0.1215 -0.3933  0.6172
35873ION     CL42473   7.772   2.094   8.920  0.0204  0.2792  0.0385
35874ION     CL42474  28.125   6.215  15.663 -0.0349  0.2015  0.0121
35875ION     CL42475   5.946   3.256   9.694 -0.5324 -0.0440  0.2057
35876ION     CL42476  16.796   1.989  22.951 -0.2718 -0.5781 -0.2001
35877ION     CL42477  11.620   4.070   4.739 -0.2028 -0.0321  0.2489
35878ION     CL42478  12.559   3.306   2.272  0.0305 -0.4057 -0.0937
35879ION     CL42479  13.813   5.517   8.051 -0.3713 -0.0702  0.1385
35880ION     CL42480  13.064   1.975  23.883 -0.1903 -0.0973  0.3868
35881ION     CL42481  26.321   6.998  15.769  0.2133  0.0842  0.0371
35882ION     CL42482  27.365   4.000  19.664  0.1703 -0.1272 -0.3195
35883ION     CL42483  19.682   6.013  22.888  0.2521  0.0152  0.5554
35884ION     CL42484   0.540   7.486  21.572 -0.1095  0.2904  0.1066
35885ION     CL42485   5.556   6.187   0.512  0.2979 -0.0603  0.0646
35886ION     CL42486   4.859   4.845  21.687  0.1766  0.1031  0.1902
35887ION     CL42487  20.245   5.733   8.972  0.2100  0.1615  0.0827
35888ION     CL42488  28.452   7.675  19.047 -0.1355 -0.4096 -0.3056
35889ION     CL42489  12.303   0.862   2.019 -0.0089  0.2874  0.0601
35890ION     CL42490  12.977   1.210  19.838  0.0029  0.3029  0.3632
35891ION     CL42491   7.374   0.767  22.602  0.1364  0.1850 -0.1485
35892ION     CL42492  24.755   3.496  15.829  0.0451 -0.1093  0.2691
35893ION     CL42493  16.647   5.042  18.198 -0.3264 -0.4171 -0.0971
35894ION     CL42494   7.808   7.617   2.026 -0.2616 -0.0831  0.1121
35895ION     CL42495  21.578   6.468   0.341 -0.0695 -0.0019  0.1437
35896ION     CL42496  28.331   1.644  20.608  0.1928 -0.1293 -0.1084
35897ION     CL42497   6.212   6.225  20.218 -0.3158  0.4280  0.3834
35898ION     CL42498  17.259   1.087   5.114 -0.1222 -0.1554 -0.3453
35899ION     CL42499   3.282   4.431  24.539 -0.0972 -0.1898 -0.0526
35900ION     CL42500   6.320   5.841   8.562 -0.0245  0.2029 -0.6333
35901ION     CL42501  25.258   7.563   8.841  0.2829  0.1040  0.0565
35902ION     CL42502  26.454   2.637  15.884 -0.6573 -0.3210 -0.3926
35903ION     CL42503  26.961   4.782   0.639 -0.2567 -0.1456  0.2528
35904ION     CL42504  28.221   7.590   9.605 -0.4046  0.1491 -0.2487
35905ION     CL42505   2.398   6.764   8.828 -0.3338  0.0635  0.1119
35906ION     CL42506  10.442   3.778  25.488 -0.1351  0.1024  0.0304
35907ION     CL42507   1.642   6.080   2.824 -0.3142  0.0286  0.0230
35908ION     CL42508  20.841   6.551   2.808  0.1656  0.5044  0.2429
35909ION     CL42509   9.838   0.340   3.972  0.0357 -0.0740 -0.2934
35910ION     CL42510  14.977   6.253  18.783  0.3400  0.1674  0.0456
35911ION     CL42511  30.992   1.031   2.499  0.2829  0.0294  0.0424
35912ION     CL42512  25.167   1.336  19.239 -0.2135 -0.2746  0.0985
35913ION     CL42513  30.064   0.778  24.475  0.4055  0.1637  0.0103
35914ION     CL42514   3.373   2.548  21.754 -0.1628  0.2309  0.1047
35915ION     CL42515  17.028   6.431   9.250  0.1950 -0.1140 -0.1250
35916ION     CL42516  16.681   7.062  22.905 -0.1979 -0.0611  0.2818
35917ION     CL42517  23.215   0.581   6.731 -0.1133 -0.3912 -0.0088
35918ION     CL42518  23.752   2.937   7.256  0.4154 -0.1397  0.1370
35919ION     CL42519  15.278   7.176   8.187 -0.1620 -0.2879 -0.0236
35920ION     CL42520  16.488   1.255   1.547 -0.4260 -0.0482 -0.1366
35921ION     CL42521  12.781   4.275   8.385 -0.4179  0.0124  0.1747
35922ION     CL42522  26.354   6.563  20.734 -0.2766  0.4557  0.1779
35923ION     CL42523  16.178   6.158   1.374  0.1495 -0.0858 -0.0938
35924ION     CL42524  22.309   1.592  18.751 -0.0110  0.6775 -0.1006
35925ION     CL42525  27.982   2.462  20.660 -0.2248 -0.1920 -0.2120
35926ION     CL42526  30.303   2.896   4.090 -0.0458  0.2726  0.0346
35927ION     CL42527  20.572   2.357   4.137 -0.0849  0.2966 -0.1029
35928ION     CL42528  14.272   4.247  19.027  0.1731  0.2054 -0.2729
35929ION     CL42529  15.973   6.757   2.591  0.3424  0.0071 -0.1215
35930ION     CL42530  25.262   4.641   8.405 -0.2750  0.2066  0.0593
35931ION     CL42531   6.333   7.392   5.804  0.1388 -0.2830 -0.1398
35932ION     CL42532   7.664   3.850   0.514  0.1948 -0.4517  0.2606
35933ION     CL42533  27.961   3.135   2.003  0.4069 -0.0142  0.1159
35934ION     CL42534   3.329   6.555  25.145 -0.3612 -0.2310  0.1608
35935ION     CL42535   5.800   0.056   2.533  0.2315  0.3023 -0.2371
35936ION     CL42536   7.724   4.541  17.119  0.4656 -0.3685 -0.3308
35937ION     CL42537  31.398   5.789  19.766 -0.2485 -0.0313 -0.1402
35938ION     CL42538  13.736   4.555   6.732  0.0162 -0.0498 -0.2106
35939ION     CL42539  26.710   3.042  19.661 -0.5214 -0.0150 -0.2273
35940ION     CL42540   8.537   6.224  25.934  0.1122  0.0552 -0.3583
35941ION     CL42541  22.111   7.419   9.783  0.0479  0.3066  0.0182
35942ION     CL42542   5.891   5.154  24.732  0.0182  0.1038 -0.1548
35943ION     CL42543   7.209   4.128  19.447  0.0989  0.2766 -0.1393
35944ION     CL42544  17.381   2.600  20.744 -0.1384  0.0351  0.0181
35945ION     CL42545  21.944   0.149   7.503 -0.0651  0.2770  0.0887
35946ION     CL42546  22.967   5.920  23.947 -0.2965 -0.0932  0.1579
35947ION     CL42547  15.437   2.233  21.745 -0.0114  0.5492 -0.0161
35948ION     CL42548  22.492   3.170   4.257  0.2320  0.0590 -0.1644
35949ION     CL42549  23.254   0.144   1.855 -0.0016 -0.0470 -0.1058
35950ION     CL42550  29.270   1.502  17.176  0.2342  0.3257 -0.2429
35951ION     CL42551   9.706   6.479  20.012 -0.0476 -0.2638 -0.2129
35952ION     CL42552   4.436   5.528  21.906  0.4571  0.5094 -0.1509
35953ION     CL42553  22.908   6.076  17.598  0.0925  0.0773 -0.2524
35954ION     CL42554  30.110   4.651   8.996 -0.0128  0.4502 -0.1573
35955ION     CL42555  16.986   2.639  18.586 -0.1110 -0.5253  0.0781
35956ION     CL42556  10.563   2.101   7.413  0.2012 -0.1965  0.4497
35957ION     CL42557   4.345   4.834   9.372 -0.3077  0.0299 -0.1562
35958ION     CL42558   0.088   3.070   1.067 -0.2234 -0.3757  0.1976
35959ION     CL42559   3.665   3.912   3.439  0.1039  0.0913  0.2507
35960ION     CL42560  15.412   5.504  19.743  0.3554 -0.2480  0.4074
35961ION     CL42561  31.296   3.894   7.959  0.1035  0.1787  0.1537
35962DOPC   NC342562  29.085   5.630  15.404 -0.0441  0.0899 -0.2076
35962DOPC   PO442563  28.967   5.790  15.068 -0.1471  0.3473 -0.0055
35962DOPC   GL142564  28.875   5.588  14.806 -0.0429 -0.0462 -0.0747
35962DOPC   GL242565  28.705   5.432  14.699  0.2005 -0.1390  0.0683
35962DOPC   C1A42566  29.061   5.634  14.386  0.1348 -0.4679 -0.0222
35962DOPC   D2A42567  29.289   5.832  13.945  0.1574  0.0255 -0.1150
35962DOPC   C3A42568  29.741   5.839  13.980 -0.1730  0.1422 -0.1275
35962DOPC   C4A42569  30.209   5.662  13.800 -0.0080  0.1555 -0.0680
35962DOPC   C1B42570  28.591   5.388  14.294 -0.1510 -0.1857  0.0511
35962DOPC   D2B42571  28.567   5.432  13.787 -0.0804  0.1598  0.0567
35962DOPC   C3B42572  28.539   5.522  13.289 -0.0600 -0.0888 -0.5413
35962DOPC   C4B42573  28.627   5.344  12.831 -0.1062 -0.1977  0.1035
35963DOPC   NC342574  20.927   4.158  15.374 -0.1361  0.1986  0.0829
35963DOPC   PO442575  21.275   4.036  15.242  0.2097 -0.1474  0.1577
35963DOPC   GL142576  21.569   4.049  14.898  0.0172  0.3449 -0.0083
35963DOPC   GL242577  21.373   4.204  14.793  0.2062 -0.1839  0.0912
35963DOPC   C1A42578  21.687   4.236  14.464 -0.1160  0.3692  0.0335
35963DOPC   D2A42579  21.571   4.594  14.123  0.0800  0.0993  0.1801
35963DOPC   C3A42580  21.529   4.558  13.628 -0.0802 -0.0812 -0.2653
35963DOPC   C4A42581  21.507   4.600  13.148  0.3038  0.2518  0.3650
35963DOPC   C1B42582  21.287   4.570  14.600 -0.3075  0.5255  0.0034
35963DOPC   D2B42583  20.948   4.725  14.255 -0.1753 -0.4284  0.0191
35963DOPC   C3B42584  20.713   4.552  13.870  0.2861 -0.0796 -0.1669
35963DOPC   C4B42585  20.504   4.113  13.708  0.1110  0.2558  0.0328
35964DOPC   NC342586  26.500   3.055  15.236  0.0375  0.5592  0.0428
35964DOPC   PO442587  26.142   2.897  15.155 -0.1517  0.2034 -0.0024
35964DOPC   GL142588  26.122   2.831  14.704 -0.1970 -0.0974 -0.1856
35964DOPC   GL242589  25.890   2.999  14.715 -0.1447 -0.1880  0.2526
35964DOPC   C1A42590  25.971   2.612  14.386 -0.0423 -0.2562  0.4484
35964DOPC   D2A42591  25.993   2.578  13.937 -0.1801  0.2710 -0.0710
35964DOPC   C3A42592  25.614   2.706  13.704 -0.0723  0.1910 -0.1033
35964DOPC   C4A42593  25.389   3.030  13.539  0.2736  0.0798  0.1448
35964DOPC   C1B42594  26.060   3.131  14.326 -0.2227  0.1731  0.0676
35964DOPC   D2B42595  26.153   3.389  13.871 -0.3727  0.0282  0.0263
35964DOPC   C3B42596  25.851   3.483  13.486 -0.0076 -0.2619  0.3984
35964DOPC   C4B42597  25.410   3.526  13.228 -0.2675 -0.2049 -0.2486
35965DOPC   NC342598  12.799   2.662  15.816  0.1434  0.0691  0.2631
35965DOPC   PO442599  13.073   2.883  15.596  0.1269  0.1533 -0.0654
35965DOPC   GL142600  12.966   2.946  15.116 -0.3711  0.6928 -0.2679
35965DOPC   GL242601  12.970   2.705  15.021  0.2895  0.0713 -0.0707
35965DOPC   C1A42602  13.079   3.189  14.824 -0.3964 -0.2360 -0.1578
35965DOPC   D2A42603  13.056   3.280  14.298  0.2478 -0.1799  0.0589
35965DOPC   C3A42604  13.336   3.148  13.898 -0.2339 -0.1262  0.4133
35965DOPC   C4A42605  13.443   3.176  13.448  0.1160  0.1430  0.0083
35965DOPC   C1B42606  12.935   2.648  14.550  0.2851  0.1638  0.0278
35965DOPC   D2B42607  12.964   2.818  14.157  0.0055  0.0720  0.0460
35965DOPC   C3B42608  13.016   2.801  13.666  0.0643  0.0561 -0.1234
35965DOPC   C4B42609  13.409   2.702  13.318 -0.2493  0.0100  0.0427
35966DOPC   NC342610  17.620   7.441  15.696 -0.2446 -0.0010  0.3494
35966DOPC   PO442611  17.708   7.391  15.305 -0.0050 -0.1370 -0.0907
35966DOPC   GL142612  17.973   7.216  14.916  0.1262  0.1944  0.4140
35966DOPC   GL242613  17.838   7.484  14.914  0.0627  0.1098 -0.0827
35966DOPC   C1A42614  18.005   6.889  14.586  0.0163 -0.0174  0.0227
35966DOPC   D2A42615  18.216   6.560  14.278 -0.1567  0.0868  0.1436
35966DOPC   C3A42616  18.400   6.499  13.838  0.4693 -0.2490  0.2377
35966DOPC   C4A42617  18.430   6.419  13.292  0.1117 -0.1229 -0.1314
35966DOPC   C1B42618  17.767   7.754  14.560 -0.2414  0.0261 -0.0261
35966DOPC   D2B42619  18.079   7.937  14.166 -0.2355 -0.2162 -0.0703
35966DOPC   C3B42620  17.945   7.791  13.725  0.0007  0.2169  0.0721
35966DOPC   C4B42621  17.845   7.618  13.300  0.2218 -0.2680  0.0088
35967DOPC   NC342622  28.270   1.681  14.628 -0.4315  0.1556 -0.0351
35967DOPC   PO442623  28.667   1.668  14.718 -0.1520  0.0771  0.1378
35967DOPC   GL142624  28.667   1.965  14.428  0.2362  0.1050  0.4712
35967DOPC   GL242625  28.344   2.021  14.320 -0.1371 -0.1084  0.0978
35967DOPC   C1A42626  28.902   1.954  14.086 -0.2862 -0.0988  0.2782
35967DOPC   D2A42627  29.177   2.029  13.683 -0.0934  0.1429  0.1248
35967DOPC   C3A42628  29.189   1.776  13.291  0.1318  0.0297  0.0684
35967DOPC   C4A42629  29.280   1.293  13.184 -0.0568 -0.0170  0.1358
35967DOPC   C1B42630  28.195   1.863  13.932  0.0959 -0.0830  0.4156
35967DOPC   D2B42631  28.068   1.895  13.458  0.2667  0.1212 -0.1929
35967DOPC   C3B42632  28.206   2.074  13.052  0.0188  0.1238 -0.0631
35967DOPC   C4B42633  28.226   2.179  12.583  0.0725  0.0174 -0.1746
35968DOPC   NC342634   1.508   4.294  14.759  0.0652 -0.0394  0.0414
35968DOPC   PO442635   1.614   3.958  14.537  0.2650 -0.0750 -0.2013
35968DOPC   GL142636   1.500   3.791  14.146 -0.0571  0.4495  0.0380
35968DOPC   GL242637   1.214   3.828  14.215  0.0133  0.0571  0.3936
35968DOPC   C1A42638   1.511   3.918  13.764  0.1162  0.2549 -0.2517
35968DOPC   D2A42639   1.624   4.170  13.327  0.3398  0.1727 -0.0681
35968DOPC   C3A42640   1.807   3.982  12.893 -0.0979 -0.2202 -0.1958
35968DOPC   C4A42641   1.750   3.718  12.541  0.0122 -0.2335 -0.3207
35968DOPC   C1B42642   1.168   3.467  13.999  0.0220  0.0369  0.3678
35968DOPC   D2B42643   0.951   3.366  13.566  0.2619  0.0641 -0.1142
35968DOPC   C3B42644   0.897   2.909  13.543  0.0481 -0.1317  0.0372
35968DOPC   C4B42645   0.613   2.501  13.580  0.0356 -0.0687 -0.2261
35969DOPC   NC342646   2.659   4.447  14.719  0.0144 -0.1111  0.1394
35969DOPC   PO442647   3.012   4.582  14.612 -0.2667 -0.3229  0.0496
35969DOPC   GL142648   3.071   4.539  14.252 -0.3128  0.2577 -0.1367
35969DOPC   GL242649   3.346   4.584  14.205  0.6739  0.1336 -0.6994
35969DOPC   C1A42650   2.832   4.226  13.894  0.0025 -0.0923 -0.1850
35969DOPC   D2A42651   2.953   4.117  13.444 -0.1851  0.0248 -0.0630
35969DOPC   C3A42652   3.105   4.294  13.040 -0.0478  0.1183  0.1905
35969DOPC   C4A42653   3.448   4.498  12.815 -0.2391 -0.0477 -0.1306
35969DOPC   C1B42654   3.324   4.233  13.937  0.0661 -0.1921  0.0491
35969DOPC   D2B42655   3.559   3.997  13.538  0.1583 -0.0846 -0.0407
35969DOPC   C3B42656   3.586   4.054  13.081  0.3684 -0.2618 -0.0576
35969DOPC   C4B42657   3.491   4.044  12.589 -0.0795  0.0489  0.2638
35970DOPC   NC342658  11.411   4.303  16.093 -0.4140  0.2239 -0.0924
35970DOPC   PO442659  11.195   4.245  15.778 -0.0866  0.2810  0.2373
35970DOPC   GL142660  11.220   4.361  15.390 -0.2024 -0.0312 -0.0590
35970DOPC   GL242661  11.389   4.120  15.311  0.1114  0.0555 -0.0299
35970DOPC   C1A42662  10.944   4.666  15.183  0.1073  0.0212 -0.0639
35970DOPC   D2A42663  10.877   4.892  14.758  0.0379  0.1811 -0.0298
35970DOPC   C3A42664  10.836   4.862  14.337 -0.3141 -0.2112  0.0515
35970DOPC   C4A42665  10.748   4.754  13.858 -0.2395  0.0271  0.4754
35970DOPC   C1B42666  11.579   4.097  14.876  0.0399 -0.1643  0.1660
35970DOPC   D2B42667  11.599   4.191  14.374  0.1190 -0.2415 -0.2065
35970DOPC   C3B42668  11.670   4.428  13.987  0.0496 -0.3328  0.1118
35970DOPC   C4B42669  11.652   4.646  13.544 -0.2383  0.0952  0.0699
35971DOPC   NC342670  30.582   1.003  14.628  0.2886 -0.0954  0.0450
35971DOPC   PO442671  30.839   1.291  14.622  0.0906 -0.1709  0.2067
35971DOPC   GL142672  30.713   1.401  14.317 -0.0494 -0.0359 -0.1687
35971DOPC   GL242673  30.469   1.310  14.294  0.0190  0.0685 -0.1508
35971DOPC   C1A42674  30.712   1.162  13.929  0.2105 -0.0003 -0.5136
35971DOPC   D2A42675  30.675   0.958  13.423 -0.1161 -0.0980  0.1847
35971DOPC   C3A42676  31.066   0.684  13.346 -0.1016  0.0599 -0.0865
35971DOPC   C4A42677  31.540   0.524  13.216  0.2077  0.3532 -0.0419
35971DOPC   C1B42678  30.279   1.327  13.935  0.2898  0.2911 -0.1292
35971DOPC   D2B42679  30.502   1.403  13.491 -0.0871  0.1411 -0.0113
35971DOPC   C3B42680  30.712   1.730  13.194 -0.0183 -0.2482  0.2404
35971DOPC   C4B42681  31.066   1.966  13.005  0.2402 -0.1479 -0.2533
35972DOPC   NC342682  27.731   6.189  15.447 -0.2378 -0.0434 -0.0641
35972DOPC   PO442683  27.429   6.215  15.199  0.0309 -0.0587  0.0416
35972DOPC   GL142684  27.430   6.212  14.795 -0.1843  0.1427  0.0584
35972DOPC   GL242685  27.694   6.094  14.692 -0.0240 -0.1278  0.4512
35972DOPC   C1A42686  27.225   6.331  14.485  0.0254  0.0852  0.1625
35972DOPC   D2A42687  26.969   6.542  14.089  0.1000 -0.0302 -0.0389
35972DOPC   C3A42688  26.606   6.546  13.814 -0.0810 -0.0175 -0.0575
35972DOPC   C4A42689  26.231   6.341  13.550 -0.0178 -0.0068 -0.0075
35972DOPC   C1B42690  27.722   5.940  14.286  0.0507 -0.0656  0.1984
35972DOPC   D2B42691  27.796   5.916  13.786 -0.1184  0.0149 -0.1278
35972DOPC   C3B42692  27.804   5.955  13.353 -0.1864  0.2527  0.0390
35972DOPC   C4B42693  27.905   6.066  12.904  0.0618 -0.2078  0.0933
35973DOPC   NC342694  24.929   0.382  14.699 -0.0747  0.0338  0.1574
35973DOPC   PO442695  25.231   0.557  14.898 -0.1693 -0.2079 -0.1242
35973DOPC   GL142696  25.311   0.457  14.517 -0.0542 -0.0777  0.4140
35973DOPC   GL242697  25.283   0.185  14.441  0.0862  0.0739  0.1799
35973DOPC   C1A42698  25.147   0.751  14.283 -0.0027 -0.0981  0.0571
35973DOPC   D2A42699  24.911   1.048  13.993 -0.1604  0.0177 -0.0720
35973DOPC   C3A42700  24.942   1.098  13.558 -0.0907  0.0170 -0.1629
35973DOPC   C4A42701  25.056   1.193  13.129  0.1478 -0.0663  0.3525
35973DOPC   C1B42702  25.166   0.190  14.040  0.0362  0.1199 -0.1694
35973DOPC   D2B42703  25.039  -0.136  13.637  0.0325  0.1619 -0.0672
35973DOPC   C3B42704  25.384  -0.272  13.322 -0.2000 -0.0936 -0.1651
35973DOPC   C4B42705  25.791  -0.368  13.037 -0.2520 -0.0452  0.1076
35974DOPC   NC342706  12.287   6.768  15.002 -0.0800  0.1095 -0.1961
35974DOPC   PO442707  11.897   6.859  15.050  0.2002  0.0551 -0.0126
35974DOPC   GL142708  11.548   6.831  14.863 -0.3425 -0.0041 -0.1600
35974DOPC   GL242709  11.611   7.090  14.712  0.1159 -0.0904 -0.1723
35974DOPC   C1A42710  11.494   6.473  14.660  0.1286 -0.2155 -0.1376
35974DOPC   D2A42711  11.034   6.273  14.562  0.1745  0.1082 -0.0342
35974DOPC   C3A42712  11.030   6.228  14.133  0.1344  0.1167  0.2238
35974DOPC   C4A42713  11.314   6.221  13.744 -0.2769 -0.1454  0.1278
35974DOPC   C1B42714  11.450   6.965  14.291 -0.0590  0.2964  0.2680
35974DOPC   D2B42715  11.524   7.022  13.777  0.3327  0.0261 -0.1400
35974DOPC   C3B42716  11.535   6.632  13.564  0.0423 -0.0029  0.0533
35974DOPC   C4B42717  11.645   6.387  13.159 -0.0530 -0.0988 -0.2061
35975DOPC   NC342718   2.798   2.972  14.541  0.0279  0.4292 -0.0450
35975DOPC   PO442719   2.754   2.605  14.443 -0.1880 -0.0124  0.1738
35975DOPC   GL142720   3.003   2.558  14.150 -0.0671 -0.0579 -0.0188
35975DOPC   GL242721   3.014   2.850  14.065  0.0330  0.1403 -0.0516
35975DOPC   C1A42722   2.710   2.344  13.884 -0.0152  0.1736 -0.1410
35975DOPC   D2A42723   2.396   2.301  13.464  0.3057 -0.1010  0.1578
35975DOPC   C3A42724   2.478   2.558  13.064 -0.1113 -0.1759  0.3359
35975DOPC   C4A42725   2.677   2.530  12.601 -0.1375  0.0875  0.1699
35975DOPC   C1B42726   3.038   2.709  13.664 -0.2148  0.2388  0.1333
35975DOPC   D2B42727   3.214   2.572  13.193 -0.0155 -0.0275  0.2047
35975DOPC   C3B42728   3.126   2.787  12.717  0.0590 -0.2145  0.0296
35975DOPC   C4B42729   3.195   2.890  12.232  0.0059 -0.3108  0.0701
35976DOPC   NC342730  18.804   1.640  15.364 -0.3025  0.0867 -0.1914
35976DOPC   PO442731  18.470   1.876  15.376  0.1888  0.1396 -0.4516
35976DOPC   GL142732  18.434   2.029  15.046  0.0725 -0.1578 -0.0396
35976DOPC   GL242733  18.668   1.893  14.901  0.1295 -0.0029 -0.1638
35976DOPC   C1A42734  18.176   2.027  14.644  0.2930  0.3048 -0.1254
35976DOPC   D2A42735  17.874   2.095  14.223  0.2533 -0.0981  0.2816
35976DOPC   C3A42736  18.060   1.940  13.858  0.2134 -0.2170 -0.0580
35976DOPC   C4A42737  18.058   1.808  13.363  0.1574  0.0195  0.0118
35976DOPC   C1B42738  18.628   1.842  14.490  0.2158  0.1558  0.1200
35976DOPC   D2B42739  18.497   1.878  14.040 -0.1198  0.1910 -0.2409
35976DOPC   C3B42740  18.543   1.941  13.625  0.1490 -0.0238  0.2179
35976DOPC   C4B42741  18.423   2.134  13.177  0.0661 -0.0273 -0.2844
35977DOPC   NC342742  24.602   7.025  15.367 -0.4056  0.0665 -0.2077
35977DOPC   PO442743  24.890   7.092  15.086  0.1177 -0.1673  0.1071
35977DOPC   GL142744  24.907   7.273  14.761  0.0988 -0.3015 -0.1814
35977DOPC   GL242745  25.142   7.143  14.691  0.0165 -0.0169 -0.2085
35977DOPC   C1A42746  24.737   7.326  14.357  0.1744 -0.0682  0.2927
35977DOPC   D2A42747  24.713   7.309  13.862  0.2410 -0.0823 -0.0603
35977DOPC   C3A42748  24.826   7.026  13.500  0.1443 -0.1826 -0.2250
35977DOPC   C4A42749  24.890   6.892  13.063 -0.1258  0.0621 -0.3310
35977DOPC   C1B42750  25.272   7.035  14.321 -0.2364  0.1679 -0.1601
35977DOPC   D2B42751  25.642   6.978  13.957 -0.0843  0.3161 -0.1738
35977DOPC   C3B42752  25.647   7.412  13.992  0.5403 -0.1699  0.0082
35977DOPC   C4B42753  25.924   7.773  14.152 -0.1159 -0.2115  0.1241
35978DOPC   NC342754  13.530   5.941  15.349  0.0912 -0.2566 -0.2030
35978DOPC   PO442755  13.770   6.104  15.027 -0.0960  0.2801  0.0990
35978DOPC   GL142756  13.545   6.060  14.726  0.0468  0.2860  0.0916
35978DOPC   GL242757  13.739   6.242  14.569  0.4912 -0.2266 -0.0330
35978DOPC   C1A42758  13.439   5.858  14.404  0.0274  0.1597  0.0502
35978DOPC   D2A42759  13.107   5.636  14.181  0.0792 -0.1180  0.0154
35978DOPC   C3A42760  12.992   5.495  13.767 -0.1662  0.0468 -0.1086
35978DOPC   C4A42761  12.930   5.282  13.400  0.1826 -0.2589 -0.0141
35978DOPC   C1B42762  13.731   6.201  14.135 -0.0848 -0.0298  0.3405
35978DOPC   D2B42763  13.904   5.971  13.654  0.0470  0.3202 -0.0727
35978DOPC   C3B42764  13.872   6.045  13.164 -0.2187  0.0256  0.0867
35978DOPC   C4B42765  13.885   6.204  12.692  0.0188 -0.1469 -0.1008
35979DOPC   NC342766  15.650   7.431  14.716 -0.0301 -0.2934 -0.0757
35979DOPC   PO442767  15.478   7.473  15.072  0.0783 -0.0343  0.3896
35979DOPC   GL142768  15.090   7.549  14.946 -0.0324 -0.4008 -0.0915
35979DOPC   GL242769  15.257   7.790  14.819  0.4419 -0.4156  0.4230
35979DOPC   C1A42770  15.091   7.430  14.538  0.1710  0.2650  0.0058
35979DOPC   D2A42771  15.235   7.502  14.069 -0.1485  0.3798 -0.2995
35979DOPC   C3A42772  15.448   7.771  13.749 -0.4144 -0.0039  0.0216
35979DOPC   C4A42773  15.785   8.086  13.487  0.1243 -0.0477 -0.1439
35979DOPC   C1B42774  15.378   7.911  14.428  0.0274  0.0983  0.0772
35979DOPC   D2B42775  15.793   7.756  14.194 -0.0352 -0.1385  0.1992
35979DOPC   C3B42776  15.946   7.620  13.802 -0.0983 -0.0831 -0.1606
35979DOPC   C4B42777  16.237   7.597  13.468  0.0724  0.0235 -0.0255
35980DOPC   NC342778   5.657   6.604  14.980  0.0883  0.1241 -0.1172
35980DOPC   PO442779   5.926   6.296  14.869  0.1719  0.0754  0.0927
35980DOPC   GL142780   6.013   6.319  14.463  0.0165 -0.4182 -0.1671
35980DOPC   GL242781   5.795   6.262  14.263 -0.0410 -0.1972 -0.1729
35980DOPC   C1A42782   6.287   6.610  14.279 -0.2235  0.0821 -0.1700
35980DOPC   D2A42783   6.707   6.761  14.072 -0.0658 -0.2080 -0.1179
35980DOPC   C3A42784   6.722   7.064  13.703  0.0423 -0.1267  0.0822
35980DOPC   C4A42785   6.354   7.259  13.426  0.0698  0.0263 -0.1185
35980DOPC   C1B42786   6.081   5.933  13.956  0.5033  0.0649 -0.4674
35980DOPC   D2B42787   6.274   5.636  13.628 -0.1724  0.1178  0.1938
35980DOPC   C3B42788   6.487   5.220  13.465 -0.1330  0.2612  0.0878
35980DOPC   C4B42789   6.799   4.883  13.151  0.0288 -0.2018 -0.0384
35981DOPC   NC342790  21.492   0.835  14.911 -0.1789 -0.0911  0.1930
35981DOPC   PO442791  21.184   1.077  14.936  0.3182 -0.0255  0.0570
35981DOPC   GL142792  21.207   1.425  14.672  0.1327  0.3153  0.1571
35981DOPC   GL242793  20.933   1.356  14.597 -0.0503 -0.0794 -0.3489
35981DOPC   C1A42794  21.460   1.728  14.435  0.1236 -0.0604 -0.2676
35981DOPC   D2A42795  21.432   2.034  14.044  0.1809  0.1103  0.0054
35981DOPC   C3A42796  21.316   1.943  13.584 -0.1809 -0.0749  0.0071
35981DOPC   C4A42797  21.431   1.913  13.119  0.0813  0.2632  0.0980
35981DOPC   C1B42798  20.710   1.260  14.233  0.0265 -0.0788  0.0588
35981DOPC   D2B42799  20.333   1.427  13.945 -0.2548  0.1014  0.1798
35981DOPC   C3B42800  20.390   1.494  13.495 -0.2599 -0.0656  0.2355
35981DOPC   C4B42801  20.565   1.300  13.097 -0.1382  0.0872 -0.0284
35982DOPC   NC342802  21.749   3.997  15.292 -0.0514  0.2138 -0.1683
35982DOPC   PO442803  22.096   4.200  15.243  0.2627  0.2280 -0.1049
35982DOPC   GL142804  22.227   4.351  14.866 -0.1265 -0.3157  0.1030
35982DOPC   GL242805  21.977   4.403  14.765  0.1559  0.2079 -0.1737
35982DOPC   C1A42806  22.421   4.549  14.486 -0.2344  0.0551 -0.0233
35982DOPC   D2A42807  22.408   4.810  14.075 -0.1471 -0.1682  0.0104
35982DOPC   C3A42808  22.681   4.779  13.699  0.0734  0.1896 -0.1618
35982DOPC   C4A42809  23.024   4.910  13.462 -0.2188  0.2226 -0.0230
35982DOPC   C1B42810  21.915   4.679  14.503  0.0296 -0.1533 -0.0647
35982DOPC   D2B42811  21.973   4.962  14.096  0.1436  0.3471  0.0218
35982DOPC   C3B42812  21.701   5.006  13.770  0.1285 -0.1333 -0.0977
35982DOPC   C4B42813  21.487   5.188  13.325  0.0688  0.0609 -0.1703
35983DOPC   NC342814  25.868   2.214  14.809 -0.0857 -0.4193  0.0069
35983DOPC   PO442815  25.919   1.893  15.006 -0.0146 -0.0741 -0.3070
35983DOPC   GL142816  26.062   1.717  14.704 -0.2404 -0.4912  0.1263
35983DOPC   GL242817  26.043   1.447  14.736  0.1396  0.1363  0.1741
35983DOPC   C1A42818  25.860   1.775  14.297  0.3308  0.1815  0.2329
35983DOPC   D2A42819  25.666   1.644  13.820  0.2556  0.1390  0.0773
35983DOPC   C3A42820  25.634   1.922  13.407  0.0308 -0.0320  0.1611
35983DOPC   C4A42821  25.808   2.032  12.934 -0.2128 -0.0017  0.1799
35983DOPC   C1B42822  25.912   1.269  14.365 -0.2291  0.0231 -0.0288
35983DOPC   D2B42823  25.915   1.211  13.835  0.2014 -0.0956 -0.2358
35983DOPC   C3B42824  25.938   1.203  13.410  0.0934 -0.1644 -0.0136
35983DOPC   C4B42825  26.091   1.038  12.992 -0.1540 -0.0859  0.1520
35984DOPC   NC342826   5.607   0.589  14.844 -0.1995 -0.0622  0.1311
35984DOPC   PO442827   5.793   0.812  14.588 -0.1529 -0.0078 -0.0471
35984DOPC   GL142828   5.717   1.042  14.361  0.0889  0.1900  0.0579
35984DOPC   GL242829   5.743   1.257  14.319  0.0698  0.0727 -0.0946
35984DOPC   C1A42830   5.627   1.060  13.920 -0.0609 -0.1388 -0.2756
35984DOPC   D2A42831   5.616   0.983  13.427  0.1249  0.1336 -0.2406
35984DOPC   C3A42832   5.415   0.875  13.042 -0.0917  0.1091 -0.3000
35984DOPC   C4A42833   5.210   0.959  12.625  0.1767 -0.0889  0.1461
35984DOPC   C1B42834   6.063   1.251  14.036  0.0873 -0.0545 -0.2245
35984DOPC   D2B42835   6.388   1.504  13.756 -0.0429  0.1246  0.0247
35984DOPC   C3B42836   6.528   1.837  13.502 -0.0841 -0.0677 -0.0677
35984DOPC   C4B42837   6.392   2.140  13.116 -0.2389 -0.0731  0.1299
35985DOPC   NC342838  22.126   1.563  15.048 -0.1436  0.0878  0.1361
35985DOPC   PO442839  21.759   1.388  15.149  0.1120 -0.0252 -0.1545
35985DOPC   GL142840  21.654   1.539  14.810 -0.1210  0.0734 -0.3183
35985DOPC   GL242841  21.623   1.273  14.698 -0.2968 -0.0997 -0.2063
35985DOPC   C1A42842  21.883   1.870  14.678 -0.1367 -0.0661 -0.0168
35985DOPC   D2A42843  22.343   2.037  14.604  0.0294  0.0399 -0.0270
35985DOPC   C3A42844  22.470   2.156  14.191  0.0428 -0.0476 -0.2851
35985DOPC   C4A42845  22.716   2.043  13.757 -0.2689  0.0461 -0.3753
35985DOPC   C1B42846  21.312   1.230  14.308 -0.0822  0.1529 -0.1194
35985DOPC   D2B42847  21.160   1.077  13.855  0.0102  0.2047  0.1384
35985DOPC   C3B42848  21.479   0.946  13.482  0.1245 -0.0519 -0.2827
35985DOPC   C4B42849  21.855   1.141  13.257 -0.0190 -0.2918  0.0895
35986DOPC   NC342850   4.569   3.022  14.506 -0.1441  0.1269  0.0746
35986DOPC   PO442851   4.402   2.677  14.608  0.0930  0.0303 -0.2084
35986DOPC   GL142852   4.198   2.395  14.404  0.2400  0.2387  0.2401
35986DOPC   GL242853   4.470   2.392  14.300  0.4316  0.1733  0.1388
35986DOPC   C1A42854   3.973   2.376  14.064 -0.0216 -0.0107  0.0198
35986DOPC   D2A42855   3.606   2.206  13.721 -0.1070  0.0600 -0.0072
35986DOPC   C3A42856   3.174   2.127  13.794 -0.1253 -0.4241 -0.0279
35986DOPC   C4A42857   2.946   2.008  14.254  0.0685 -0.1522  0.1569
35986DOPC   C1B42858   4.483   2.302  13.855  0.3561  0.4395  0.0020
35986DOPC   D2B42859   4.518   2.367  13.363 -0.0714  0.0468 -0.2091
35986DOPC   C3B42860   4.210   2.383  13.013 -0.1745  0.0475  0.0384
35986DOPC   C4B42861   4.180   2.563  12.545  0.1790  0.1473  0.0477
35987DOPC   NC342862   0.204   0.716  14.716 -0.2501 -0.0379 -0.0472
35987DOPC   PO442863   0.001   0.431  14.542 -0.0991  0.1298  0.2216
35987DOPC   GL142864   0.027   0.440  14.146 -0.2715  0.0798  0.3944
35987DOPC   GL242865  -0.273   0.499  14.000  0.0471 -0.0949  0.0081
35987DOPC   C1A42866   0.356   0.500  13.904  0.0284  0.0265 -0.5163
35987DOPC   D2A42867   0.594   0.345  13.514  0.0093  0.0901 -0.2439
35987DOPC   C3A42868   0.417  -0.036  13.319  0.0303  0.0435  0.0638
35987DOPC   C4A42869   0.389  -0.474  13.164  0.3107 -0.0103  0.1410
35987DOPC   C1B42870  -0.538   0.338  13.635  0.3920 -0.3086  0.2563
35987DOPC   D2B42871  -0.812   0.367  13.223  0.1260 -0.1933  0.1600
35987DOPC   C3B42872  -0.898   0.729  13.005 -0.0087 -0.0585 -0.2259
35987DOPC   C4B42873  -0.865   1.217  12.950 -0.1483 -0.1406 -0.0769
35988DOPC   NC342874  30.861   5.276  14.340 -0.1704  0.1054  0.0603
35988DOPC   PO442875  30.825   5.654  14.259  0.0202 -0.0834  0.2114
35988DOPC   GL142876  31.119   5.713  14.038  0.1687 -0.2532 -0.3212
35988DOPC   GL242877  31.117   5.404  13.940  0.1639  0.1514  0.1190
35988DOPC   C1A42878  30.957   5.918  13.670  0.0219 -0.1039 -0.0782
35988DOPC   D2A42879  30.864   6.170  13.327  0.0155 -0.0314 -0.0234
35988DOPC   C3A42880  30.949   6.065  12.919 -0.1502  0.2170 -0.1527
35988DOPC   C4A42881  30.954   5.844  12.488  0.1705  0.0165  0.0420
35988DOPC   C1B42882  31.270   5.365  13.575  0.0762  0.1610  0.0913
35988DOPC   D2B42883  31.495   5.461  13.131  0.0233 -0.0188  0.1007
35988DOPC   C3B42884  31.275   5.424  12.724  0.1325 -0.0894  0.0540
35988DOPC   C4B42885  31.098   5.394  12.268 -0.1638  0.2547  0.3239
35989DOPC   NC342886   1.404   4.964  14.586 -0.1867  0.0546 -0.1015
35989DOPC   PO442887   1.212   4.637  14.600  0.3066 -0.2300 -0.0298
35989DOPC   GL142888   1.018   4.779  14.241  0.0160  0.1344  0.2256
35989DOPC   GL242889   1.297   4.699  14.140  0.1029 -0.1052  0.3288
35989DOPC   C1A42890   1.032   4.819  13.743 -0.0421 -0.2025  0.3754
35989DOPC   D2A42891   1.293   4.695  13.312 -0.2764 -0.0621 -0.1672
35989DOPC   C3A42892   1.332   4.639  12.876 -0.0212 -0.1404  0.1342
35989DOPC   C4A42893   1.651   4.363  12.566  0.0181  0.0797  0.3190
35989DOPC   C1B42894   1.488   4.633  13.773 -0.0008 -0.0388 -0.0607
35989DOPC   D2B42895   1.839   4.579  13.466 -0.2299 -0.3766 -0.0794
35989DOPC   C3B42896   2.092   4.383  13.086 -0.0415  0.2832 -0.2679
35989DOPC   C4B42897   2.129   4.176  12.589  0.1422 -0.0338  0.0847
35990DOPC   NC342898  27.611   4.020  14.963 -0.1907  0.1933 -0.0479
35990DOPC   PO442899  27.593   4.369  14.784 -0.0113  0.1054  0.0596
35990DOPC   GL142900  27.531   4.462  14.382 -0.1095 -0.2298 -0.0394
35990DOPC   GL242901  27.535   4.186  14.339 -0.1699 -0.3182  0.2223
35990DOPC   C1A42902  27.413   4.726  14.023  0.0151  0.3490 -0.0826
35990DOPC   D2A42903  27.346   5.012  13.573 -0.0024 -0.2094  0.1581
35990DOPC   C3A42904  27.514   4.838  13.156 -0.1479  0.2221 -0.0471
35990DOPC   C4A42905  27.619   4.655  12.744 -0.0425  0.0318 -0.3936
35990DOPC   C1B42906  27.198   4.092  14.078  0.2214 -0.0696  0.2032
35990DOPC   D2B42907  26.915   3.705  13.837  0.1890 -0.0646  0.3149
35990DOPC   C3B42908  26.485   3.825  13.612  0.1180 -0.1700 -0.2265
35990DOPC   C4B42909  26.353   3.901  13.118 -0.1200  0.0716 -0.0541
35991DOPC   NC342910   1.518   7.383  14.350  0.6869 -0.0855  0.1040
35991DOPC   PO442911   1.254   7.062  14.326  0.0234  0.0719  0.0214
35991DOPC   GL142912   1.234   6.972  13.948 -0.0239  0.0910 -0.0376
35991DOPC   GL242913   1.418   7.241  13.844 -0.1106  0.1447  0.1493
35991DOPC   C1A42914   1.163   6.797  13.499  0.0271 -0.0555 -0.0817
35991DOPC   D2A42915   1.281   6.679  13.034 -0.1533  0.1499  0.3759
35991DOPC   C3A42916   1.110   6.392  12.621  0.1726  0.2831  0.0163
35991DOPC   C4A42917   0.826   6.123  12.335 -0.0921  0.1092  0.1706
35991DOPC   C1B42918   1.334   7.223  13.407 -0.0772 -0.2181  0.2152
35991DOPC   D2B42919   1.264   7.253  12.880  0.1200 -0.1188  0.1421
35991DOPC   C3B42920   0.954   7.035  12.574  0.1675 -0.1920 -0.0291
35991DOPC   C4B42921   0.884   6.643  12.235 -0.0259 -0.4968 -0.0891
35992DOPC   NC342922   2.213   4.661  14.542  0.0868  0.1378  0.4662
35992DOPC   PO442923   2.308   4.956  14.268 -0.0707 -0.1983 -0.2747
35992DOPC   GL142924   2.283   4.862  13.930  0.3680  0.4867 -0.1102
35992DOPC   GL242925   2.587   4.783  13.811  0.1081 -0.0062 -0.1793
35992DOPC   C1A42926   1.968   5.155  13.737 -0.3174 -0.0493  0.0664
35992DOPC   D2A42927   1.806   5.590  13.459 -0.2550  0.3155  0.1364
35992DOPC   C3A42928   1.395   5.578  13.236 -0.1411  0.0936  0.1955
35992DOPC   C4A42929   1.309   5.677  12.788  0.0155  0.0239 -0.1044
35992DOPC   C1B42930   2.782   4.563  13.430  0.2591 -0.2311  0.0336
35992DOPC   D2B42931   2.603   4.268  13.108  0.0099  0.0948  0.1564
35992DOPC   C3B42932   2.657   4.214  12.680  0.0365 -0.1581 -0.1792
35992DOPC   C4B42933   2.713   4.649  12.386 -0.0572 -0.1390 -0.2118
35993DOPC   NC342934  30.583   2.859  14.703  0.1754 -0.2439 -0.0512
35993DOPC   PO442935  30.942   3.062  14.767  0.4130 -0.2012  0.0372
35993DOPC   GL142936  30.858   3.149  14.371 -0.2534  0.1481  0.0949
35993DOPC   GL242937  30.811   2.797  14.294  0.1338  0.0163  0.0977
35993DOPC   C1A42938  31.047   3.178  13.988 -0.1067  0.2722 -0.1944
35993DOPC   D2A42939  31.441   3.365  13.856  0.1846 -0.0480  0.2411
35993DOPC   C3A42940  31.545   3.457  13.417 -0.0963 -0.0166 -0.1283
35993DOPC   C4A42941  31.649   3.654  13.050  0.1341 -0.0903  0.1392
35993DOPC   C1B42942  30.563   2.792  13.928  0.0062  0.2843  0.1429
35993DOPC   D2B42943  30.547   2.767  13.396  0.0854  0.1964  0.1549
35993DOPC   C3B42944  30.638   3.114  13.112  0.2146 -0.0464  0.0642
35993DOPC   C4B42945  30.764   3.230  12.656 -0.2520 -0.2834  0.0968
35994DOPC   NC342946  28.412   3.263  15.076 -0.2379 -0.1730  0.2429
35994DOPC   PO442947  28.277   3.621  14.940  0.0824  0.4291 -0.2093
35994DOPC   GL142948  28.533   3.718  14.550  0.0882  0.8416  0.1380
35994DOPC   GL242949  28.631   3.403  14.581 -0.0989 -0.3735  0.3414
35994DOPC   C1A42950  28.277   3.729  14.133 -0.0705 -0.0594 -0.3277
35994DOPC   D2A42951  28.025   3.731  13.685  0.0013  0.0529  0.2629
35994DOPC   C3A42952  27.811   3.570  13.369  0.1522 -0.1011  0.1231
35994DOPC   C4A42953  27.563   3.285  13.108 -0.3090  0.1174 -0.5348
35994DOPC   C1B42954  28.633   3.316  14.088 -0.3478 -0.1715 -0.3852
35994DOPC   D2B42955  28.517   3.592  13.652 -0.0320 -0.2035 -0.0053
35994DOPC   C3B42956  28.342   3.847  13.331 -0.0055  0.0988 -0.1912
35994DOPC   C4B42957  28.269   4.231  13.073 -0.0654 -0.0979 -0.1013
35995DOPC   NC342958  20.108   6.464  15.696 -0.2032  0.0998 -0.1569
35995DOPC   PO442959  20.356   6.723  15.667 -0.3639  0.2401 -0.1942
35995DOPC   GL142960  20.494   6.731  15.257  0.0596  0.2031  0.0345
35995DOPC   GL242961  20.731   6.716  15.164 -0.0223  0.0149  0.0364
35995DOPC   C1A42962  20.287   6.508  14.930 -0.1977 -0.0733 -0.2059
35995DOPC   D2A42963  20.339   6.330  14.492 -0.0146 -0.1418  0.1639
35995DOPC   C3A42964  19.999   6.428  14.209  0.0068 -0.0404 -0.1989
35995DOPC   C4A42965  19.825   6.811  13.997 -0.0970 -0.1822 -0.1095
35995DOPC   C1B42966  20.821   6.482  14.801  0.0069  0.0900  0.0174
35995DOPC   D2B42967  20.835   6.206  14.361  0.1850  0.1679  0.2919
35995DOPC   C3B42968  20.558   6.218  13.980 -0.4246 -0.3130  0.0034
35995DOPC   C4B42969  20.133   6.187  13.766 -0.2991 -0.2516  0.2854
35996DOPC   NC342970   5.768   4.292  15.237  0.0211 -0.1373 -0.2125
35996DOPC   PO442971   5.417   4.449  15.099  0.1299  0.0834  0.0575
35996DOPC   GL142972   5.317   4.353  14.703 -0.2377  0.1386  0.0659
35996DOPC   GL242973   5.246   4.676  14.710 -0.1101  0.0914 -0.1169
35996DOPC   C1A42974   5.320   4.087  14.301  0.0145 -0.1406  0.1844
35996DOPC   D2A42975   5.040   3.801  14.025 -0.0155  0.0033  0.0371
35996DOPC   C3A42976   5.072   3.345  14.044 -0.1668  0.2042 -0.0253
35996DOPC   C4A42977   5.164   2.950  13.769  0.0521  0.0216  0.1111
35996DOPC   C1B42978   5.272   4.573  14.246  0.2339  0.1473 -0.0725
35996DOPC   D2B42979   5.214   4.287  13.842 -0.0059  0.0687 -0.3879
35996DOPC   C3B42980   5.450   4.163  13.467 -0.3254  0.1860 -0.0732
35996DOPC   C4B42981   5.666   3.963  13.054 -0.0879 -0.0355 -0.2462
35997DOPC   NC342982   2.747   6.308  14.297 -0.0685  0.0676  0.3253
35997DOPC   PO442983   2.358   6.408  14.391  0.1056  0.0979 -0.3164
35997DOPC   GL142984   2.132   6.305  14.056  0.1806 -0.3248 -0.0259
35997DOPC   GL242985   2.122   6.564  14.000  0.1079  0.1069 -0.0834
35997DOPC   C1A42986   1.885   6.293  13.677  0.4723 -0.0908  0.2210
35997DOPC   D2A42987   1.609   6.424  13.321  0.1233  0.1113 -0.1115
35997DOPC   C3A42988   1.441   6.192  12.904  0.0830 -0.0319 -0.1907
35997DOPC   C4A42989   1.661   6.369  12.465 -0.3727 -0.0076 -0.1707
35997DOPC   C1B42990   2.153   6.758  13.627 -0.2013 -0.0305  0.0758
35997DOPC   D2B42991   2.297   6.695  13.175  0.1206 -0.3143  0.0972
35997DOPC   C3B42992   2.699   6.643  12.944 -0.4313  0.1227 -0.2718
35997DOPC   C4B42993   3.174   6.404  12.803 -0.0544 -0.1807 -0.3708
35998DOPC   NC342994  20.098   2.648  15.516  0.0181  0.1335 -0.1734
35998DOPC   PO442995  19.721   2.745  15.401 -0.0311  0.2787  0.2939
35998DOPC   GL142996  19.588   2.811  15.029 -0.3228  0.1184  0.4582
35998DOPC   GL242997  19.323   2.891  15.093 -0.2098 -0.0065 -0.1775
35998DOPC   C1A42998  19.516   2.686  14.634  0.2313  0.0715 -0.1794
35998DOPC   D2A42999  19.214   2.486  14.272  0.2470 -0.1213 -0.0346
35998DOPC   C3A43000  19.016   2.778  13.909 -0.1980 -0.0824  0.1034
35998DOPC   C4A43001  18.933   2.860  13.431 -0.1988 -0.0852  0.0019
35998DOPC   C1B43002  19.074   2.576  14.801  0.3127  0.0534 -0.0898
35998DOPC   D2B43003  19.253   2.086  14.658  0.2364  0.1699 -0.0489
35998DOPC   C3B43004  19.244   1.967  14.274 -0.0794 -0.0736  0.2813
35998DOPC   C4B43005  18.980   1.866  13.890 -0.0696  0.0994 -0.0644
35999DOPC   NC343006  25.579   1.242  15.608 -0.4213  0.2413  0.1739
35999DOPC   PO443007  25.304   1.096  15.344  0.3263 -0.1598  0.1697
35999DOPC   GL143008  25.487   1.073  14.938 -0.1233 -0.0979  0.1724
35999DOPC   GL243009  25.212   1.012  14.913 -0.2525  0.1902  0.0597
35999DOPC   C1A43010  25.503   1.010  14.465 -0.1521  0.0742 -0.0886
35999DOPC   D2A43011  25.591   0.823  13.997  0.1582  0.0689 -0.0624
35999DOPC   C3A43012  25.248   0.656  13.715  0.0869  0.2197 -0.0475
35999DOPC   C4A43013  25.029   0.670  13.271 -0.0977  0.1387 -0.0679
35999DOPC   C1B43014  24.981   1.176  14.511 -0.2335 -0.1139 -0.1168
35999DOPC   D2B43015  24.505   1.313  14.500 -0.1524 -0.0775 -0.0754
35999DOPC   C3B43016  24.170   1.402  14.182 -0.0257 -0.1824  0.1163
35999DOPC   C4B43017  24.050   1.246  13.721  0.2225  0.2297 -0.1455
36000DOPC   NC343018  11.491   1.011  15.687  0.2135 -0.1596  0.0200
36000DOPC   PO443019  11.425   1.281  15.413 -0.3667 -0.0276  0.0618
36000DOPC   GL143020  11.370   1.066  14.945  0.0889  0.1618 -0.1890
36000DOPC   GL243021  11.490   1.303  14.895  0.0004 -0.4300 -0.3408
36000DOPC   C1A43022  11.660   1.032  14.618 -0.1031  0.0794 -0.2286
36000DOPC   D2A43023  12.034   1.131  14.386  0.0792 -0.0045 -0.2072
36000DOPC   C3A43024  12.223   1.134  13.963 -0.0634  0.0924 -0.3069
36000DOPC   C4A43025  12.435   1.213  13.536 -0.4608  0.3735 -0.1807
36000DOPC   C1B43026  11.816   1.499  14.668  0.1031  0.2018 -0.1921
36000DOPC   D2B43027  12.077   1.626  14.245  0.2886 -0.2489 -0.0394
36000DOPC   C3B43028  12.466   1.541  13.936  0.0847 -0.1418  0.1056
36000DOPC   C4B43029  12.895   1.547  13.703  0.0984  0.1195  0.1081
36001DOPC   NC343030   1.921   2.329  14.194 -0.0844  0.0897 -0.0031
36001DOPC   PO443031   2.165   2.645  14.211 -0.0294  0.0428 -0.1267
36001DOPC   GL143032   2.255   2.634  13.882 -0.1602 -0.2057  0.2458
36001DOPC   GL243033   2.537   2.777  13.871 -0.0201 -0.0440  0.0187
36001DOPC   C1A43034   2.059   2.836  13.546 -0.2761 -0.0606  0.1973
36001DOPC   D2A43035   1.827   3.177  13.297 -0.0888 -0.0878  0.1733
36001DOPC   C3A43036   2.071   3.388  12.904  0.1756  0.1432  0.3548
36001DOPC   C4A43037   2.167   3.159  12.461  0.2003  0.0654  0.2170
36001DOPC   C1B43038   2.624   2.881  13.506  0.3199  0.1322 -0.1922
36001DOPC   D2B43039   2.753   2.954  13.060  0.3429 -0.0309 -0.0183
36001DOPC   C3B43040   3.102   3.312  12.960 -0.1392  0.2847 -0.1417
36001DOPC   C4B43041   3.436   3.594  12.798  0.1473 -0.0769 -0.0746
36002DOPC   NC343042   3.488   5.015  14.427  0.1092 -0.1166 -0.0217
36002DOPC   PO443043   3.150   5.121  14.494  0.0420 -0.1708  0.0906
36002DOPC   GL143044   2.899   4.930  14.182 -0.0922 -0.2463 -0.4482
36002DOPC   GL243045   2.910   5.161  14.014 -0.1583 -0.1145  0.2393
36002DOPC   C1A43046   3.077   4.716  13.849 -0.2243  0.2368  0.1997
36002DOPC   D2A43047   3.335   4.411  13.495  0.3274 -0.4213 -0.1488
36002DOPC   C3A43048   3.721   4.628  13.256 -0.1338  0.0967  0.2690
36002DOPC   C4A43049   4.052   4.836  12.935  0.1696 -0.3057  0.0802
36002DOPC   C1B43050   2.912   5.071  13.576  0.0390  0.0282 -0.1256
36002DOPC   D2B43051   2.744   5.153  13.095 -0.1126  0.0191  0.2901
36002DOPC   C3B43052   2.826   5.504  12.778 -0.1326 -0.0464  0.2640
36002DOPC   C4B43053   2.775   5.612  12.285 -0.0871 -0.2267 -0.1505
36003DOPC   NC343054  28.317   0.515  14.397 -0.0484  0.0506  0.2155
36003DOPC   PO443055  28.336   0.879  14.598  0.1270 -0.0525 -0.2309
36003DOPC   GL143056  28.178   1.258  14.381 -0.2576 -0.1627 -0.0985
36003DOPC   GL243057  28.496   1.198  14.202  0.1313  0.1521 -0.3984
36003DOPC   C1A43058  28.000   1.386  14.035 -0.0943  0.0311 -0.0365
36003DOPC   D2A43059  27.749   1.523  13.645 -0.0791  0.1113  0.1528
36003DOPC   C3A43060  27.942   1.371  13.246  0.1078  0.0394  0.2210
36003DOPC   C4A43061  28.075   1.048  12.836  0.0345  0.1170  0.3339
36003DOPC   C1B43062  28.596   1.577  14.068  0.0993 -0.0876 -0.1166
36003DOPC   D2B43063  28.739   1.854  13.643 -0.2322  0.0040  0.0168
36003DOPC   C3B43064  28.619   1.911  13.172 -0.0854  0.1170  0.0073
36003DOPC   C4B43065  28.613   1.896  12.680 -0.1373 -0.3408  0.1014
36004DOPC   NC343066  15.033   6.790  15.312  0.1278  0.3044 -0.4327
36004DOPC   PO443067  14.686   6.999  15.348 -0.2172 -0.0120  0.1371
36004DOPC   GL143068  14.474   6.860  15.064  0.1935 -0.0650 -0.0252
36004DOPC   GL243069  14.633   6.646  14.946 -0.2684 -0.1582 -0.0603
36004DOPC   C1A43070  14.188   7.016  14.710  0.1705  0.0520  0.0805
36004DOPC   D2A43071  13.913   7.131  14.238 -0.0979 -0.0477  0.0260
36004DOPC   C3A43072  13.911   7.478  14.028  0.1537 -0.0080 -0.1570
36004DOPC   C4A43073  13.841   7.875  13.768  0.2273  0.0141  0.2574
36004DOPC   C1B43074  14.487   6.675  14.513  0.0155 -0.0620 -0.0399
36004DOPC   D2B43075  14.205   6.773  14.119 -0.1399 -0.1811 -0.0557
36004DOPC   C3B43076  14.026   6.985  13.710  0.3857 -0.0803 -0.2335
36004DOPC   C4B43077  13.863   6.937  13.255 -0.2089  0.0411  0.1121
36005DOPC   NC343078  20.924   2.260  15.205  0.0474 -0.2744  0.1656
36005DOPC   PO443079  20.736   1.911  15.171  0.0254 -0.0534 -0.0204
36005DOPC   GL143080  20.846   1.783  14.781 -0.1651  0.1860  0.0932
36005DOPC   GL243081  20.563   1.687  14.745  0.0698  0.0034 -0.3199
36005DOPC   C1A43082  21.001   1.833  14.374 -0.0774  0.0934  0.3330
36005DOPC   D2A43083  20.893   1.962  13.939 -0.2437  0.1710 -0.0980
36005DOPC   C3A43084  20.647   2.004  13.588  0.0291  0.0227 -0.3957
36005DOPC   C4A43085  20.431   1.950  13.190 -0.0064  0.1427 -0.0389
36005DOPC   C1B43086  20.348   1.692  14.395  0.2794 -0.2533  0.2216
36005DOPC   D2B43087  20.163   1.971  13.972  0.1916  0.0911  0.2897
36005DOPC   C3B43088  19.730   2.066  13.848 -0.1051 -0.1306 -0.2542
36005DOPC   C4B43089  19.307   2.123  13.710 -0.2328 -0.3662 -0.0184
36006DOPC   NC343090  27.955   2.184  14.887 -0.0649  0.0408 -0.1457
36006DOPC   PO443091  27.782   1.803  14.813 -0.2029  0.0168 -0.0587
36006DOPC   GL143092  27.809   1.959  14.428 -0.2048  0.1720  0.0434
36006DOPC   GL243093  27.875   2.172  14.467 -0.5468 -0.2945 -0.0135
36006DOPC   C1A43094  27.635   1.833  14.080  0.1866 -0.1772 -0.0791
36006DOPC   D2A43095  27.493   2.032  13.598 -0.0010 -0.1176 -0.2116
36006DOPC   C3A43096  27.241   2.057  13.146 -0.0158  0.0020 -0.1531
36006DOPC   C4A43097  26.930   2.145  12.735  0.0043  0.3026 -0.0067
36006DOPC   C1B43098  27.703   2.351  14.143  0.1082 -0.0817 -0.0395
36006DOPC   D2B43099  27.816   2.390  13.640  0.0391 -0.1861 -0.0331
36006DOPC   C3B43100  27.550   2.464  13.293  0.0824 -0.0408  0.1312
36006DOPC   C4B43101  27.284   2.467  12.817 -0.0033 -0.1895 -0.1768
36007DOPC   NC343102  13.846   5.507  15.425  0.1862 -0.3009 -0.1105
36007DOPC   PO443103  14.164   5.598  15.187 -0.1447  0.1713  0.1082
36007DOPC   GL143104  14.242   5.426  14.841 -0.2086 -0.1984  0.3098
36007DOPC   GL243105  14.054   5.378  14.635  0.2285  0.1062  0.2853
36007DOPC   C1A43106  14.590   5.339  14.640 -0.3016  0.6333  0.0808
36007DOPC   D2A43107  14.950   5.110  14.505 -0.0546  0.2210 -0.0048
36007DOPC   C3A43108  14.881   5.293  14.096  0.0378 -0.2113  0.0292
36007DOPC   C4A43109  14.938   5.358  13.634  0.0648  0.2487 -0.0025
36007DOPC   C1B43110  13.994   5.129  14.261  0.3304 -0.0954 -0.4558
36007DOPC   D2B43111  13.958   5.007  13.743  0.0032  0.0960 -0.2296
36007DOPC   C3B43112  13.743   4.699  13.494 -0.0912 -0.2320 -0.0671
36007DOPC   C4B43113  13.423   4.584  13.147 -0.1064 -0.1459 -0.2425
36008DOPC   NC343114   7.872   7.013  15.195 -0.0371 -0.0385  0.3334
36008DOPC   PO443115   7.769   6.761  14.891  0.3126  0.0838  0.5547
36008DOPC   GL143116   7.854   6.861  14.399  0.0185 -0.0835  0.0478
36008DOPC   GL243117   7.684   6.692  14.375  0.0455  0.1086 -0.1139
36008DOPC   C1A43118   8.142   6.903  14.069  0.0774 -0.2114  0.0787
36008DOPC   D2A43119   8.428   7.133  13.731  0.1487 -0.0078 -0.1065
36008DOPC   C3A43120   8.878   7.400  13.644  0.0251 -0.0062 -0.0575
36008DOPC   C4A43121   9.165   7.708  13.431 -0.1472 -0.0702 -0.2160
36008DOPC   C1B43122   7.832   6.495  14.078 -0.0791  0.3511  0.1537
36008DOPC   D2B43123   7.989   6.436  13.609 -0.1129 -0.1530 -0.1246
36008DOPC   C3B43124   8.007   6.246  13.151  0.1633  0.1796  0.0090
36008DOPC   C4B43125   8.010   6.089  12.736  0.1724  0.0185  0.3717
36009DOPC   NC343126  20.565   4.979  15.640  0.1571  0.1094  0.0112
36009DOPC   PO443127  20.956   5.006  15.471  0.1085  0.1574 -0.4707
36009DOPC   GL143128  20.964   5.310  15.229 -0.2199  0.1921  0.0788
36009DOPC   GL243129  20.727   5.241  15.105 -0.0705  0.0125 -0.2359
36009DOPC   C1A43130  21.179   5.541  15.008 -0.0956  0.2590 -0.0069
36009DOPC   D2A43131  21.292   5.441  14.527 -0.2004  0.1606 -0.0195
36009DOPC   C3A43132  21.175   5.764  14.174  0.3021  0.0155  0.1037
36009DOPC   C4A43133  21.095   6.119  13.885  0.1980 -0.1954 -0.1922
36009DOPC   C1B43134  20.742   5.468  14.750  0.0485 -0.0020 -0.0871
36009DOPC   D2B43135  20.676   5.710  14.331 -0.1772 -0.1219  0.3056
36009DOPC   C3B43136  20.773   5.743  13.837  0.2434  0.4146 -0.0109
36009DOPC   C4B43137  20.881   5.782  13.375 -0.5741 -0.2017  0.0940
36010DOPC   NC343138   2.564   0.652  14.448  0.0584  0.0623 -0.1030
36010DOPC   PO443139   2.585   0.263  14.618  0.0190  0.1570  0.1438
36010DOPC   GL143140   2.518  -0.071  14.206  0.2228  0.0187  0.1376
36010DOPC   GL243141   2.441   0.265  14.153  0.3372 -0.1999 -0.2770
36010DOPC   C1A43142   2.592  -0.039  13.812  0.0170  0.1763  0.1157
36010DOPC   D2A43143   2.461  -0.125  13.308 -0.0556 -0.1165  0.0404
36010DOPC   C3A43144   2.249  -0.084  12.945 -0.0758 -0.0625  0.0197
36010DOPC   C4A43145   2.283  -0.263  12.454 -0.0918 -0.0524  0.2071
36010DOPC   C1B43146   2.106   0.153  13.853  0.1484 -0.0993 -0.0535
36010DOPC   D2B43147   1.776   0.105  13.415  0.1321 -0.1578 -0.0556
36010DOPC   C3B43148   1.969   0.351  13.065  0.0455 -0.0670 -0.0579
36010DOPC   C4B43149   2.175   0.505  12.635 -0.0492  0.1768 -0.0529
36011DOPC   NC343150  21.249   1.533  15.110 -0.0312  0.2087  0.1127
36011DOPC   PO443151  21.243   1.893  15.079 -0.1078 -0.2842  0.0306
36011DOPC   GL143152  21.182   2.147  14.753  0.0116 -0.2012  0.0471
36011DOPC   GL243153  21.450   2.187  14.736  0.1118 -0.3371 -0.2192
36011DOPC   C1A43154  21.100   2.338  14.293 -0.1126 -0.1657 -0.0799
36011DOPC   D2A43155  21.177   2.415  13.757 -0.1076 -0.0580 -0.0192
36011DOPC   C3A43156  20.831   2.395  13.364  0.1421 -0.0987 -0.0702
36011DOPC   C4A43157  20.454   2.406  13.103  0.0403  0.0523  0.0812
36011DOPC   C1B43158  21.592   2.327  14.399  0.2320  0.0802 -0.2032
36011DOPC   D2B43159  21.725   2.385  13.882  0.2947 -0.0974  0.1481
36011DOPC   C3B43160  21.753   2.208  13.422  0.2647  0.0448 -0.1642
36011DOPC   C4B43161  22.090   2.110  13.104 -0.1768  0.1930 -0.0158
36012DOPC   NC343162  27.855   5.178  14.771 -0.0175  0.2051  0.0387
36012DOPC   PO443163  27.682   4.858  14.556  0.0622 -0.2192 -0.2183
36012DOPC   GL143164  27.560   5.177  14.308  0.1947 -0.1917  0.1846
36012DOPC   GL243165  27.755   4.965  14.178 -0.1549 -0.3525  0.0615
36012DOPC   C1A43166  27.267   5.337  13.952 -0.0439 -0.2320 -0.0514
36012DOPC   D2A43167  26.945   5.366  13.528 -0.1187  0.0118 -0.1309
36012DOPC   C3A43168  27.012   5.115  13.156 -0.0248  0.1196  0.1523
36012DOPC   C4A43169  27.089   4.636  12.882  0.2560 -0.0275 -0.0009
36012DOPC   C1B43170  27.791   4.996  13.743 -0.1460 -0.3911 -0.1309
36012DOPC   D2B43171  27.832   5.171  13.291 -0.1838  0.1038  0.0681
36012DOPC   C3B43172  27.835   5.113  12.839 -0.0612 -0.1825  0.1925
36012DOPC   C4B43173  27.786   4.914  12.378 -0.4351 -0.0075  0.0086
36013DOPC   NC343174  16.069   5.579  15.044  0.0919  0.0847 -0.2311
36013DOPC   PO443175  16.476   5.636  14.969  0.2531 -0.0396 -0.1012
36013DOPC   GL143176  16.434   5.808  14.586 -0.2311 -0.1488  0.0170
36013DOPC   GL243177  16.365   5.596  14.436 -0.0645  0.0408 -0.1476
36013DOPC   C1A43178  16.236   5.956  14.251 -0.0605 -0.2077  0.0464
36013DOPC   D2A43179  16.137   6.292  13.836 -0.1118  0.1599 -0.0953
36013DOPC   C3A43180  16.506   6.616  13.798  0.0564 -0.4664  0.0095
36013DOPC   C4A43181  16.774   6.940  14.037 -0.2548  0.0670 -0.0914
36013DOPC   C1B43182  16.519   5.629  14.026 -0.0847 -0.1276  0.0204
36013DOPC   D2B43183  16.884   5.614  13.679  0.0417 -0.1468 -0.2923
36013DOPC   C3B43184  17.198   5.289  13.623 -0.0658  0.1223  0.0426
36013DOPC   C4B43185  17.490   4.864  13.662 -0.0292  0.0315 -0.0392
36014DOPC   NC343186  22.161   7.696  15.418  0.2450  0.1660  0.0551
36014DOPC   PO443187  22.444   7.483  15.230 -0.0735 -0.1304 -0.1451
36014DOPC   GL143188  22.447   7.487  14.895  0.0942 -0.0355  0.1709
36014DOPC   GL243189  22.681   7.681  14.841  0.1473 -0.0551 -0.1485
36014DOPC   C1A43190  22.409   7.221  14.595 -0.1120 -0.0274  0.1401
36014DOPC   D2A43191  22.450   7.095  14.108 -0.0850 -0.1907 -0.3054
36014DOPC   C3A43192  22.684   7.340  13.763 -0.0666  0.1300 -0.1743
36014DOPC   C4A43193  23.099   7.290  13.602 -0.0541  0.1468  0.5640
36014DOPC   C1B43194  22.730   7.938  14.454 -0.3125  0.1046 -0.2516
36014DOPC   D2B43195  22.815   8.359  14.165 -0.2047 -0.0248 -0.0843
36014DOPC   C3B43196  22.906   8.650  13.820 -0.0705 -0.0238  0.1234
36014DOPC   C4B43197  22.713   8.600  13.380  0.0488 -0.2750  0.0539
36015DOPC   NC343198   0.838   0.821  14.119 -0.1079 -0.0936 -0.1779
36015DOPC   PO443199   1.034   1.162  14.219 -0.0676  0.0582 -0.2913
36015DOPC   GL143200   1.104   1.364  13.849  0.1685  0.1422 -0.0199
36015DOPC   GL243201   1.275   1.114  13.863  0.0383 -0.3946  0.0348
36015DOPC   C1A43202   1.257   1.649  13.574  0.1132 -0.0415 -0.0555
36015DOPC   D2A43203   1.431   1.805  13.169  0.0763 -0.0195  0.1632
36015DOPC   C3A43204   1.261   1.631  12.793 -0.3596 -0.1318 -0.0363
36015DOPC   C4A43205   1.180   2.070  12.571  0.1604 -0.2480 -0.1403
36015DOPC   C1B43206   1.515   0.854  13.665  0.3275  0.0238 -0.0364
36015DOPC   D2B43207   1.402   0.770  13.138 -0.1196 -0.0900 -0.2210
36015DOPC   C3B43208   1.076   0.537  12.887 -0.0097  0.0767 -0.2201
36015DOPC   C4B43209   0.635   0.448  13.012 -0.0593 -0.0380  0.3823
36016DOPC   NC343210  12.004   6.311  15.370 -0.0071  0.1590  0.0269
36016DOPC   PO443211  12.354   6.291  15.213 -0.0446 -0.1455  0.2503
36016DOPC   GL143212  12.681   6.376  14.942 -0.0992 -0.3027 -0.2018
36016DOPC   GL243213  12.812   6.095  14.960  0.2059  0.0426 -0.2297
36016DOPC   C1A43214  12.420   6.390  14.521 -0.4329 -0.1448 -0.2829
36016DOPC   D2A43215  12.403   6.491  14.047  0.1679  0.0939 -0.1867
36016DOPC   C3A43216  12.525   6.691  13.634  0.0451 -0.0889 -0.0539
36016DOPC   C4A43217  12.666   7.179  13.531  0.0943  0.0651 -0.0066
36016DOPC   C1B43218  13.140   6.197  14.680  0.2551 -0.0654 -0.1067
36016DOPC   D2B43219  13.201   6.183  14.180  0.0756 -0.0190  0.2129
36016DOPC   C3B43220  13.375   5.958  13.818  0.0838 -0.2227  0.0149
36016DOPC   C4B43221  13.552   5.553  13.683 -0.1528 -0.3534 -0.1389
36017DOPC   NC343222  20.061   7.467  15.293 -0.0794  0.0615 -0.2109
36017DOPC   PO443223  20.488   7.529  15.294 -0.0180 -0.0122 -0.1142
36017DOPC   GL143224  20.615   7.730  14.853 -0.0675 -0.2959  0.4345
36017DOPC   GL243225  20.781   7.540  14.760  0.1762 -0.0828  0.0789
36017DOPC   C1A43226  20.407   7.891  14.500 -0.0156 -0.0960 -0.1053
36017DOPC   D2A43227  20.148   8.249  14.311 -0.3386  0.1750  0.3101
36017DOPC   C3A43228  20.105   8.433  13.880  0.0789 -0.0896  0.1964
36017DOPC   C4A43229  20.149   8.875  13.672  0.2333  0.2013 -0.0660
36017DOPC   C1B43230  20.858   7.622  14.358  0.1430 -0.0611  0.1200
36017DOPC   D2B43231  20.996   7.773  13.886  0.1748  0.1902  0.0824
36017DOPC   C3B43232  20.601   7.724  13.602 -0.1558 -0.2697 -0.1930
36017DOPC   C4B43233  20.275   7.771  13.209 -0.0392 -0.0556  0.2460
36018DOPC   NC343234  18.122   6.875  15.140 -0.2194  0.0755  0.0012
36018DOPC   PO443235  17.748   6.868  15.299 -0.0565  0.2476 -0.0329
36018DOPC   GL143236  17.605   6.836  14.877 -0.3204 -0.1975 -0.1892
36018DOPC   GL243237  17.539   7.146  14.913  0.2240  0.1630  0.0731
36018DOPC   C1A43238  17.553   6.650  14.451  0.1532 -0.0126  0.1625
36018DOPC   D2A43239  17.672   6.429  14.049 -0.3419 -0.1261 -0.0693
36018DOPC   C3A43240  17.411   6.494  13.655  0.0577  0.2966 -0.0856
36018DOPC   C4A43241  17.208   6.403  13.216  0.1865 -0.0011  0.0502
36018DOPC   C1B43242  17.603   7.215  14.466 -0.1480 -0.2303  0.2293
36018DOPC   D2B43243  17.914   7.001  14.110  0.2867  0.2915 -0.2413
36018DOPC   C3B43244  17.917   6.731  13.737  0.3319 -0.0164 -0.0210
36018DOPC   C4B43245  17.923   6.472  13.331  0.1112 -0.0653  0.2232
36019DOPC   NC343246  19.236   6.325  15.549  0.2035 -0.0603 -0.0188
36019DOPC   PO443247  18.917   6.212  15.392  0.2689 -0.1897  0.4030
36019DOPC   GL143248  18.862   6.288  14.973 -0.0051  0.0410 -0.1482
36019DOPC   GL243249  19.106   6.129  14.852  0.2418 -0.0559 -0.1618
36019DOPC   C1A43250  18.738   6.541  14.543  0.1877 -0.1790  0.0336
36019DOPC   D2A43251  18.879   6.765  14.124  0.4621 -0.1585 -0.0994
36019DOPC   C3A43252  19.192   6.463  14.064 -0.1520  0.1208 -0.0001
36019DOPC   C4A43253  19.216   5.987  13.842 -0.0144 -0.0293 -0.2413
36019DOPC   C1B43254  19.070   6.067  14.379  0.0996 -0.0327  0.0532
36019DOPC   D2B43255  18.763   6.218  14.013 -0.0778  0.1152 -0.2401
36019DOPC   C3B43256  18.772   6.150  13.567 -0.1414  0.1131 -0.2296
36019DOPC   C4B43257  18.544   6.000  13.103  0.0422  0.0906 -0.2431
36020DOPC   NC343258  28.772   6.532  14.790  0.0854  0.0347 -0.1861
36020DOPC   PO443259  28.593   6.196  14.807 -0.0676  0.0589  0.1370
36020DOPC   GL143260  28.863   6.023  14.562 -0.3526 -0.4081  0.3817
36020DOPC   GL243261  28.626   5.906  14.479 -0.4232  0.0762  0.0975
36020DOPC   C1A43262  29.027   6.272  14.237 -0.0565  0.1091  0.0910
36020DOPC   D2A43263  29.175   6.595  13.980 -0.4353 -0.1718 -0.1085
36020DOPC   C3A43264  29.405   6.694  13.591 -0.0548 -0.2303  0.0119
36020DOPC   C4A43265  29.495   6.764  13.073  0.1430 -0.0307  0.0370
36020DOPC   C1B43266  28.760   5.833  14.032 -0.1941 -0.1563 -0.1962
36020DOPC   D2B43267  28.923   5.767  13.594  0.1819  0.1365 -0.0739
36020DOPC   C3B43268  28.917   6.041  13.184  0.1987  0.1032 -0.0452
36020DOPC   C4B43269  28.888   6.329  12.813  0.0274 -0.1601  0.0997
36021DOPC   NC343270  23.695   0.551  14.948 -0.0294  0.0346  0.0074
36021DOPC   PO443271  23.707   0.235  15.177  0.1645  0.2176  0.4642
36021DOPC   GL143272  23.675  -0.034  14.885 -0.1981  0.1997 -0.0545
36021DOPC   GL243273  23.971  -0.070  14.729  0.1325 -0.0272 -0.1521
36021DOPC   C1A43274  23.585   0.286  14.547  0.3067 -0.1035  0.1564
36021DOPC   D2A43275  23.557   0.706  14.271 -0.1852  0.3203 -0.0650
36021DOPC   C3A43276  23.655   0.864  13.836  0.2523 -0.2187  0.2706
36021DOPC   C4A43277  23.654   1.063  13.362  0.1959  0.0197  0.0182
36021DOPC   C1B43278  24.146  -0.326  14.475 -0.0931  0.1804 -0.1685
36021DOPC   D2B43279  24.227  -0.645  14.100  0.0943  0.0532  0.1624
36021DOPC   C3B43280  24.365  -0.937  13.799 -0.1251  0.4383 -0.0779
36021DOPC   C4B43281  24.545  -1.312  13.580 -0.0306 -0.1617  0.0261
36022DOPC   NC343282   4.869   6.712  14.987 -0.0074  0.1163 -0.0860
36022DOPC   PO443283   4.721   6.575  14.635  0.0978 -0.6075  0.2528
36022DOPC   GL143284   4.641   6.786  14.259 -0.1523 -0.1617  0.1567
36022DOPC   GL243285   4.930   6.864  14.206 -0.2127  0.0311 -0.4330
36022DOPC   C1A43286   4.321   6.669  13.972 -0.0934 -0.1281 -0.1926
36022DOPC   D2A43287   4.026   6.609  13.524  0.0627  0.1900  0.1697
36022DOPC   C3A43288   4.313   6.649  13.150 -0.1072 -0.1257 -0.3833
36022DOPC   C4A43289   4.514   7.069  12.899 -0.0675  0.2235 -0.2169
36022DOPC   C1B43290   4.926   7.040  13.812 -0.1332  0.2490 -0.1459
36022DOPC   D2B43291   5.151   7.331  13.509 -0.0538  0.0681  0.1196
36022DOPC   C3B43292   5.507   7.448  13.201 -0.0203 -0.0967 -0.2060
36022DOPC   C4B43293   5.710   7.894  13.045 -0.0680  0.2989  0.0167
36023DOPC   NC343294  29.173   0.611  15.053  0.1534  0.1676  0.0984
36023DOPC   PO443295  29.555   0.645  14.898  0.1264  0.2049 -0.5235
36023DOPC   GL143296  29.707   0.776  14.581 -0.2068 -0.0290  0.3514
36023DOPC   GL243297  29.625   1.010  14.622  0.0048 -0.1877  0.2544
36023DOPC   C1A43298  29.745   0.646  14.140 -0.2027  0.0505 -0.1562
36023DOPC   D2A43299  29.713   0.658  13.647  0.0067  0.0036 -0.0740
36023DOPC   C3A43300  29.662   0.860  13.279  0.3344  0.1272 -0.0348
36023DOPC   C4A43301  29.624   1.044  12.836 -0.2172 -0.0539 -0.2052
36023DOPC   C1B43302  29.400   1.149  14.186 -0.1305 -0.1280  0.0622
36023DOPC   D2B43303  29.534   1.120  13.733  0.2217  0.0571  0.0506
36023DOPC   C3B43304  29.603   1.476  13.478  0.0309 -0.2482  0.0085
36023DOPC   C4B43305  29.643   1.965  13.343 -0.2914  0.2386  0.1701
36024DOPC   NC343306  27.362   6.756  14.788  0.3740  0.0375  0.1881
36024DOPC   PO443307  27.746   6.626  14.853 -0.0649  0.2278 -0.3534
36024DOPC   GL143308  28.056   6.476  14.594  0.2027 -0.2408 -0.2705
36024DOPC   GL243309  27.919   6.711  14.438 -0.4145 -0.0131 -0.1889
36024DOPC   C1A43310  28.011   6.319  14.190  0.0159  0.1287  0.3059
36024DOPC   D2A43311  27.783   6.393  13.736  0.1327 -0.0355  0.0240
36024DOPC   C3A43312  27.713   6.523  13.282 -0.0408  0.2048 -0.1424
36024DOPC   C4A43313  27.651   6.471  12.792 -0.0891 -0.1095 -0.0270
36024DOPC   C1B43314  27.990   6.745  13.977 -0.1058 -0.0146 -0.1881
36024DOPC   D2B43315  28.007   6.912  13.507 -0.0557 -0.1515  0.1080
36024DOPC   C3B43316  27.982   7.102  13.088 -0.0219  0.0777  0.0385
36024DOPC   C4B43317  28.297   7.076  12.748  0.2228  0.0695 -0.0033
36025DOPC   NC343318  10.655   5.290  15.936 -0.0615  0.0380  0.0330
36025DOPC   PO443319  10.334   5.186  15.713 -0.1922 -0.4396  0.0814
36025DOPC   GL143320  10.455   5.259  15.330  0.7698 -0.0299  0.0529
36025DOPC   GL243321  10.188   5.206  15.132 -0.3172  0.3124  0.1503
36025DOPC   C1A43322  10.739   5.285  15.018 -0.0187  0.2667 -0.3391
36025DOPC   D2A43323  11.086   5.361  14.726 -0.1625  0.2447  0.0034
36025DOPC   C3A43324  11.047   5.325  14.256  0.0570 -0.0019 -0.0842
36025DOPC   C4A43325  11.016   5.252  13.759  0.0293 -0.3703 -0.1446
36025DOPC   C1B43326  10.224   5.498  14.847  0.1913  0.0463  0.0332
36025DOPC   D2B43327  10.107   5.826  14.424  0.0096  0.0499 -0.0619
36025DOPC   C3B43328  10.085   5.654  14.034 -0.2694 -0.0348  0.0104
36025DOPC   C4B43329  10.293   5.375  13.689 -0.3507 -0.1929 -0.5187
36026DOPC   NC343330  20.350   0.571  15.385 -0.0331 -0.0335  0.1189
36026DOPC   PO443331  20.014   0.720  15.509  0.0795  0.3257 -0.3138
36026DOPC   GL143332  19.762   0.503  15.260 -0.5698 -0.0985  0.0286
36026DOPC   GL243333  19.979   0.351  15.214  0.0742 -0.0622 -0.1743
36026DOPC   C1A43334  19.501   0.576  14.935  0.0722 -0.1103  0.0967
36026DOPC   D2A43335  19.283   0.627  14.509 -0.0285 -0.0070 -0.2778
36026DOPC   C3A43336  19.038   0.457  14.118 -0.2476 -0.1353  0.1690
36026DOPC   C4A43337  18.798   0.437  13.666  0.2336 -0.0560  0.1263
36026DOPC   C1B43338  19.877   0.192  14.775  0.2432  0.1078  0.0286
36026DOPC   D2B43339  19.944  -0.149  14.360  0.2138  0.0190 -0.0242
36026DOPC   C3B43340  19.831  -0.402  13.931  0.1519  0.0377 -0.1022
36026DOPC   C4B43341  19.746  -0.745  13.513 -0.0511  0.2421  0.1722
36027DOPC   NC343342   0.676   2.802  14.061 -0.0695  0.0375 -0.1923
36027DOPC   PO443343   1.046   2.632  14.172 -0.0565 -0.3369 -0.3265
36027DOPC   GL143344   1.380   2.515  13.865 -0.0793  0.0610 -0.3417
36027DOPC   GL243345   1.158   2.375  13.826  0.0931 -0.1123  0.2702
36027DOPC   C1A43346   1.511   2.693  13.530  0.1775 -0.0614 -0.0871
36027DOPC   D2A43347   1.537   2.845  13.104  0.3539  0.1403  0.0689
36027DOPC   C3A43348   1.263   2.896  12.744 -0.4335 -0.3569 -0.0958
36027DOPC   C4A43349   1.042   2.991  12.337 -0.1490  0.2438  0.4339
36027DOPC   C1B43350   1.057   2.297  13.393 -0.0415 -0.1224 -0.1723
36027DOPC   D2B43351   0.923   1.913  13.030 -0.2240 -0.0384 -0.2596
36027DOPC   C3B43352   0.620   1.943  12.689  0.2052  0.1283  0.1838
36027DOPC   C4B43353   0.333   1.925  12.228 -0.2151 -0.0547  0.3337
36028DOPC   NC343354   6.343   7.807  14.395 -0.1696  0.2118 -0.0984
36028DOPC   PO443355   6.325   8.035  14.077  0.1201  0.0256  0.1480
36028DOPC   GL143356   6.220   8.036  13.633  0.1316  0.0897 -0.0829
36028DOPC   GL243357   5.978   7.954  13.733  0.3537  0.0580 -0.1781
36028DOPC   C1A43358   6.320   8.166  13.268 -0.2834  0.1832 -0.2038
36028DOPC   D2A43359   6.292   8.094  12.744 -0.3137  0.0129 -0.0529
36028DOPC   C3A43360   6.217   7.942  12.368  0.0496 -0.0782 -0.0329
36028DOPC   C4A43361   6.311   7.728  11.961  0.0703  0.0534  0.0477
36028DOPC   C1B43362   5.928   7.695  13.437 -0.1636 -0.1243 -0.0327
36028DOPC   D2B43363   5.978   7.268  13.109 -0.0209 -0.4487  0.1430
36028DOPC   C3B43364   5.998   6.906  12.912 -0.0454  0.0830 -0.0344
36028DOPC   C4B43365   6.007   6.558  12.590  0.1536 -0.1443  0.0744
36029DOPC   NC343366   7.288   5.129  15.412  0.0158 -0.1468  0.1743
36029DOPC   PO443367   7.190   4.715  15.421 -0.3972 -0.3005  0.0353
36029DOPC   GL143368   7.412   4.574  15.046  0.1847  0.0706  0.3468
36029DOPC   GL243369   7.158   4.568  14.941  0.2380 -0.1083  0.1093
36029DOPC   C1A43370   7.754   4.618  14.768 -0.0984 -0.0081 -0.1666
36029DOPC   D2A43371   7.801   4.699  14.292 -0.0826  0.1537 -0.2416
36029DOPC   C3A43372   7.804   4.329  14.023  0.2398  0.1369  0.1591
36029DOPC   C4A43373   7.617   3.911  13.755  0.2833 -0.0670  0.1002
36029DOPC   C1B43374   7.312   4.690  14.504  0.0206  0.0741 -0.2264
36029DOPC   D2B43375   7.293   4.761  13.985  0.1630  0.1947 -0.0149
36029DOPC   C3B43376   7.557   4.823  13.609 -0.1613 -0.0401  0.1409
36029DOPC   C4B43377   7.922   4.921  13.351  0.1574  0.0315  0.0018
36030DOPC   NC343378  31.331   5.928  14.349 -0.2805 -0.0405 -0.2190
36030DOPC   PO443379  31.010   6.110  14.317 -0.0893  0.0742  0.1148
36030DOPC   GL143380  30.720   6.064  14.047 -0.0815 -0.0911 -0.1983
36030DOPC   GL243381  30.551   5.923  13.994 -0.1023 -0.0041 -0.0652
36030DOPC   C1A43382  30.596   6.315  13.742  0.0130 -0.4084  0.0087
36030DOPC   D2A43383  30.384   6.424  13.298 -0.0100  0.5250 -0.0276
36030DOPC   C3A43384  30.697   6.538  12.960 -0.2338  0.2489 -0.2852
36030DOPC   C4A43385  30.955   6.709  12.602 -0.1760  0.4661  0.1814
36030DOPC   C1B43386  30.488   5.929  13.499  0.0486 -0.1599 -0.1270
36030DOPC   D2B43387  30.463   5.946  12.957 -0.5736  0.0227 -0.0865
36030DOPC   C3B43388  30.165   6.290  12.793  0.3702  0.1585  0.1053
36030DOPC   C4B43389  29.681   6.324  12.775 -0.0428  0.0475  0.0438
36031DOPC   NC343390  28.518   2.930  14.638  0.1261 -0.0272 -0.0752
36031DOPC   PO443391  28.589   2.636  14.838  0.1691  0.0190  0.0109
36031DOPC   GL143392  28.536   2.518  14.466 -0.3174 -0.0923  0.3704
36031DOPC   GL243393  28.736   2.415  14.357 -0.1222 -0.0124  0.2426
36031DOPC   C1A43394  28.265   2.665  14.142 -0.0290  0.2762 -0.0941
36031DOPC   D2A43395  27.954   2.847  13.773 -0.0424  0.1583 -0.1629
36031DOPC   C3A43396  27.639   2.942  13.439 -0.4239 -0.1882  0.1449
36031DOPC   C4A43397  27.211   2.914  13.168  0.1156  0.0216  0.2932
36031DOPC   C1B43398  28.573   2.301  13.989 -0.0728  0.2423 -0.1087
36031DOPC   D2B43399  28.432   2.384  13.470 -0.2368  0.3125  0.0536
36031DOPC   C3B43400  28.097   2.585  13.282  0.0689  0.4432  0.0281
36031DOPC   C4B43401  27.805   2.619  12.898 -0.1161  0.0063  0.0923
36032DOPC   NC343402  16.384   0.978  15.535 -0.4019 -0.2323 -0.0181
36032DOPC   PO443403  16.725   1.080  15.362  0.2282  0.1719  0.0000
36032DOPC   GL143404  16.531   1.192  15.003 -0.1535  0.1269 -0.1191
36032DOPC   GL243405  16.734   1.443  14.916  0.3739  0.1263 -0.0563
36032DOPC   C1A43406  16.598   1.001  14.642 -0.0789  0.2463 -0.2319
36032DOPC   D2A43407  16.644   1.164  14.173 -0.1995 -0.1930 -0.0454
36032DOPC   C3A43408  16.838   1.301  13.752  0.2288  0.0982  0.1231
36032DOPC   C4A43409  16.984   1.309  13.299  0.1466 -0.1403  0.0713
36032DOPC   C1B43410  16.703   1.581  14.491 -0.0374  0.0007 -0.2629
36032DOPC   D2B43411  16.708   1.752  14.035 -0.0733  0.0709 -0.0403
36032DOPC   C3B43412  16.590   1.716  13.587 -0.2120  0.0757 -0.3502
36032DOPC   C4B43413  16.733   1.763  13.142 -0.1599  0.1241  0.1902
36033DOPC   NC343414   9.473   0.027  15.386  0.2222 -0.4450  0.1491
36033DOPC   PO443415   9.535   0.319  15.145  0.2960  0.0433  0.4869
36033DOPC   GL143416   9.349   0.379  14.804  0.0740  0.1326  0.1089
36033DOPC   GL243417   9.630   0.420  14.593 -0.2240 -0.1135  0.2725
36033DOPC   C1A43418   9.331  -0.052  14.606 -0.2063 -0.0737 -0.0328
36033DOPC   D2A43419   9.432  -0.356  14.251  0.0513  0.0943 -0.2386
36033DOPC   C3A43420   9.786  -0.188  14.033  0.0251  0.3566  0.0002
36033DOPC   C4A43421  10.262  -0.092  14.004 -0.0308 -0.4059 -0.2022
36033DOPC   C1B43422   9.573   0.300  14.186  0.3667 -0.1244  0.0170
36033DOPC   D2B43423   9.477   0.103  13.745  0.0847  0.1988  0.5743
36033DOPC   C3B43424   9.868   0.236  13.608  0.0771  0.0785  0.0428
36033DOPC   C4B43425  10.358   0.152  13.541 -0.0816 -0.0767  0.2429
36034DOPC   NC343426   9.602   1.528  15.344  0.1493 -0.0126 -0.3588
36034DOPC   PO443427   9.341   1.631  15.039  0.0042  0.2778 -0.2188
36034DOPC   GL143428   9.357   1.200  14.759  0.1409 -0.0503 -0.0293
36034DOPC   GL243429   9.112   1.379  14.645 -0.0935  0.0523 -0.0606
36034DOPC   C1A43430   9.631   1.179  14.437  0.0069 -0.0281  0.0788
36034DOPC   D2A43431   9.975   1.110  14.097  0.0385 -0.0459 -0.0098
36034DOPC   C3A43432  10.072   1.321  13.683  0.2344  0.1116  0.0671
36034DOPC   C4A43433  10.347   1.670  13.387 -0.0904  0.0334  0.1022
36034DOPC   C1B43434   9.000   1.192  14.257 -0.1915  0.0030 -0.0737
36034DOPC   D2B43435   9.125   1.007  13.805 -0.0308 -0.0879 -0.1107
36034DOPC   C3B43436   9.080   1.074  13.347 -0.0148 -0.2832  0.2529
36034DOPC   C4B43437   8.955   1.051  12.851  0.2226 -0.1689 -0.1109
36035DOPC   NC343438  16.461   4.074  15.154 -0.2252  0.2954 -0.2556
36035DOPC   PO443439  16.103   4.255  15.123 -0.0321  0.2283 -0.1034
36035DOPC   GL143440  16.052   4.462  14.769  0.3117 -0.0900  0.1101
36035DOPC   GL243441  15.865   4.159  14.732 -0.1599 -0.1370 -0.1162
36035DOPC   C1A43442  16.300   4.528  14.405  0.1490 -0.1870 -0.2777
36035DOPC   D2A43443  16.571   4.774  14.058  0.0190  0.0241 -0.1066
36035DOPC   C3A43444  16.810   5.188  13.930  0.1853  0.2716  0.0151
36035DOPC   C4A43445  17.124   5.470  14.102 -0.0148 -0.2701  0.0888
36035DOPC   C1B43446  15.805   4.423  14.383 -0.2337  0.2425 -0.3665
36035DOPC   D2B43447  15.704   4.390  13.861  0.0507  0.0900 -0.0590
36035DOPC   C3B43448  16.003   4.421  13.556 -0.0083  0.3413  0.1425
36035DOPC   C4B43449  16.246   4.850  13.358  0.0182 -0.2640  0.2011
36036DOPC   NC343450   4.626   2.246  14.729  0.0387  0.1620  0.1393
36036DOPC   PO443451   4.441   1.905  14.837  0.0835 -0.0259 -0.1466
36036DOPC   GL143452   4.559   1.582  14.485  0.0238 -0.3304  0.1721
36036DOPC   GL243453   4.628   1.795  14.446 -0.1583 -0.2449 -0.0659
36036DOPC   C1A43454   4.465   1.296  14.188 -0.0551  0.2208  0.0345
36036DOPC   D2A43455   4.230   1.127  13.763  0.2127 -0.2212  0.0870
36036DOPC   C3A43456   3.905   1.030  13.459 -0.0471 -0.0043  0.3493
36036DOPC   C4A43457   3.602   0.676  13.378 -0.1783  0.1226 -0.0060
36036DOPC   C1B43458   4.319   1.943  14.178 -0.1391  0.2321  0.0314
36036DOPC   D2B43459   4.112   2.011  13.731 -0.2678  0.1776 -0.1444
36036DOPC   C3B43460   4.015   1.977  13.337 -0.0581 -0.0230  0.2311
36036DOPC   C4B43461   3.897   2.036  12.877 -0.0619 -0.0814  0.1461
36037DOPC   NC343462  18.532   5.876  15.590  0.1624  0.1131  0.0377
36037DOPC   PO443463  18.464   6.036  15.237 -0.2211 -0.1517 -0.1881
36037DOPC   GL143464  18.583   5.970  14.890  0.1521  0.0360 -0.3997
36037DOPC   GL243465  18.740   5.765  14.783 -0.0721  0.1505 -0.4496
36037DOPC   C1A43466  18.474   6.086  14.472  0.1749 -0.2191 -0.3160
36037DOPC   D2A43467  18.322   6.028  14.045  0.0541  0.2947 -0.0615
36037DOPC   C3A43468  17.978   6.123  13.728 -0.3271  0.2972 -0.1415
36037DOPC   C4A43469  17.593   6.036  13.479 -0.0556 -0.1562 -0.0433
36037DOPC   C1B43470  18.782   5.694  14.348 -0.1670  0.3132 -0.0253
36037DOPC   D2B43471  18.753   5.603  13.852 -0.0142 -0.1760  0.0852
36037DOPC   C3B43472  18.800   5.614  13.371 -0.1426  0.1507 -0.1626
36037DOPC   C4B43473  19.164   5.300  13.187 -0.0408 -0.1060  0.2027
36038DOPC   NC343474  30.757   3.603  14.741  0.2713  0.1661  0.0700
36038DOPC   PO443475  30.442   3.815  14.636  0.2706 -0.3273  0.0458
36038DOPC   GL143476  30.402   3.941  14.214  0.0486 -0.0679  0.0487
36038DOPC   GL243477  30.286   3.700  14.102 -0.1144 -0.1607 -0.1533
36038DOPC   C1A43478  30.645   4.096  13.933  0.0759  0.0800  0.4105
36038DOPC   D2A43479  30.685   4.198  13.442 -0.1892  0.0998 -0.0824
36038DOPC   C3A43480  30.565   4.315  13.009 -0.2400 -0.0427 -0.2871
36038DOPC   C4A43481  30.392   4.821  12.832  0.0351  0.2041  0.1734
36038DOPC   C1B43482  30.258   3.755  13.676 -0.2262  0.2442  0.2560
36038DOPC   D2B43483  30.201   4.037  13.279 -0.1087  0.1231 -0.3713
36038DOPC   C3B43484  30.129   3.962  12.841 -0.2527  0.1537 -0.0006
36038DOPC   C4B43485  30.323   3.899  12.382  0.1732  0.0688  0.1030
36039DOPC   NC343486  30.032   0.496  14.750 -0.2118 -0.0019 -0.0622
36039DOPC   PO443487  30.319   0.692  14.928 -0.3985 -0.1978 -0.1311
36039DOPC   GL143488  30.140   0.920  14.592  0.2661  0.0511  0.0084
36039DOPC   GL243489  30.157   1.197  14.776 -0.2311 -0.1862 -0.1451
36039DOPC   C1A43490  30.243   0.887  14.203 -0.1285  0.0792  0.1328
36039DOPC   D2A43491  30.226   0.914  13.750 -0.0741  0.0981 -0.1038
36039DOPC   C3A43492  30.047   1.251  13.440 -0.2593 -0.2290  0.1445
36039DOPC   C4A43493  29.912   1.445  13.041  0.0017 -0.3919 -0.0146
36039DOPC   C1B43494  29.892   1.403  14.483  0.1938 -0.0467 -0.1293
36039DOPC   D2B43495  29.561   1.746  14.363  0.0201 -0.0226  0.0323
36039DOPC   C3B43496  29.719   1.906  13.887 -0.0629 -0.1469  0.1977
36039DOPC   C4B43497  30.140   2.150  13.714  0.1658  0.1159 -0.1114
36040DOPC   NC343498   7.531   7.600  14.699 -0.2437 -0.2186  0.1805
36040DOPC   PO443499   7.580   7.991  14.528 -0.0685  0.0476 -0.1290
36040DOPC   GL143500   7.345   8.058  14.135  0.0100  0.0477  0.1437
36040DOPC   GL243501   7.273   8.282  14.145 -0.2148  0.1109 -0.0809
36040DOPC   C1A43502   7.328   7.999  13.655  0.1005  0.0982 -0.2081
36040DOPC   D2A43503   7.064   8.055  13.146 -0.4601  0.2592 -0.0405
36040DOPC   C3A43504   6.887   8.243  12.757 -0.1435  0.1329 -0.2055
36040DOPC   C4A43505   6.633   8.515  12.420 -0.0076  0.0960  0.2030
36040DOPC   C1B43506   7.445   8.610  13.904 -0.2577  0.1303  0.0134
36040DOPC   D2B43507   7.533   8.845  13.465  0.1178 -0.0428  0.0521
36040DOPC   C3B43508   7.207   9.122  13.274  0.3044  0.2144  0.0352
36040DOPC   C4B43509   6.902   9.308  12.964  0.0653 -0.0589 -0.0587
36041DOPC   NC343510  23.022   0.883  15.342  0.2833  0.4303  0.0010
36041DOPC   PO443511  22.665   1.089  15.286  0.1650 -0.0156 -0.2786
36041DOPC   GL143512  22.821   1.041  14.832 -0.2164  0.2997 -0.2269
36041DOPC   GL243513  22.922   0.786  14.884 -0.1110 -0.3573 -0.2912
36041DOPC   C1A43514  22.680   0.827  14.450 -0.0064 -0.3752 -0.2685
36041DOPC   D2A43515  22.385   0.717  14.070  0.0526  0.2461  0.1869
36041DOPC   C3A43516  22.422   0.474  13.689  0.1332  0.1144  0.2660
36041DOPC   C4A43517  22.304   0.340  13.233  0.0333  0.2310 -0.2251
36041DOPC   C1B43518  23.162   0.520  14.577  0.2355  0.1455 -0.0812
36041DOPC   D2B43519  23.171   0.223  14.244  0.0985 -0.0531  0.2642
36041DOPC   C3B43520  23.229   0.429  13.838 -0.0385  0.2972  0.4125
36041DOPC   C4B43521  23.252   0.598  13.409  0.0118 -0.0075  0.2481
36042DOPC   NC343522   6.538   2.619  15.113  0.1396 -0.0979 -0.0086
36042DOPC   PO443523   6.774   2.948  15.220  0.0862  0.2203  0.2930
36042DOPC   GL143524   6.999   2.856  14.904 -0.1188  0.1017 -0.1423
36042DOPC   GL243525   6.900   2.541  14.879 -0.2180  0.0834  0.0664
36042DOPC   C1A43526   7.043   3.047  14.480 -0.0403 -0.3143  0.2949
36042DOPC   D2A43527   7.099   3.250  14.002 -0.0239  0.2234 -0.0867
36042DOPC   C3A43528   7.242   3.453  13.567 -0.3199  0.0847 -0.0658
36042DOPC   C4A43529   7.494   3.606  13.152 -0.0812 -0.0598 -0.1197
36042DOPC   C1B43530   6.794   2.548  14.431  0.0922  0.0353 -0.0829
36042DOPC   D2B43531   7.023   2.519  13.974 -0.1400 -0.3709  0.4451
36042DOPC   C3B43532   7.170   2.894  13.665 -0.2404  0.0639  0.1101
36042DOPC   C4B43533   7.004   3.113  13.236 -0.2407  0.1109  0.1122
36043DOPC   NC343534  19.446   0.548  15.567  0.1375 -0.2721  0.1869
36043DOPC   PO443535  19.230   0.223  15.420  0.2783 -0.0775 -0.1570
36043DOPC   GL143536  19.223   0.027  15.047 -0.0191  0.0604 -0.0012
36043DOPC   GL243537  19.464   0.189  14.933  0.2475 -0.0407 -0.1284
36043DOPC   C1A43538  19.067  -0.348  14.781  0.3113 -0.0548  0.1604
36043DOPC   D2A43539  18.983  -0.626  14.399  0.1080  0.1562 -0.0278
36043DOPC   C3A43540  18.910  -0.512  13.949 -0.2047 -0.0772  0.0507
36043DOPC   C4A43541  18.804  -0.534  13.464  0.2048  0.0662  0.2286
36043DOPC   C1B43542  19.467   0.009  14.537  0.0430  0.0613  0.1720
36043DOPC   D2B43543  19.569   0.005  14.030  0.0061  0.0946 -0.2278
36043DOPC   C3B43544  19.786   0.262  13.683  0.2891 -0.0259  0.0483
36043DOPC   C4B43545  20.164   0.383  13.404 -0.1904 -0.1627  0.0026
36044DOPC   NC343546   6.684   4.748  15.224  0.0356 -0.4189 -0.1161
36044DOPC   PO443547   6.933   4.984  15.015 -0.1803 -0.1056 -0.2295
36044DOPC   GL143548   6.850   4.896  14.681  0.4138  0.2868  0.1895
36044DOPC   GL243549   6.755   4.581  14.758  0.0512 -0.0891  0.1546
36044DOPC   C1A43550   7.016   5.074  14.278  0.0973  0.0502 -0.0805
36044DOPC   D2A43551   6.756   5.326  13.939  0.0647  0.0578  0.2836
36044DOPC   C3A43552   6.286   5.284  13.894 -0.1148  0.0897 -0.1253
36044DOPC   C4A43553   5.834   5.454  13.889 -0.3770 -0.1434 -0.1267
36044DOPC   C1B43554   6.426   4.676  14.424  0.0339  0.3063  0.0506
36044DOPC   D2B43555   6.000   4.862  14.356 -0.1472 -0.2520  0.0326
36044DOPC   C3B43556   5.683   4.976  14.028  0.1591 -0.0486 -0.0729
36044DOPC   C4B43557   5.431   5.225  13.675  0.1510  0.1953  0.2842
36045DOPC   NC343558  29.837   5.854  15.198  0.2815  0.0808  0.0876
36045DOPC   PO443559  29.529   5.685  15.122 -0.1061 -0.1347 -0.0136
36045DOPC   GL143560  29.400   5.602  14.744  0.3738  0.3213  0.0217
36045DOPC   GL243561  29.550   5.389  14.584  0.1694 -0.0240 -0.3404
36045DOPC   C1A43562  29.496   5.908  14.419 -0.1894  0.0491  0.1646
36045DOPC   D2A43563  29.575   6.273  14.145  0.0416 -0.1786  0.0521
36045DOPC   C3A43564  29.465   6.234  13.698  0.3092  0.0656 -0.0187
36045DOPC   C4A43565  29.389   6.294  13.176 -0.0153  0.2921 -0.3206
36045DOPC   C1B43566  29.498   5.411  14.183 -0.0546 -0.1991  0.1748
36045DOPC   D2B43567  29.429   5.420  13.667 -0.1969  0.0311  0.0047
36045DOPC   C3B43568  29.419   5.800  13.414 -0.1761  0.0925  0.1358
36045DOPC   C4B43569  29.480   5.833  12.976 -0.0674 -0.0135  0.0304
36046DOPC   NC343570   4.308   5.562  14.607  0.0946 -0.1428  0.0376
36046DOPC   PO443571   3.931   5.416  14.643 -0.0354  0.2251 -0.0011
36046DOPC   GL143572   3.834   5.279  14.272  0.3636 -0.2287 -0.2806
36046DOPC   GL243573   3.629   5.395  14.130 -0.0344 -0.1817 -0.1742
36046DOPC   C1A43574   3.994   4.993  13.975  0.1361 -0.0364  0.1889
36046DOPC   D2A43575   4.096   4.781  13.562  0.5263  0.0371 -0.3431
36046DOPC   C3A43576   4.402   4.954  13.356  0.0558 -0.1941 -0.2409
36046DOPC   C4A43577   4.566   5.005  12.913  0.0925  0.3386  0.3626
36046DOPC   C1B43578   3.778   5.702  13.846 -0.0595  0.2454 -0.0822
36046DOPC   D2B43579   3.786   6.100  13.564 -0.3585 -0.0058  0.0419
36046DOPC   C3B43580   4.105   6.150  13.211 -0.0043 -0.3279  0.0879
36046DOPC   C4B43581   4.284   6.302  12.759  0.1719 -0.0366  0.1377
36047DOPC   NC343582  28.954   3.658  14.787  0.2832  0.1795 -0.3025
36047DOPC   PO443583  29.008   4.025  14.671  0.0439 -0.1531 -0.2322
36047DOPC   GL143584  28.901   4.140  14.311  0.0849  0.0538 -0.0147
36047DOPC   GL243585  29.192   4.001  14.195 -0.1024 -0.1654 -0.0697
36047DOPC   C1A43586  28.749   4.026  13.953  0.0287 -0.2529 -0.1177
36047DOPC   D2A43587  28.795   4.021  13.473  0.2152 -0.0369  0.0367
36047DOPC   C3A43588  28.774   4.386  13.195 -0.0603  0.0131 -0.2081
36047DOPC   C4A43589  28.562   4.690  12.904 -0.2700 -0.0158  0.1010
36047DOPC   C1B43590  29.283   3.931  13.728 -0.0168 -0.0194  0.0409
36047DOPC   D2B43591  29.285   3.963  13.220  0.1427  0.1320 -0.0728
36047DOPC   C3B43592  29.101   4.186  12.835 -0.0364  0.1720 -0.1391
36047DOPC   C4B43593  29.052   4.553  12.619 -0.0580 -0.1206  0.0617
36048DOPC   NC343594  22.738   5.472  15.542  0.1975 -0.2549 -0.1766
36048DOPC   PO443595  22.360   5.486  15.582 -0.3010  0.3729 -0.0821
36048DOPC   GL143596  22.336   5.503  15.264 -0.1922  0.2876  0.0673
36048DOPC   GL243597  22.618   5.487  15.084 -0.1633  0.3705  0.1495
36048DOPC   C1A43598  22.167   5.376  14.901  0.0172  0.2736  0.1566
36048DOPC   D2A43599  21.815   5.294  14.418  0.2010  0.0997 -0.2878
36048DOPC   C3A43600  21.434   5.043  14.303 -0.2036  0.3051 -0.2482
36048DOPC   C4A43601  21.252   4.885  13.895  0.0735  0.0956 -0.1030
36048DOPC   C1B43602  22.614   5.352  14.685  0.0062 -0.1181  0.0094
36048DOPC   D2B43603  22.880   5.326  14.209 -0.0764  0.2250 -0.2690
36048DOPC   C3B43604  22.752   5.297  13.726 -0.0382 -0.1680  0.0295
36048DOPC   C4B43605  22.568   5.083  13.368  0.1564 -0.0624  0.3694
36049DOPC   NC343606  23.770   5.553  14.801 -0.1355 -0.1725 -0.3345
36049DOPC   PO443607  24.047   5.779  15.017  0.0478 -0.2325 -0.1561
36049DOPC   GL143608  23.981   6.028  14.719  0.0208 -0.0750  0.2252
36049DOPC   GL243609  23.665   6.076  14.771  0.0686 -0.4947  0.2142
36049DOPC   C1A43610  24.204   6.080  14.329 -0.2023 -0.0892 -0.0549
36049DOPC   D2A43611  24.238   6.103  13.894  0.2267 -0.3957  0.1265
36049DOPC   C3A43612  24.456   5.963  13.436 -0.1562 -0.1472 -0.0608
36049DOPC   C4A43613  24.526   5.685  13.015  0.2910 -0.0247 -0.1005
36049DOPC   C1B43614  23.430   6.037  14.413 -0.0580 -0.1992  0.0427
36049DOPC   D2B43615  23.256   6.169  13.990 -0.2130  0.0982  0.0532
36049DOPC   C3B43616  23.033   6.280  13.617  0.0545 -0.3026  0.0009
36049DOPC   C4B43617  22.749   6.458  13.213  0.1114  0.2582 -0.1453
36050DOPC   NC343618  14.938   0.904  15.661  0.1324 -0.0087 -0.0329
36050DOPC   PO443619  14.692   0.976  15.390  0.0043 -0.0774  0.2147
36050DOPC   GL143620  14.529   1.110  15.059 -0.1436  0.1743 -0.1331
36050DOPC   GL243621  14.838   1.229  14.997  0.1844 -0.3693  0.1102
36050DOPC   C1A43622  14.479   1.064  14.587  0.1820  0.0471  0.2626
36050DOPC   D2A43623  14.392   1.134  14.109 -0.0655  0.3691  0.0769
36050DOPC   C3A43624  14.144   1.169  13.716  0.1810  0.0552 -0.1506
36050DOPC   C4A43625  14.072   0.983  13.298  0.1447  0.0804  0.1162
36050DOPC   C1B43626  14.932   1.293  14.596  0.1920 -0.1075  0.0148
36050DOPC   D2B43627  14.812   1.403  14.143 -0.0654  0.0886  0.1783
36050DOPC   C3B43628  14.821   1.710  13.776 -0.5516  0.4316 -0.2671
36050DOPC   C4B43629  14.891   2.051  13.483 -0.0876 -0.1312 -0.2959
36051DOPC   NC343630   5.147   6.988  14.584 -0.0300 -0.0407 -0.0079
36051DOPC   PO443631   5.267   6.632  14.692 -0.1713 -0.1010 -0.3564
36051DOPC   GL143632   5.082   6.343  14.397  0.2782  0.0232 -0.0444
36051DOPC   GL243633   5.342   6.340  14.277 -0.1528 -0.0127 -0.1158
36051DOPC   C1A43634   4.920   6.503  13.966 -0.1372 -0.1555 -0.1296
36051DOPC   D2A43635   4.639   6.652  13.566 -0.1689 -0.0371  0.0391
36051DOPC   C3A43636   4.851   6.953  13.273  0.3877 -0.2647  0.0329
36051DOPC   C4A43637   5.021   7.284  12.926  0.2138  0.1887 -0.0697
36051DOPC   C1B43638   5.374   6.335  13.824  0.0452 -0.0968 -0.1689
36051DOPC   D2B43639   5.651   6.627  13.540 -0.2241 -0.4656 -0.2454
36051DOPC   C3B43640   5.598   6.948  13.182  0.1165  0.1530 -0.1550
36051DOPC   C4B43641   5.612   7.228  12.781 -0.1908  0.0339  0.0673
36052DOPC   NC343642  27.614   1.324  15.057 -0.0149  0.2750 -0.0709
36052DOPC   PO443643  27.377   1.039  15.146 -0.0415 -0.3467 -0.1310
36052DOPC   GL143644  27.123   1.143  14.744 -0.1438 -0.0142  0.0841
36052DOPC   GL243645  27.280   1.337  14.664 -0.2209 -0.1582 -0.0230
36052DOPC   C1A43646  27.089   0.837  14.411  0.0219  0.0035 -0.1109
36052DOPC   D2A43647  27.322   0.540  14.117 -0.0827 -0.1720 -0.0482
36052DOPC   C3A43648  27.142   0.434  13.657 -0.1910 -0.2626  0.1064
36052DOPC   C4A43649  26.990   0.109  13.314  0.1295  0.0197 -0.3554
36052DOPC   C1B43650  27.251   1.582  14.260 -0.1181  0.0566 -0.1984
36052DOPC   D2B43651  27.245   1.635  13.764  0.0353  0.0523  0.1637
36052DOPC   C3B43652  26.975   1.675  13.413 -0.0064  0.2106  0.0610
36052DOPC   C4B43653  26.993   1.685  12.911  0.2020  0.0394  0.1965
36053DOPC   NC343654  21.702   4.758  15.467  0.2744 -0.0631  0.0732
36053DOPC   PO443655  21.321   4.619  15.438 -0.2987 -0.2636  0.2750
36053DOPC   GL143656  21.183   4.560  15.065 -0.1682 -0.2429  0.0851
36053DOPC   GL243657  21.152   4.873  14.993  0.3000  0.0976  0.2288
36053DOPC   C1A43658  20.817   4.491  14.801  0.0619 -0.0578  0.1128
36053DOPC   D2A43659  20.517   4.559  14.414 -0.0197 -0.0082 -0.2824
36053DOPC   C3A43660  20.585   4.107  14.182  0.0151  0.3601  0.2142
36053DOPC   C4A43661  20.890   3.802  13.986  0.0261 -0.2187  0.0844
36053DOPC   C1B43662  21.036   5.022  14.633 -0.1037  0.1233  0.3604
36053DOPC   D2B43663  21.002   5.287  14.178  0.3214 -0.1455  0.2316
36053DOPC   C3B43664  21.442   5.406  13.936  0.0044  0.3154 -0.0598
36053DOPC   C4B43665  21.801   5.589  13.665 -0.1114 -0.0307  0.0122
36054DOPC   NC343666  23.563   2.914  15.486  0.1357 -0.2194  0.1757
36054DOPC   PO443667  23.773   2.911  15.134 -0.2603  0.0890 -0.1599
36054DOPC   GL143668  23.699   2.952  14.751  0.0274 -0.2121  0.0520
36054DOPC   GL243669  23.998   3.068  14.633  0.0052 -0.0478  0.2708
36054DOPC   C1A43670  23.354   2.727  14.615 -0.0165  0.2482 -0.2704
36054DOPC   D2A43671  23.017   2.372  14.411  0.0338  0.4982  0.1525
36054DOPC   C3A43672  22.866   1.923  14.336 -0.1151 -0.0053 -0.2384
36054DOPC   C4A43673  22.982   1.542  14.005  0.1957 -0.0916  0.1829
36054DOPC   C1B43674  24.087   3.209  14.245  0.3515  0.1758  0.0623
36054DOPC   D2B43675  24.321   3.057  13.808  0.1613 -0.0184 -0.2865
36054DOPC   C3B43676  23.999   2.735  13.964 -0.2731 -0.1106  0.2217
36054DOPC   C4B43677  23.578   2.451  14.066  0.0494 -0.0830 -0.0303
36055DOPC   NC343678  26.267   6.588  15.121  0.0048  0.1472 -0.0850
36055DOPC   PO443679  26.641   6.511  15.282 -0.0396  0.2096 -0.0533
36055DOPC   GL143680  26.828   6.338  14.953 -0.0668  0.1788  0.1201
36055DOPC   GL243681  26.934   6.555  14.916 -0.1224  0.0869  0.1453
36055DOPC   C1A43682  26.612   6.272  14.587 -0.2915  0.0403 -0.2041
36055DOPC   D2A43683  26.266   6.234  14.245 -0.2427  0.1648  0.0731
36055DOPC   C3A43684  25.807   6.374  14.318  0.2992 -0.2615 -0.0265
36055DOPC   C4A43685  25.387   6.562  14.131 -0.1192  0.2946 -0.1335
36055DOPC   C1B43686  26.763   6.770  14.595  0.3990 -0.0048 -0.3756
36055DOPC   D2B43687  26.544   6.884  14.188 -0.3484  0.0431  0.3936
36055DOPC   C3B43688  26.108   6.685  14.059  0.2207  0.0260 -0.0769
36055DOPC   C4B43689  25.724   6.485  13.795 -0.0263 -0.1895 -0.0237
36056DOPC   NC343690  16.907   7.696  14.995  0.0994 -0.1461  0.0815
36056DOPC   PO443691  16.556   7.547  15.103  0.2878  0.2513 -0.1802
36056DOPC   GL143692  16.326   7.822  14.792  0.2239  0.1380  0.0062
36056DOPC   GL243693  16.540   7.678  14.644 -0.1687 -0.1060 -0.0878
36056DOPC   C1A43694  16.411   8.008  14.400  0.3364  0.0492  0.1463
36056DOPC   D2A43695  16.814   8.075  14.078 -0.1438 -0.1195 -0.0923
36056DOPC   C3A43696  17.153   8.325  13.889  0.0787 -0.2476  0.1101
36056DOPC   C4A43697  17.565   8.335  13.742  0.2430 -0.1553  0.1067
36056DOPC   C1B43698  16.918   7.795  14.491  0.0851 -0.0790 -0.3555
36056DOPC   D2B43699  17.337   7.662  14.338 -0.1420  0.1741 -0.2145
36056DOPC   C3B43700  17.658   7.429  14.006  0.2643 -0.2650  0.0386
36056DOPC   C4B43701  17.792   7.245  13.643 -0.0545 -0.1189  0.2282
36057DOPC   NC343702  10.998   3.930  15.422 -0.0466  0.0536 -0.1410
36057DOPC   PO443703  10.859   3.532  15.474  0.1701  0.0422 -0.1505
36057DOPC   GL143704  11.054   3.598  15.099  0.3466 -0.2754 -0.1422
36057DOPC   GL243705  11.259   3.748  15.088  0.0772 -0.1545 -0.1779
36057DOPC   C1A43706  10.883   3.661  14.707 -0.3109 -0.0100 -0.0339
36057DOPC   D2A43707  10.610   3.818  14.327  0.0009  0.2348  0.1731
36057DOPC   C3A43708  10.467   4.194  14.057 -0.1129  0.3380 -0.0980
36057DOPC   C4A43709  10.556   4.322  13.529 -0.0168  0.2878  0.0612
36057DOPC   C1B43710  11.356   3.606  14.686  0.1097  0.3449  0.1490
36057DOPC   D2B43711  11.223   3.441  14.257 -0.0043 -0.1824 -0.2268
36057DOPC   C3B43712  10.899   3.577  14.038  0.0295  0.4569 -0.0458
36057DOPC   C4B43713  10.481   3.400  13.956  0.1815 -0.0533  0.0453
36058DOPC   NC343714   2.035   2.190  15.040  0.0101 -0.0531 -0.0132
36058DOPC   PO443715   2.128   2.022  14.681 -0.4753 -0.1482 -0.1635
36058DOPC   GL143716   2.092   1.898  14.290 -0.4997  0.3292  0.0163
36058DOPC   GL243717   2.248   1.606  14.293  0.1677  0.2443 -0.0585
36058DOPC   C1A43718   2.337   1.939  13.937  0.0117 -0.1254 -0.0980
36058DOPC   D2A43719   2.787   1.843  13.766 -0.0648  0.1755 -0.0242
36058DOPC   C3A43720   2.890   2.206  13.414  0.2530 -0.3589 -0.1306
36058DOPC   C4A43721   2.865   2.217  12.906 -0.0445 -0.1320 -0.1236
36058DOPC   C1B43722   2.658   1.568  14.145 -0.1154  0.3588  0.3573
36058DOPC   D2B43723   3.070   1.489  13.881  0.1714 -0.0156 -0.0151
36058DOPC   C3B43724   3.149   1.592  13.439  0.0368  0.3045 -0.0837
36058DOPC   C4B43725   3.292   1.997  13.171 -0.1664  0.1644  0.0129
36059DOPC   NC343726   0.705   5.242  14.623 -0.1579  0.5084  0.1020
36059DOPC   PO443727   1.018   5.229  14.359 -0.0556  0.0532 -0.3049
36059DOPC   GL143728   1.015   5.244  13.971  0.2512 -0.0983 -0.5668
36059DOPC   GL243729   0.711   5.055  14.038 -0.1554  0.1359 -0.2191
36059DOPC   C1A43730   1.310   5.247  13.644  0.1185  0.0718 -0.0383
36059DOPC   D2A43731   1.672   5.130  13.369 -0.1230  0.2075  0.3181
36059DOPC   C3A43732   1.758   4.810  13.056 -0.2009 -0.1614  0.0413
36059DOPC   C4A43733   1.729   4.825  12.542  0.2040  0.3886 -0.0163
36059DOPC   C1B43734   0.495   4.840  13.722 -0.0490 -0.2862 -0.3021
36059DOPC   D2B43735   0.331   4.606  13.297 -0.0369  0.1453  0.4841
36059DOPC   C3B43736   0.067   4.348  12.948 -0.1280 -0.0634 -0.0283
36059DOPC   C4B43737  -0.100   3.976  12.674  0.1109 -0.2407 -0.0884
36060DOPC   NC343738   8.912   3.962  15.344  0.3027  0.2452 -0.2687
36060DOPC   PO443739   8.840   4.352  15.315  0.2074  0.3098  0.2047
36060DOPC   GL143740   8.992   4.295  14.905  0.1857 -0.0529  0.0239
36060DOPC   GL243741   8.695   4.306  14.942  0.2072  0.0880 -0.0329
36060DOPC   C1A43742   9.379   4.523  14.704  0.1514 -0.0322  0.1497
36060DOPC   D2A43743   9.788   4.591  14.473 -0.1963  0.0187  0.1650
36060DOPC   C3A43744  10.006   4.460  14.101 -0.0349 -0.0230 -0.2635
36060DOPC   C4A43745  10.048   4.259  13.692  0.3910 -0.1165 -0.1066
36060DOPC   C1B43746   8.479   4.094  14.598 -0.0339  0.0788 -0.3422
36060DOPC   D2B43747   8.198   3.735  14.385 -0.0008  0.1592  0.1176
36060DOPC   C3B43748   8.442   3.434  14.050  0.1294  0.2348  0.0461
36060DOPC   C4B43749   8.674   3.130  13.813 -0.0616 -0.0234 -0.2203
36061DOPC   NC343750  20.213   2.095  15.333 -0.1460 -0.0882  0.0175
36061DOPC   PO443751  20.476   2.388  15.282  0.2218  0.0716 -0.2128
36061DOPC   GL143752  20.503   2.378  14.835  0.2038  0.0529  0.1465
36061DOPC   GL243753  20.652   2.141  14.751 -0.0063 -0.1727 -0.5049
36061DOPC   C1A43754  20.162   2.449  14.549 -0.0790 -0.0765  0.0810
36061DOPC   D2A43755  19.774   2.572  14.229  0.2631 -0.0966  0.1961
36061DOPC   C3A43756  19.594   2.525  13.819  0.0513  0.1140  0.2194
36061DOPC   C4A43757  19.520   2.584  13.392 -0.1540  0.0345  0.1978
36061DOPC   C1B43758  20.603   2.208  14.267  0.0326 -0.0025 -0.1259
36061DOPC   D2B43759  20.708   2.430  13.838 -0.0766 -0.0663  0.2777
36061DOPC   C3B43760  20.472   2.747  13.559  0.1720  0.2625 -0.0891
36061DOPC   C4B43761  20.083   2.679  13.343 -0.1984  0.1127 -0.0282
36062DOPC   NC343762  21.484   5.892  11.478 -0.3105  0.2043 -0.1997
36062DOPC   PO443763  21.578   6.259  11.438 -0.0418 -0.2384  0.1568
36062DOPC   GL143764  21.672   6.368  11.803 -0.2745  0.1303 -0.0155
36062DOPC   GL243765  21.910   6.542  11.673  0.0084  0.0936  0.2807
36062DOPC   C1A43766  21.769   6.201  12.192 -0.0179 -0.1371  0.0113
36062DOPC   D2A43767  21.916   6.462  12.616  0.1471  0.1456  0.0093
36062DOPC   C3A43768  22.178   6.219  12.937  0.0425  0.0645 -0.2317
36062DOPC   C4A43769  22.550   5.840  12.928  0.1371  0.1768 -0.1916
36062DOPC   C1B43770  22.199   6.424  12.017 -0.2200 -0.1809  0.1091
36062DOPC   D2B43771  22.367   6.243  12.470 -0.0261  0.1198 -0.2166
36062DOPC   C3B43772  22.614   5.997  12.203 -0.1085  0.0952  0.2107
36062DOPC   C4B43773  22.901   5.828  11.833 -0.1880  0.2820  0.0442
36063DOPC   NC343774   9.536   0.013  11.004  0.1811 -0.1810  0.2245
36063DOPC   PO443775   9.190  -0.133  10.890 -0.0559  0.0355  0.2529
36063DOPC   GL143776   9.002  -0.253  11.239 -0.0812 -0.2009  0.2383
36063DOPC   GL243777   8.741  -0.154  11.163 -0.0794  0.0495 -0.1121
36063DOPC   C1A43778   9.139  -0.205  11.665 -0.4330  0.1527  0.2139
36063DOPC   D2A43779   9.163  -0.351  12.165  0.0901 -0.0722 -0.1108
36063DOPC   C3A43780   8.920  -0.181  12.540 -0.1827  0.1088  0.0431
36063DOPC   C4A43781   8.624  -0.038  12.881 -0.0989 -0.0648  0.1429
36063DOPC   C1B43782   8.533  -0.209  11.595 -0.2733 -0.0081  0.1236
36063DOPC   D2B43783   8.139  -0.311  11.897 -0.0446 -0.1676 -0.3821
36063DOPC   C3B43784   8.141  -0.373  12.385  0.0786 -0.1788  0.3481
36063DOPC   C4B43785   8.002  -0.368  12.900  0.2437 -0.2543 -0.0632
36064DOPC   NC343786  24.593   0.147  11.096  0.0437 -0.0217 -0.2741
36064DOPC   PO443787  24.886   0.033  11.375  0.2117 -0.0107 -0.0775
36064DOPC   GL143788  24.940  -0.076  11.744 -0.1470  0.1264  0.0918
36064DOPC   GL243789  24.934  -0.384  11.719 -0.4085 -0.2466  0.1187
36064DOPC   C1A43790  25.273   0.216  11.885  0.0380  0.0447 -0.0234
36064DOPC   D2A43791  25.644   0.588  11.950  0.0839  0.2737 -0.1325
36064DOPC   C3A43792  25.824   0.875  12.250  0.1869 -0.1954 -0.0121
36064DOPC   C4A43793  25.867   1.268  12.530 -0.0958  0.0890  0.1901
36064DOPC   C1B43794  24.833  -0.481  12.070 -0.1219  0.2596  0.2592
36064DOPC   D2B43795  24.671  -0.657  12.534  0.2236  0.0059 -0.0786
36064DOPC   C3B43796  24.458  -0.702  12.882  0.1613  0.1444 -0.2180
36064DOPC   C4B43797  24.391  -0.913  13.266  0.0146  0.0742  0.1155
36065DOPC   NC343798  22.846   2.728  10.659 -0.1514 -0.0488  0.0271
36065DOPC   PO443799  22.914   3.057  10.878  0.1646 -0.3118  0.2512
36065DOPC   GL143800  22.848   3.083  11.276 -0.0196  0.1087  0.1520
36065DOPC   GL243801  22.628   3.042  11.372 -0.1872  0.2180 -0.0703
36065DOPC   C1A43802  23.163   3.117  11.552  0.0313 -0.0593  0.2555
36065DOPC   D2A43803  23.454   3.255  11.943  0.1236  0.1751  0.0461
36065DOPC   C3A43804  23.410   3.357  12.364 -0.1985  0.2376  0.1850
36065DOPC   C4A43805  23.274   3.350  12.828  0.4405 -0.0635  0.0257
36065DOPC   C1B43806  22.689   2.938  11.803 -0.1798 -0.3037 -0.0124
36065DOPC   D2B43807  22.602   2.887  12.283  0.1719 -0.1397  0.1129
36065DOPC   C3B43808  22.430   2.886  12.735 -0.0692 -0.1928  0.1464
36065DOPC   C4B43809  22.558   2.843  13.192 -0.0516  0.1189 -0.0695
36066DOPC   NC343810  25.358   0.783  11.548  0.3103  0.2543  0.0622
36066DOPC   PO443811  25.419   1.103  11.292 -0.1105  0.3730 -0.0932
36066DOPC   GL143812  25.362   1.335  11.694 -0.3120 -0.0594  0.0190
36066DOPC   GL243813  25.675   1.322  11.655 -0.4129 -0.1661  0.2463
36066DOPC   C1A43814  25.396   1.098  11.990 -0.0835 -0.0981  0.0638
36066DOPC   D2A43815  25.369   0.912  12.499  0.0349  0.0004 -0.2280
36066DOPC   C3A43816  24.972   0.880  12.764  0.2167  0.0694  0.0972
36066DOPC   C4A43817  24.550   0.837  13.011 -0.0016 -0.0537  0.0291
36066DOPC   C1B43818  25.875   1.448  11.977 -0.2639  0.1580 -0.0982
36066DOPC   D2B43819  26.330   1.494  12.285  0.1482  0.4157  0.1515
36066DOPC   C3B43820  26.218   1.447  12.715 -0.1001  0.2051  0.2374
36066DOPC   C4B43821  26.116   1.671  13.146  0.0439 -0.1593  0.1006
36067DOPC   NC343822  22.433   2.164  10.533  0.1441  0.0204  0.1897
36067DOPC   PO443823  22.705   2.258  10.786  0.1032 -0.0171 -0.2143
36067DOPC   GL143824  22.627   2.181  11.175  0.0290 -0.1562 -0.0292
36067DOPC   GL243825  22.859   1.954  11.205 -0.0649 -0.0663  0.2558
36067DOPC   C1A43826  22.623   2.319  11.603  0.2618 -0.1745  0.4270
36067DOPC   D2A43827  22.858   2.427  12.085 -0.5165  0.0783  0.1385
36067DOPC   C3A43828  22.858   2.479  12.547 -0.0261 -0.0720  0.0210
36067DOPC   C4A43829  22.868   2.396  13.041  0.0672  0.0103 -0.0430
36067DOPC   C1B43830  22.725   1.767  11.572  0.0049  0.2905  0.1136
36067DOPC   D2B43831  22.525   1.822  12.075 -0.3479 -0.0909 -0.2400
36067DOPC   C3B43832  22.425   2.143  12.384  0.0756  0.0592  0.3111
36067DOPC   C4B43833  22.409   2.376  12.814 -0.2971 -0.0480  0.0079
36068DOPC   NC343834  27.256   2.307  10.822 -0.3288  0.0884 -0.2128
36068DOPC   PO443835  27.634   2.116  10.768  0.2954 -0.3207  0.2688
36068DOPC   GL143836  27.831   2.179  11.101 -0.3275  0.4461  0.0067
36068DOPC   GL243837  27.695   2.435  11.166 -0.1694 -0.2293  0.4056
36068DOPC   C1A43838  27.885   2.052  11.461 -0.0368  0.1685  0.0990
36068DOPC   D2A43839  27.691   2.016  11.892 -0.0936  0.5235  0.0580
36068DOPC   C3A43840  27.847   2.293  12.200 -0.1049 -0.0466  0.3195
36068DOPC   C4A43841  28.042   2.615  12.428  0.0954  0.0947  0.0622
36068DOPC   C1B43842  27.660   2.635  11.482  0.0478  0.2403  0.0013
36068DOPC   D2B43843  27.575   2.519  11.872  0.2356  0.1056 -0.0445
36068DOPC   C3B43844  27.520   2.727  12.270 -0.0272 -0.1687  0.1980
36068DOPC   C4B43845  27.374   2.945  12.644  0.4129 -0.0741 -0.1064
36069DOPC   NC343846   6.574   2.335  11.070 -0.3567  0.0581  0.0221
36069DOPC   PO443847   6.878   2.367  10.867  0.0294  0.2488  0.1256
36069DOPC   GL143848   7.101   2.448  11.158 -0.0447 -0.4450  0.0538
36069DOPC   GL243849   7.339   2.422  11.191 -0.3502  0.1076  0.1778
36069DOPC   C1A43850   6.981   2.739  11.474 -0.1498  0.1027  0.0157
36069DOPC   D2A43851   7.061   3.074  11.844 -0.0632  0.2454 -0.1769
36069DOPC   C3A43852   6.939   2.978  12.273  0.1611 -0.0921  0.1100
36069DOPC   C4A43853   6.857   3.205  12.674  0.0022 -0.0250 -0.0546
36069DOPC   C1B43854   7.433   2.310  11.615 -0.0630  0.1067  0.2414
36069DOPC   D2B43855   7.476   2.154  12.113  0.0273  0.2069  0.2354
36069DOPC   C3B43856   7.352   2.126  12.531  0.0206 -0.0176  0.1421
36069DOPC   C4B43857   7.487   2.201  12.944 -0.2032 -0.2638  0.1317
36070DOPC   NC343858  23.496   2.729  11.351  0.1626 -0.1206  0.3439
36070DOPC   PO443859  23.738   2.431  11.197 -0.0102 -0.1523  0.1457
36070DOPC   GL143860  23.635   2.266  11.496  0.3231 -0.0036  0.2664
36070DOPC   GL243861  23.604   2.004  11.472 -0.0856  0.2727 -0.2035
36070DOPC   C1A43862  23.501   2.323  11.930  0.0717 -0.1761  0.0917
36070DOPC   D2A43863  23.296   2.401  12.295 -0.1408 -0.0766  0.3110
36070DOPC   C3A43864  23.291   2.188  12.708 -0.0630 -0.3030  0.1667
36070DOPC   C4A43865  23.188   2.000  13.162  0.4264  0.2790  0.0498
36070DOPC   C1B43866  23.509   1.818  11.826 -0.0829 -0.0634 -0.2935
36070DOPC   D2B43867  23.389   1.912  12.284 -0.2496 -0.1045 -0.2074
36070DOPC   C3B43868  23.637   1.882  12.707  0.0773 -0.0745  0.0090
36070DOPC   C4B43869  23.700   2.014  13.123 -0.1510  0.0311 -0.0140
36071DOPC   NC343870  19.594   4.525  11.281 -0.2289 -0.0878 -0.1941
36071DOPC   PO443871  19.723   4.880  11.310  0.0977 -0.0457  0.0465
36071DOPC   GL143872  19.512   4.969  11.682  0.0218  0.0410  0.3144
36071DOPC   GL243873  19.491   4.652  11.721 -0.2322 -0.0050 -0.3040
36071DOPC   C1A43874  19.532   4.948  12.097 -0.0877  0.1363  0.0022
36071DOPC   D2A43875  19.369   5.065  12.526 -0.1230 -0.2551  0.1543
36071DOPC   C3A43876  18.919   5.129  12.771 -0.1287  0.1782 -0.1706
36071DOPC   C4A43877  18.637   5.546  12.851  0.1054 -0.2846 -0.2369
36071DOPC   C1B43878  19.816   4.457  11.994  0.1769  0.2563  0.1943
36071DOPC   D2B43879  20.052   4.074  12.236  0.1174 -0.1546  0.0154
36071DOPC   C3B43880  20.242   3.919  12.711  0.1791  0.1856  0.2206
36071DOPC   C4B43881  20.354   3.997  13.173 -0.0128  0.0747 -0.0204
36072DOPC   NC343882  29.493   7.479  10.301  0.1810  0.1844  0.1506
36072DOPC   PO443883  29.556   7.547  10.665  0.1050  0.1731  0.1762
36072DOPC   GL143884  29.439   7.563  11.015  0.0622 -0.2708  0.1593
36072DOPC   GL243885  29.416   7.880  11.054 -0.0112 -0.1636 -0.1283
36072DOPC   C1A43886  29.638   7.243  11.262  0.1035 -0.0946 -0.4041
36072DOPC   D2A43887  29.759   7.248  11.725 -0.2244  0.1352  0.1694
36072DOPC   C3A43888  29.501   7.406  12.065 -0.1220  0.1115 -0.3188
36072DOPC   C4A43889  29.219   7.472  12.444 -0.0011 -0.1879 -0.0749
36072DOPC   C1B43890  29.708   7.781  11.363  0.1995 -0.0587  0.0234
36072DOPC   D2B43891  29.822   7.789  11.836  0.2201  0.0260 -0.2411
36072DOPC   C3B43892  29.792   7.795  12.308  0.0136 -0.2334  0.0203
36072DOPC   C4B43893  29.924   7.946  12.728 -0.4228  0.0366 -0.1497
36073DOPC   NC343894  17.027   3.184  11.522 -0.2089 -0.0618  0.1444
36073DOPC   PO443895  17.135   3.502  11.332  0.0749 -0.1663 -0.2350
36073DOPC   GL143896  16.774   3.635  11.563  0.1468  0.0224  0.0650
36073DOPC   GL243897  16.619   3.437  11.455  0.3877 -0.2412 -0.4686
36073DOPC   C1A43898  16.727   3.673  11.979 -0.4911 -0.0482  0.2043
36073DOPC   D2A43899  16.471   3.526  12.382 -0.0023 -0.0191 -0.0313
36073DOPC   C3A43900  16.502   3.408  12.909  0.1013 -0.0791  0.0013
36073DOPC   C4A43901  16.329   3.381  13.370  0.1197 -0.0500 -0.0113
36073DOPC   C1B43902  16.573   3.263  11.826 -0.0039  0.1640  0.1090
36073DOPC   D2B43903  16.744   3.106  12.240  0.1954  0.3403 -0.1073
36073DOPC   C3B43904  16.873   2.954  12.690 -0.0496 -0.4255  0.1304
36073DOPC   C4B43905  16.756   2.685  13.086  0.3158 -0.2047 -0.0804
36074DOPC   NC343906  18.716   3.966  11.650 -0.2515  0.1695 -0.2800
36074DOPC   PO443907  18.793   3.562  11.573 -0.2768  0.0127 -0.0341
36074DOPC   GL143908  18.624   3.203  11.890 -0.1599 -0.2288 -0.1563
36074DOPC   GL243909  18.449   3.450  11.925  0.0512  0.1151  0.0633
36074DOPC   C1A43910  18.689   2.877  12.193  0.0835 -0.2659 -0.3399
36074DOPC   D2A43911  18.736   2.623  12.638  0.0072  0.0645  0.0934
36074DOPC   C3A43912  18.583   2.725  13.046  0.1212  0.3830  0.1219
36074DOPC   C4A43913  18.402   2.731  13.481  0.1718  0.0776  0.3076
36074DOPC   C1B43914  18.211   3.467  12.297 -0.1495  0.0595 -0.0583
36074DOPC   D2B43915  17.938   3.282  12.697  0.1628 -0.1395  0.0183
36074DOPC   C3B43916  17.756   3.280  13.134  0.3065  0.0574 -0.4302
36074DOPC   C4B43917  17.602   3.527  13.565 -0.1095  0.1216  0.2774
36075DOPC   NC343918  20.483   4.974  11.809 -0.2224  0.2761  0.1078
36075DOPC   PO443919  20.825   4.939  11.646  0.1159 -0.2530  0.0866
36075DOPC   GL143920  21.170   5.106  11.895  0.2335  0.0256 -0.6612
36075DOPC   GL243921  21.198   4.807  11.930 -0.0566  0.2179 -0.1535
36075DOPC   C1A43922  20.791   5.114  12.244 -0.4118 -0.1864  0.1882
36075DOPC   D2A43923  20.853   5.164  12.729  0.1403  0.1576 -0.0031
36075DOPC   C3A43924  20.827   5.042  13.168  0.1400 -0.0904  0.2456
36075DOPC   C4A43925  20.520   4.857  13.482  0.0033 -0.1109  0.1217
36075DOPC   C1B43926  20.998   4.513  12.162  0.2389  0.1555  0.0823
36075DOPC   D2B43927  20.831   4.575  12.619  0.0411 -0.0355 -0.0120
36075DOPC   C3B43928  20.989   4.620  12.968  0.1883 -0.1385 -0.0730
36075DOPC   C4B43929  21.096   4.687  13.433 -0.0103  0.1205 -0.0018
36076DOPC   NC343930   6.368   4.106  10.763  0.0089 -0.1402  0.0328
36076DOPC   PO443931   6.301   4.458  10.982 -0.0435  0.1526  0.0633
36076DOPC   GL143932   6.429   4.498  11.425  0.1680 -0.0461  0.1806
36076DOPC   GL243933   6.703   4.474  11.436  0.0406 -0.3980 -0.0762
36076DOPC   C1A43934   6.248   4.700  11.773 -0.1899 -0.0422 -0.0608
36076DOPC   D2A43935   6.229   4.774  12.284  0.1834  0.0930 -0.0519
36076DOPC   C3A43936   6.034   4.838  12.726  0.1214  0.1576  0.1476
36076DOPC   C4A43937   5.759   4.815  13.121 -0.0429 -0.2269  0.0718
36076DOPC   C1B43938   6.729   4.596  11.885 -0.3675 -0.0040 -0.0488
36076DOPC   D2B43939   6.794   4.743  12.387  0.2557  0.2049 -0.1198
36076DOPC   C3B43940   6.506   4.778  12.778 -0.1511 -0.1027  0.0249
36076DOPC   C4B43941   6.299   4.857  13.152 -0.0238 -0.1668  0.2019
36077DOPC   NC343942   6.304   6.404  10.823 -0.2087  0.1336  0.0416
36077DOPC   PO443943   6.425   6.074  11.062 -0.1520 -0.1968 -0.1208
36077DOPC   GL143944   6.168   5.928  11.302 -0.3635 -0.3298 -0.0658
36077DOPC   GL243945   6.161   6.202  11.458  0.0038 -0.1301 -0.2132
36077DOPC   C1A43946   6.065   5.712  11.673 -0.1194  0.0580  0.0670
36077DOPC   D2A43947   6.061   5.401  12.115 -0.0777 -0.1205  0.1684
36077DOPC   C3A43948   5.800   5.042  12.321 -0.0959  0.1233  0.4169
36077DOPC   C4A43949   5.490   4.904  12.680 -0.1354 -0.1547  0.0929
36077DOPC   C1B43950   6.053   6.183  11.852  0.1141  0.1580 -0.0730
36077DOPC   D2B43951   5.765   5.890  12.143  0.0364  0.3961  0.4622
36077DOPC   C3B43952   5.762   5.559  12.510  0.2267 -0.0901  0.5607
36077DOPC   C4B43953   5.866   5.262  12.922  0.2943 -0.2092 -0.0867
36078DOPC   NC343954   0.173   0.223  10.378  0.0052 -0.0690 -0.0509
36078DOPC   PO443955  -0.123   0.361  10.586  0.0629  0.0493 -0.2133
36078DOPC   GL143956   0.003   0.315  11.034 -0.4589 -0.0097  0.3507
36078DOPC   GL243957  -0.142   0.275  11.148  0.2414 -0.0929  0.0944
36078DOPC   C1A43958   0.385   0.472  11.347  0.5041 -0.0117  0.2015
36078DOPC   D2A43959   0.583   0.678  11.718 -0.0125 -0.0303 -0.4200
36078DOPC   C3A43960   0.796   0.442  12.024 -0.0048 -0.0643 -0.1980
36078DOPC   C4A43961   0.955  -0.076  12.129 -0.4319  0.0349  0.0598
36078DOPC   C1B43962   0.030   0.060  11.462 -0.0391 -0.0319 -0.1779
36078DOPC   D2B43963   0.240  -0.260  11.823  0.1420 -0.2318  0.3888
36078DOPC   C3B43964   0.538  -0.475  11.953 -0.2556  0.2130 -0.0404
36078DOPC   C4B43965   0.548  -0.863  12.211 -0.0167  0.0797 -0.1181
36079DOPC   NC343966  12.895   7.117  10.980  0.0182 -0.1792 -0.0656
36079DOPC   PO443967  13.036   7.470  11.116 -0.0861 -0.2791  0.1126
36079DOPC   GL143968  13.003   7.354  11.425  0.2320 -0.2683  0.1690
36079DOPC   GL243969  12.870   7.119  11.453 -0.0214  0.2439  0.0471
36079DOPC   C1A43970  13.089   7.541  11.804 -0.0166  0.1914  0.2781
36079DOPC   D2A43971  13.132   7.766  12.225  0.0216  0.1076 -0.2826
36079DOPC   C3A43972  12.981   7.841  12.671  0.2062  0.1105 -0.1286
36079DOPC   C4A43973  12.908   7.975  13.143 -0.3300  0.0562  0.2500
36079DOPC   C1B43974  12.817   7.001  11.916  0.0117 -0.0701 -0.0436
36079DOPC   D2B43975  12.535   6.948  12.272 -0.0258 -0.1937  0.1118
36079DOPC   C3B43976  12.464   7.003  12.732 -0.0913 -0.0080 -0.4291
36079DOPC   C4B43977  12.377   6.953  13.168  0.1571  0.1291  0.2947
36080DOPC   NC343978  19.044   1.032  11.857 -0.1400 -0.0912  0.1625
36080DOPC   PO443979  19.024   1.401  11.644  0.4098  0.0408  0.1826
36080DOPC   GL143980  19.147   1.443  12.028  0.5513 -0.2332 -0.5007
36080DOPC   GL243981  19.296   1.722  11.944 -0.3786  0.0966 -0.1963
36080DOPC   C1A43982  19.420   1.440  12.385  0.4505  0.2192 -0.0404
36080DOPC   D2A43983  19.629   1.760  12.586 -0.0897  0.1280  0.2390
36080DOPC   C3A43984  19.711   1.797  13.115  0.0170 -0.1416  0.2550
36080DOPC   C4A43985  19.483   1.711  13.489 -0.3833  0.1669  0.0535
36080DOPC   C1B43986  19.775   1.705  12.066 -0.2061 -0.2022  0.4901
36080DOPC   D2B43987  20.093   1.350  12.070 -0.5151  0.2302 -0.1341
36080DOPC   C3B43988  20.357   1.169  12.428  0.1101 -0.1547 -0.1320
36080DOPC   C4B43989  20.741   1.031  12.742  0.2683  0.1570  0.0502
36081DOPC   NC343990   6.658   7.533  10.654 -0.1053 -0.1218 -0.0944
36081DOPC   PO443991   7.022   7.420  10.647  0.0844 -0.3154 -0.0255
36081DOPC   GL143992   7.396   7.509  10.951 -0.4814  0.0059  0.2272
36081DOPC   GL243993   7.167   7.351  11.161 -0.3477 -0.2159  0.3105
36081DOPC   C1A43994   7.498   7.675  11.332 -0.5161 -0.2054  0.0443
36081DOPC   D2A43995   7.642   7.727  11.794 -0.1275 -0.0130  0.0841
36081DOPC   C3A43996   7.573   7.964  12.171 -0.0977 -0.0092 -0.0943
36081DOPC   C4A43997   7.743   8.133  12.573  0.1138  0.0791  0.2437
36081DOPC   C1B43998   7.074   7.522  11.470  0.0194 -0.1265 -0.0220
36081DOPC   D2B43999   7.042   7.763  11.917 -0.1510  0.5066  0.0791
36081DOPC   C3B44000   7.194   7.729  12.370  0.2267 -0.1145 -0.1534
36081DOPC   C4B44001   7.304   8.037  12.737 -0.0742  0.5624  0.1783
36082DOPC   NC344002  19.943   1.115  11.580  0.0122  0.2385  0.2583
36082DOPC   PO444003  20.146   1.518  11.540 -0.0546 -0.0423  0.2242
36082DOPC   GL144004  20.359   1.678  11.850 -0.0393 -0.0880  0.0691
36082DOPC   GL244005  20.167   1.935  11.856  0.1632  0.0258  0.0573
36082DOPC   C1A44006  20.498   1.564  12.244 -0.2392 -0.4383 -0.0809
36082DOPC   D2A44007  20.651   1.543  12.692 -0.0270  0.0504  0.2105
36082DOPC   C3A44008  21.054   1.440  12.905  0.0909 -0.0512  0.1647
36082DOPC   C4A44009  21.341   1.448  13.267 -0.0300 -0.0648 -0.2852
36082DOPC   C1B44010  20.173   2.057  12.305  0.1165  0.3086  0.0166
36082DOPC   D2B44011  20.286   1.931  12.754  0.0894 -0.2295  0.2417
36082DOPC   C3B44012  20.073   1.537  12.920 -0.1375 -0.1275  0.2219
36082DOPC   C4B44013  19.857   1.328  13.282 -0.2538  0.1274  0.1375
36083DOPC   NC344014  25.356   5.277  11.206 -0.0833  0.2872  0.0716
36083DOPC   PO444015  25.300   4.867  11.228 -0.2230  0.0378  0.1729
36083DOPC   GL144016  25.262   4.614  11.590 -0.0390 -0.2478  0.2233
36083DOPC   GL244017  25.340   4.831  11.776  0.1235  0.3251  0.0887
36083DOPC   C1A44018  24.935   4.327  11.714 -0.0521 -0.1295  0.2170
36083DOPC   D2A44019  24.715   3.906  11.935  0.0052  0.0208  0.0110
36083DOPC   C3A44020  24.643   3.706  12.308 -0.0632 -0.0173  0.0991
36083DOPC   C4A44021  24.498   3.618  12.752 -0.0350 -0.0959  0.0486
36083DOPC   C1B44022  25.126   4.768  12.176 -0.0383  0.0838 -0.1986
36083DOPC   D2B44023  24.869   4.816  12.598 -0.3225 -0.0310 -0.0132
36083DOPC   C3B44024  24.534   4.498  12.755 -0.1355 -0.1919  0.3221
36083DOPC   C4B44025  24.117   4.308  12.918  0.1238 -0.0939  0.2467
36084DOPC   NC344026  10.675   2.778  11.467  0.1340  0.0646  0.0341
36084DOPC   PO444027  10.803   2.476  11.722  0.1853  0.2033  0.3358
36084DOPC   GL144028  10.717   2.549  12.103  0.1531 -0.1305  0.1078
36084DOPC   GL244029  11.011   2.402  12.174 -0.0639  0.2011 -0.1332
36084DOPC   C1A44030  10.562   2.601  12.532  0.1718 -0.0310  0.2271
36084DOPC   D2A44031  10.142   2.593  12.930  0.0659  0.0505  0.1066
36084DOPC   C3A44032   9.703   2.734  13.145 -0.0693 -0.0576  0.0900
36084DOPC   C4A44033   9.270   2.986  13.066  0.0453 -0.1994  0.0762
36084DOPC   C1B44034  11.272   2.349  12.577  0.1135 -0.0504  0.0016
36084DOPC   D2B44035  11.463   2.367  12.992 -0.0145 -0.1547  0.1246
36084DOPC   C3B44036  11.256   2.176  13.330  0.1372  0.0585 -0.2604
36084DOPC   C4B44037  11.144   1.948  13.762 -0.0929 -0.0598 -0.0973
36085DOPC   NC344038  22.911   1.649  10.795  0.1282  0.2204 -0.1086
36085DOPC   PO444039  22.686   1.334  10.928 -0.1879  0.1346 -0.0708
36085DOPC   GL144040  22.832   1.201  11.309  0.2115 -0.1434 -0.1172
36085DOPC   GL244041  22.728   0.897  11.247 -0.0695 -0.0404 -0.1598
36085DOPC   C1A44042  22.709   1.241  11.735  0.0345 -0.2194  0.2328
36085DOPC   D2A44043  22.777   0.864  12.027  0.3080 -0.1319  0.0468
36085DOPC   C3A44044  22.420   0.511  12.067 -0.0031 -0.0498 -0.0347
36085DOPC   C4A44045  21.932   0.348  12.087  0.3804 -0.0486  0.1553
36085DOPC   C1B44046  22.759   0.586  11.582 -0.0008 -0.0522 -0.0749
36085DOPC   D2B44047  22.762   0.200  11.951 -0.3532  0.2797  0.0200
36085DOPC   C3B44048  22.724   0.351  12.385  0.0506  0.5159 -0.0088
36085DOPC   C4B44049  22.653   0.283  12.879  0.1864 -0.1128 -0.0941
36086DOPC   NC344050   7.127   0.098  10.740 -0.3786 -0.0016  0.0117
36086DOPC   PO444051   6.949   0.452  10.697 -0.0440 -0.3015  0.1016
36086DOPC   GL144052   7.019   0.547  11.124  0.3827  0.3109  0.4079
36086DOPC   GL244053   7.154   0.310  11.155 -0.0645  0.4477 -0.2318
36086DOPC   C1A44054   6.960   0.670  11.521 -0.1024 -0.0552 -0.0475
36086DOPC   D2A44055   6.699   0.771  11.912 -0.1101 -0.1194 -0.1977
36086DOPC   C3A44056   6.404   1.053  12.214  0.2869 -0.4844  0.2546
36086DOPC   C4A44057   6.170   1.312  12.592 -0.1289 -0.0633  0.1114
36086DOPC   C1B44058   7.272   0.233  11.560  0.2590 -0.2825  0.2616
36086DOPC   D2B44059   7.097   0.387  11.982  0.2800 -0.0710  0.1880
36086DOPC   C3B44060   7.224   0.547  12.378  0.0956 -0.0720  0.1640
36086DOPC   C4B44061   7.068   0.877  12.682 -0.2086 -0.0650 -0.1699
36087DOPC   NC344062   8.845   7.402  10.879  0.2249 -0.0470  0.0772
36087DOPC   PO444063   9.105   7.099  11.010  0.0506 -0.1293  0.0496
36087DOPC   GL144064   9.154   6.961  11.378 -0.3969  0.0315 -0.2379
36087DOPC   GL244065   9.125   6.655  11.346  0.1749  0.2384  0.0749
36087DOPC   C1A44066   9.259   7.133  11.767 -0.3081  0.2067 -0.1765
36087DOPC   D2A44067   9.421   7.059  12.194 -0.0605  0.2878  0.1516
36087DOPC   C3A44068   9.595   6.687  12.144  0.0003 -0.0685 -0.0064
36087DOPC   C4A44069   9.555   6.277  12.290 -0.1189  0.2065 -0.1846
36087DOPC   C1B44070   8.791   6.684  11.636  0.0873  0.3695 -0.1149
36087DOPC   D2B44071   8.533   6.639  12.097 -0.6213 -0.1812 -0.1482
36087DOPC   C3B44072   8.276   6.256  12.069  0.0487 -0.0614  0.1981
36087DOPC   C4B44073   8.040   5.924  12.255 -0.2748 -0.0865  0.0685
36088DOPC   NC344074  13.788   3.856  10.785  0.0273 -0.0768 -0.0403
36088DOPC   PO444075  13.913   4.082  11.095  0.0985 -0.0217 -0.2534
36088DOPC   GL144076  14.182   4.236  11.526 -0.1226  0.1632 -0.1952
36088DOPC   GL244077  14.030   3.978  11.629 -0.2119  0.0358 -0.0741
36088DOPC   C1A44078  14.531   4.150  11.794 -0.2822  0.1202 -0.0013
36088DOPC   D2A44079  14.588   4.423  12.191  0.3171  0.0099 -0.0767
36088DOPC   C3A44080  14.736   4.288  12.620  0.1133  0.1561  0.1072
36088DOPC   C4A44081  15.073   4.201  12.973 -0.3353 -0.2246  0.1752
36088DOPC   C1B44082  13.799   3.951  12.060  0.0994  0.0576 -0.1573
36088DOPC   D2B44083  13.857   3.957  12.524  0.3223 -0.0001 -0.0191
36088DOPC   C3B44084  13.607   4.180  12.918  0.2039  0.0987  0.4191
36088DOPC   C4B44085  13.555   3.973  13.360  0.3455  0.0074 -0.0748
36089DOPC   NC344086  23.541   5.205  11.290  0.1350  0.0102  0.1662
36089DOPC   PO444087  23.196   5.102  11.401  0.3148  0.1579 -0.1647
36089DOPC   GL144088  23.058   4.782  11.703  0.5113  0.1229  0.2385
36089DOPC   GL244089  23.140   5.017  11.863  0.1046 -0.0184 -0.0899
36089DOPC   C1A44090  22.967   4.474  11.973  0.0376 -0.0519  0.1525
36089DOPC   D2A44091  23.052   4.314  12.376 -0.0461  0.2030 -0.0694
36089DOPC   C3A44092  23.349   4.196  12.695 -0.0262  0.1473 -0.0732
36089DOPC   C4A44093  23.670   4.034  13.008 -0.1348  0.1243  0.1536
36089DOPC   C1B44094  23.053   4.884  12.241  0.2053  0.2082  0.0584
36089DOPC   D2B44095  23.109   4.711  12.689  0.0883 -0.1706 -0.1070
36089DOPC   C3B44096  22.961   4.603  13.085  0.2736 -0.0629  0.2773
36089DOPC   C4B44097  22.658   4.347  13.405 -0.1029 -0.0503  0.0093
36090DOPC   NC344098  11.647   5.833  11.181  0.1278 -0.0557 -0.4217
36090DOPC   PO444099  11.983   5.651  11.300  0.2566  0.1970 -0.1803
36090DOPC   GL144100  11.827   5.643  11.684  0.2208  0.0297  0.1406
36090DOPC   GL244101  11.794   5.962  11.584 -0.1039 -0.2159 -0.0720
36090DOPC   C1A44102  11.585   5.413  11.965 -0.0340 -0.3146  0.1555
36090DOPC   D2A44103  11.283   5.517  12.314 -0.1717  0.1267 -0.1271
36090DOPC   C3A44104  10.984   5.709  12.586  0.0207 -0.0534  0.2037
36090DOPC   C4A44105  10.750   5.778  12.982 -0.0076  0.2537  0.3286
36090DOPC   C1B44106  11.592   5.895  11.985 -0.0826  0.0184  0.0581
36090DOPC   D2B44107  11.330   6.026  12.381  0.2236  0.0787  0.0373
36090DOPC   C3B44108  11.475   6.056  12.802  0.2221  0.1025  0.1857
36090DOPC   C4B44109  11.926   6.110  12.846 -0.0226 -0.1131  0.0536
36091DOPC   NC344110  22.647   5.636  10.878 -0.2910 -0.2815  0.1155
36091DOPC   PO444111  22.785   5.989  10.903  0.0528 -0.3310  0.1235
36091DOPC   GL144112  22.625   6.097  11.283 -0.0046  0.1698  0.0010
36091DOPC   GL244113  22.468   5.912  11.338 -0.3159  0.1329 -0.1151
36091DOPC   C1A44114  22.653   6.352  11.638  0.1034  0.0571 -0.1653
36091DOPC   D2A44115  22.652   6.540  12.128  0.0522 -0.0592  0.2232
36091DOPC   C3A44116  23.079   6.537  12.419  0.0424  0.4356 -0.0337
36091DOPC   C4A44117  23.487   6.688  12.651  0.1271  0.1755  0.1857
36091DOPC   C1B44118  22.398   5.686  11.689 -0.0323  0.1039  0.1139
36091DOPC   D2B44119  22.664   5.475  12.066  0.0061  0.0268 -0.1658
36091DOPC   C3B44120  22.553   5.568  12.518  0.1418 -0.0958 -0.0245
36091DOPC   C4B44121  22.403   5.296  12.946  0.0485 -0.0463 -0.0196
36092DOPC   NC344122   9.320   6.019  11.065  0.3020  0.1991  0.1047
36092DOPC   PO444123   9.011   6.157  11.274  0.0899  0.1150  0.0866
36092DOPC   GL144124   9.032   6.020  11.629 -0.0872 -0.0480 -0.2288
36092DOPC   GL244125   8.806   6.222  11.774  0.2134 -0.2301 -0.0594
36092DOPC   C1A44126   9.198   5.980  12.038  0.2051  0.0079  0.2029
36092DOPC   D2A44127   9.123   5.679  12.418  0.2129  0.0951  0.1928
36092DOPC   C3A44128   9.227   5.579  12.857 -0.0349  0.2186 -0.1065
36092DOPC   C4A44129   9.338   5.394  13.277  0.0044 -0.3885  0.1738
36092DOPC   C1B44130   8.737   6.211  12.164 -0.2469  0.2279  0.3106
36092DOPC   D2B44131   8.469   6.221  12.585 -0.0411 -0.2160  0.2346
36092DOPC   C3B44132   8.510   6.403  13.015 -0.0350  0.4239  0.0493
36092DOPC   C4B44133   8.443   6.630  13.504 -0.1792  0.2910 -0.0270
36093DOPC   NC344134   4.794   3.730  10.331 -0.1578 -0.2226  0.0428
36093DOPC   PO444135   4.782   3.580  10.678 -0.3359 -0.1603 -0.2185
36093DOPC   GL144136   4.763   3.610  11.059  0.1868 -0.1928 -0.0277
36093DOPC   GL244137   4.965   3.388  11.145 -0.2858 -0.2620  0.0905
36093DOPC   C1A44138   4.654   3.763  11.386 -0.1668 -0.2813 -0.3100
36093DOPC   D2A44139   4.603   4.029  11.784 -0.0017  0.2007  0.1528
36093DOPC   C3A44140   4.599   3.792  12.232  0.1842 -0.0051 -0.4329
36093DOPC   C4A44141   4.456   3.578  12.630 -0.1506  0.1478 -0.3084
36093DOPC   C1B44142   4.875   3.398  11.634  0.1210  0.0692  0.0582
36093DOPC   D2B44143   4.706   3.318  12.134 -0.1166  0.2386 -0.0478
36093DOPC   C3B44144   4.641   3.073  12.569  0.1612 -0.1865 -0.1039
36093DOPC   C4B44145   4.577   2.733  12.951  0.0324  0.1497  0.2443
36094DOPC   NC344146   4.669   5.001  10.728 -0.0619  0.0912  0.3171
36094DOPC   PO444147   4.607   4.639  10.574 -0.2494 -0.2818  0.2538
36094DOPC   GL144148   4.551   4.563  10.970  0.1304  0.1260 -0.1552
36094DOPC   GL244149   4.299   4.524  11.021  0.0740  0.0832  0.0331
36094DOPC   C1A44150   4.824   4.391  11.258 -0.1952  0.1273 -0.2552
36094DOPC   D2A44151   4.989   4.327  11.776  0.0590  0.0028  0.1937
36094DOPC   C3A44152   4.833   4.214  12.212  0.2953  0.0669  0.1372
36094DOPC   C4A44153   4.641   4.091  12.662 -0.1660 -0.1228 -0.1930
36094DOPC   C1B44154   4.324   4.171  11.289 -0.2418  0.2824 -0.2140
36094DOPC   D2B44155   4.102   3.809  11.516 -0.1040  0.0432 -0.0899
36094DOPC   C3B44156   3.808   3.682  11.837  0.0233  0.1523 -0.3527
36094DOPC   C4B44157   3.654   3.631  12.289  0.2296  0.0054 -0.2641
36095DOPC   NC344158   2.962   4.443  10.825  0.4235 -0.1494 -0.0730
36095DOPC   PO444159   3.095   4.738  10.586  0.1470 -0.2365  0.0565
36095DOPC   GL144160   2.978   5.051  10.925 -0.0228 -0.0085 -0.1075
36095DOPC   GL244161   2.721   4.866  10.909  0.0175 -0.0305  0.0287
36095DOPC   C1A44162   2.798   5.241  11.381 -0.0184  0.2437 -0.0429
36095DOPC   D2A44163   2.754   4.996  11.840 -0.1754 -0.0025 -0.0071
36095DOPC   C3A44164   3.004   5.198  12.104  0.1104  0.1829  0.0289
36095DOPC   C4A44165   3.266   5.393  12.461 -0.0897 -0.2488 -0.0684
36095DOPC   C1B44166   2.652   4.772  11.316 -0.2699  0.0368  0.0048
36095DOPC   D2B44167   2.727   4.388  11.552 -0.3577  0.0336  0.1000
36095DOPC   C3B44168   2.966   4.521  11.993 -0.1270  0.0814  0.0365
36095DOPC   C4B44169   3.106   4.327  12.453  0.2488 -0.1426  0.1359
36096DOPC   NC344170  10.044   3.962  10.794  0.0349  0.4468  0.2140
36096DOPC   PO444171  10.094   4.072  11.156 -0.1094 -0.1925  0.0925
36096DOPC   GL144172   9.782   4.205  11.461  0.3285  0.2191  0.3008
36096DOPC   GL244173   9.728   3.864  11.408 -0.0433 -0.1375 -0.1202
36096DOPC   C1A44174   9.921   4.231  11.892 -0.1601  0.2446 -0.4562
36096DOPC   D2A44175  10.287   4.129  12.250 -0.1097  0.0850  0.1840
36096DOPC   C3A44176  10.602   4.215  12.621 -0.4444 -0.0756 -0.0294
36096DOPC   C4A44177  11.005   4.165  12.875 -0.2462  0.1655  0.3152
36096DOPC   C1B44178   9.704   3.602  11.744 -0.3758  0.4060  0.1647
36096DOPC   D2B44179   9.453   3.227  11.977  0.0553 -0.5592  0.3079
36096DOPC   C3B44180   9.193   3.571  11.910  0.0569 -0.2620 -0.2371
36096DOPC   C4B44181   8.815   3.870  11.867 -0.1236 -0.0783  0.0513
36097DOPC   NC344182  12.855   2.728  11.122 -0.0956  0.0120 -0.0894
36097DOPC   PO444183  12.985   2.537  11.450  0.1623  0.0371 -0.0558
36097DOPC   GL144184  12.864   2.573  11.860  0.0231 -0.0612  0.0551
36097DOPC   GL244185  12.494   2.568  11.694 -0.0998  0.2727  0.4667
36097DOPC   C1A44186  12.897   2.775  12.226 -0.2421  0.4036 -0.0599
36097DOPC   D2A44187  12.923   2.867  12.677  0.0521  0.0760  0.3496
36097DOPC   C3A44188  13.046   3.030  13.071 -0.1641 -0.1354  0.1112
36097DOPC   C4A44189  12.928   3.332  13.443  0.0938 -0.0923  0.2090
36097DOPC   C1B44190  12.349   2.552  12.128  0.3713  0.0666  0.0297
36097DOPC   D2B44191  12.046   2.760  12.456 -0.0481  0.1802  0.1420
36097DOPC   C3B44192  11.966   2.624  12.819  0.0749 -0.1416 -0.1472
36097DOPC   C4B44193  11.866   2.481  13.298 -0.1788 -0.1184 -0.2977
36098DOPC   NC344194  19.328   7.502  11.571  0.2894 -0.0409 -0.0080
36098DOPC   PO444195  19.689   7.627  11.613 -0.0503  0.0860 -0.1607
36098DOPC   GL144196  19.793   7.668  12.018  0.3072 -0.2683 -0.1112
36098DOPC   GL244197  19.640   7.954  11.911  0.1486  0.1309 -0.2612
36098DOPC   C1A44198  19.479   7.332  12.108  0.1264  0.0738  0.1610
36098DOPC   D2A44199  19.341   6.979  12.380  0.0660 -0.0000  0.1829
36098DOPC   C3A44200  19.115   6.860  12.806 -0.1628 -0.4056 -0.0580
36098DOPC   C4A44201  18.684   6.838  13.060  0.0911  0.2191 -0.1112
36098DOPC   C1B44202  19.545   8.395  12.174 -0.0665  0.1443  0.0900
36098DOPC   D2B44203  19.393   8.812  12.478 -0.3106 -0.0981  0.1325
36098DOPC   C3B44204  19.028   9.030  12.471 -0.3938 -0.1234 -0.1629
36098DOPC   C4B44205  18.637   9.291  12.596 -0.2917 -0.2331  0.2791
36099DOPC   NC344206   1.864   1.282   9.725 -0.0165  0.0746 -0.0246
36099DOPC   PO444207   2.124   1.159  10.048  0.0243 -0.1579  0.4087
36099DOPC   GL144208   2.375   1.111  10.419 -0.2074  0.1795 -0.2563
36099DOPC   GL244209   2.151   0.963  10.573  0.3365 -0.3416 -0.2894
36099DOPC   C1A44210   2.417   1.336  10.795  0.1488  0.3240 -0.0254
36099DOPC   D2A44211   2.119   1.595  11.093  0.0639 -0.0694 -0.0039
36099DOPC   C3A44212   1.845   1.520  11.472 -0.3230 -0.0087 -0.1120
36099DOPC   C4A44213   1.555   1.476  11.889  0.2739  0.1530 -0.0507
36099DOPC   C1B44214   2.008   1.058  10.963  0.0518  0.2306 -0.0448
36099DOPC   D2B44215   2.086   1.086  11.436 -0.1348 -0.0238  0.2153
36099DOPC   C3B44216   1.919   1.112  11.854 -0.2376  0.1122  0.0700
36099DOPC   C4B44217   1.773   1.174  12.302 -0.2157 -0.1129 -0.1125
36100DOPC   NC344218  10.963   3.688  11.047 -0.1839  0.2620  0.0052
36100DOPC   PO444219  11.121   3.624  11.427  0.0957  0.2045  0.0665
36100DOPC   GL144220  11.010   3.705  11.809  0.0629  0.0495  0.0029
36100DOPC   GL244221  10.717   3.667  11.741  0.0336 -0.3472  0.0050
36100DOPC   C1A44222  11.191   3.591  12.217  0.0001 -0.0413  0.0371
36100DOPC   D2A44223  11.400   3.684  12.669 -0.0976 -0.0811 -0.0636
36100DOPC   C3A44224  11.373   3.889  13.092 -0.1853 -0.2811 -0.1259
36100DOPC   C4A44225  11.037   4.192  13.387 -0.0599 -0.0349 -0.0489
36100DOPC   C1B44226  10.311   3.840  11.848  0.0204  0.1330  0.0573
36100DOPC   D2B44227   9.894   3.812  12.118  0.0344  0.1780  0.0435
36100DOPC   C3B44228   9.839   3.939  12.532 -0.1693  0.0099 -0.1036
36100DOPC   C4B44229   9.687   3.896  12.976 -0.0579 -0.1156  0.2598
36101DOPC   NC344230  30.135   2.626  10.047  0.1681  0.0221 -0.0979
36101DOPC   PO444231  30.342   2.888  10.282  0.0922 -0.1833  0.1277
36101DOPC   GL144232  30.582   3.064  10.613 -0.0027  0.2598  0.1160
36101DOPC   GL244233  30.367   2.935  10.796  0.0278 -0.0623 -0.1867
36101DOPC   C1A44234  30.416   3.418  10.891  0.0046  0.1516  0.0942
36101DOPC   D2A44235  30.215   3.831  10.999 -0.0101 -0.2325 -0.1404
36101DOPC   C3A44236  30.025   3.926  11.407  0.2020  0.1348 -0.2008
36101DOPC   C4A44237  30.151   4.000  11.858  0.3680  0.1308  0.2142
36101DOPC   C1B44238  30.294   2.722  11.187 -0.0977 -0.0318 -0.3555
36101DOPC   D2B44239  30.439   2.459  11.555 -0.0267 -0.0308 -0.0520
36101DOPC   C3B44240  30.673   2.592  11.924 -0.2113  0.0367  0.2849
36101DOPC   C4B44241  30.882   2.545  12.394  0.0996  0.3130 -0.1792
36102DOPC   NC344242   7.094   5.153  10.968 -0.1559  0.1176 -0.0840
36102DOPC   PO444243   6.897   5.336  11.272  0.0843  0.0432  0.0987
36102DOPC   GL144244   7.101   5.611  11.497 -0.2523 -0.1919  0.3792
36102DOPC   GL244245   6.891   5.787  11.475  0.3913 -0.0701 -0.0603
36102DOPC   C1A44246   7.137   5.556  11.911  0.2622 -0.0376 -0.0276
36102DOPC   D2A44247   7.217   5.427  12.438 -0.1783 -0.0351 -0.1331
36102DOPC   C3A44248   7.308   5.423  12.907  0.1371 -0.2413  0.1780
36102DOPC   C4A44249   7.530   5.464  13.362 -0.0572  0.0554 -0.0567
36102DOPC   C1B44250   6.634   5.862  11.784  0.2030 -0.3015 -0.1949
36102DOPC   D2B44251   6.290   5.887  12.151 -0.1709 -0.0043  0.0773
36102DOPC   C3B44252   6.291   5.642  12.593  0.0519 -0.2749 -0.1403
36102DOPC   C4B44253   6.020   5.733  13.045 -0.2118  0.1028 -0.1244
36103DOPC   NC344254   0.057   4.412  10.710 -0.1719  0.0435  0.3178
36103DOPC   PO444255  -0.212   4.224  10.440  0.2479 -0.0131 -0.3030
36103DOPC   GL144256  -0.527   3.988  10.586 -0.1776  0.0252  0.1412
36103DOPC   GL244257  -0.281   3.963  10.790  0.1054  0.0352 -0.1377
36103DOPC   C1A44258  -0.710   3.998  10.970  0.3620 -0.0878  0.1133
36103DOPC   D2A44259  -0.909   3.796  11.404 -0.3143 -0.4668  0.3387
36103DOPC   C3A44260  -0.807   3.861  11.805  0.0764  0.0037  0.0511
36103DOPC   C4A44261  -0.768   4.159  12.150  0.0972  0.0934 -0.0379
36103DOPC   C1B44262  -0.172   4.123  11.164  0.0427 -0.0350 -0.0398
36103DOPC   D2B44263  -0.061   4.433  11.497  0.1016  0.1038 -0.0004
36103DOPC   C3B44264   0.233   4.155  11.804 -0.0016 -0.2699 -0.0137
36103DOPC   C4B44265   0.193   3.918  12.249 -0.1528 -0.2360  0.0608
36104DOPC   NC344266  10.485   0.222  10.884  0.0292 -0.1897  0.0119
36104DOPC   PO444267  10.662   0.519  11.093  0.4457  0.3897  0.3252
36104DOPC   GL144268  10.598   0.692  11.492 -0.0808  0.0875 -0.1545
36104DOPC   GL244269  10.877   0.837  11.433 -0.2783 -0.1451  0.0233
36104DOPC   C1A44270  10.726   0.609  11.896  0.0082  0.0190 -0.1552
36104DOPC   D2A44271  10.582   0.271  12.235 -0.0981 -0.0598 -0.0613
36104DOPC   C3A44272  10.937   0.034  12.464  0.2305 -0.2831  0.1341
36104DOPC   C4A44273  10.980  -0.231  12.848  0.1375  0.0296 -0.1369
36104DOPC   C1B44274  11.187   0.784  11.698 -0.2143  0.0415 -0.0366
36104DOPC   D2B44275  11.506   0.510  11.891  0.1423 -0.2605  0.0015
36104DOPC   C3B44276  11.558   0.486  12.378  0.2312  0.0854 -0.0366
36104DOPC   C4B44277  11.675   0.516  12.877  0.0204 -0.0252 -0.0368
36105DOPC   NC344278  13.018   1.642  11.754 -0.2985 -0.0675 -0.1106
36105DOPC   PO444279  12.761   1.810  11.444 -0.0147 -0.0506 -0.2212
36105DOPC   GL144280  12.610   1.892  11.805  0.0620 -0.5713  0.0385
36105DOPC   GL244281  12.749   2.158  11.796 -0.0285  0.1496  0.0818
36105DOPC   C1A44282  12.779   1.786  12.233  0.1458 -0.1776  0.2929
36105DOPC   D2A44283  12.650   2.037  12.683 -0.0531 -0.0021  0.0970
36105DOPC   C3A44284  12.708   1.943  13.138 -0.0277 -0.3116  0.1791
36105DOPC   C4A44285  12.644   1.926  13.646  0.5292  0.1508  0.0048
36105DOPC   C1B44286  12.743   2.301  12.175 -0.3564  0.1140 -0.0689
36105DOPC   D2B44287  12.594   2.505  12.577 -0.1169 -0.0993  0.2212
36105DOPC   C3B44288  12.624   2.561  13.032 -0.2483  0.0374  0.0540
36105DOPC   C4B44289  12.611   2.947  13.344 -0.0120  0.1647  0.3951
36106DOPC   NC344290  23.742   1.249  11.095  0.0629 -0.0378  0.2061
36106DOPC   PO444291  24.089   1.497  11.036 -0.0477  0.0331 -0.0381
36106DOPC   GL144292  24.251   1.626  11.467 -0.0872  0.0577  0.0463
36106DOPC   GL244293  24.019   1.849  11.476 -0.0187 -0.0488 -0.0810
36106DOPC   C1A44294  24.204   1.531  11.868  0.1085 -0.1660 -0.2316
36106DOPC   D2A44295  24.067   1.682  12.385  0.0485 -0.1339 -0.0918
36106DOPC   C3A44296  23.915   1.446  12.698  0.0911  0.2442 -0.0453
36106DOPC   C4A44297  24.028   1.254  13.146 -0.3329  0.3424 -0.0378
36106DOPC   C1B44298  23.940   2.014  11.902  0.0543  0.0513 -0.1801
36106DOPC   D2B44299  23.846   2.188  12.303 -0.1140 -0.4016  0.0572
36106DOPC   C3B44300  23.811   2.361  12.736 -0.1421  0.0118 -0.2610
36106DOPC   C4B44301  23.460   2.427  13.146 -0.0861 -0.3338 -0.0640
36107DOPC   NC344302   3.652   1.810  10.034  0.0864  0.1529  0.1665
36107DOPC   PO444303   3.797   1.936  10.352  0.0722  0.1983  0.1005
36107DOPC   GL144304   3.765   1.680  10.703 -0.1239  0.0118  0.0888
36107DOPC   GL244305   3.707   1.957  10.849  0.1423  0.1707  0.0630
36107DOPC   C1A44306   3.853   1.430  11.092  0.0487  0.0236  0.0067
36107DOPC   D2A44307   3.714   1.485  11.571 -0.2396 -0.0220 -0.3760
36107DOPC   C3A44308   3.671   1.603  12.020  0.0709  0.1684 -0.3573
36107DOPC   C4A44309   3.618   1.697  12.473 -0.1609 -0.0020 -0.5792
36107DOPC   C1B44310   3.670   2.054  11.263  0.2474  0.2790  0.0957
36107DOPC   D2B44311   3.394   2.291  11.569  0.0986 -0.2476  0.1386
36107DOPC   C3B44312   3.234   2.384  11.982 -0.1589  0.0039  0.2241
36107DOPC   C4B44313   3.138   2.395  12.412  0.3032  0.1675 -0.0458
36108DOPC   NC344314  28.625   2.592  10.761  0.1351 -0.0755 -0.3622
36108DOPC   PO444315  28.802   2.253  10.714 -0.1554  0.0154 -0.2211
36108DOPC   GL144316  28.730   2.141  11.175  0.0835 -0.0543  0.0089
36108DOPC   GL244317  28.926   1.936  11.226 -0.0095 -0.1739 -0.0915
36108DOPC   C1A44318  28.719   2.471  11.583 -0.1222 -0.0674  0.1298
36108DOPC   D2A44319  28.677   2.847  11.889 -0.0886  0.0158  0.0247
36108DOPC   C3A44320  28.906   2.900  12.281  0.0829  0.1815  0.2370
36108DOPC   C4A44321  28.997   2.806  12.739  0.1446 -0.2424 -0.0019
36108DOPC   C1B44322  29.061   2.087  11.604 -0.1210 -0.0142 -0.1207
36108DOPC   D2B44323  29.075   2.465  11.931  0.0419 -0.0521  0.0087
36108DOPC   C3B44324  28.880   2.417  12.381  0.1892  0.0754  0.2210
36108DOPC   C4B44325  28.652   2.372  12.870 -0.2371  0.0236 -0.0465
36109DOPC   NC344326  16.860   1.524  11.263  0.0571  0.3777 -0.2493
36109DOPC   PO444327  16.561   1.758  11.270 -0.0231  0.1511  0.1416
36109DOPC   GL144328  16.279   1.795  11.637  0.1798  0.1936  0.1243
36109DOPC   GL244329  16.477   2.059  11.645  0.1183  0.3390 -0.3250
36109DOPC   C1A44330  16.404   1.461  11.937 -0.1139  0.0247  0.3411
36109DOPC   D2A44331  16.560   1.299  12.367  0.0434 -0.2335  0.0032
36109DOPC   C3A44332  16.825   1.466  12.764  0.0579  0.0739 -0.1234
36109DOPC   C4A44333  17.258   1.580  12.892 -0.0061 -0.0338 -0.0347
36109DOPC   C1B44334  16.148   2.310  11.758 -0.1107 -0.0340 -0.2184
36109DOPC   D2B44335  15.927   2.563  12.176  0.2033  0.1522  0.1198
36109DOPC   C3B44336  15.776   2.390  12.639 -0.0927 -0.0480  0.4683
36109DOPC   C4B44337  15.712   2.218  13.098 -0.0841 -0.1487 -0.2179
36110DOPC   NC344338   1.783   2.892  10.068 -0.3349 -0.2581 -0.0821
36110DOPC   PO444339   2.172   2.925   9.965  0.1738  0.0541 -0.1190
36110DOPC   GL144340   2.298   2.891  10.366  0.0646  0.0354  0.0606
36110DOPC   GL244341   2.046   2.796  10.460 -0.3638 -0.0222 -0.0385
36110DOPC   C1A44342   2.431   3.038  10.802  0.0936  0.2139  0.0629
36110DOPC   D2A44343   2.421   2.782  11.178  0.3112  0.0847 -0.2075
36110DOPC   C3A44344   2.486   2.821  11.634  0.0037 -0.3160 -0.0806
36110DOPC   C4A44345   2.713   2.557  12.041 -0.4249 -0.3485  0.0063
36110DOPC   C1B44346   1.970   3.000  10.868 -0.0447  0.0437  0.0585
36110DOPC   D2B44347   1.923   2.833  11.324  0.0592  0.0788 -0.1054
36110DOPC   C3B44348   1.955   2.866  11.790 -0.3480 -0.2870 -0.2387
36110DOPC   C4B44349   1.727   2.811  12.214  0.0347 -0.2127 -0.0037
36111DOPC   NC344350   1.804   3.243   9.686  0.0620 -0.0421 -0.1268
36111DOPC   PO444351   1.485   3.354   9.888  0.1677  0.2104  0.1885
36111DOPC   GL144352   1.408   3.119  10.212 -0.1060 -0.1506  0.0811
36111DOPC   GL244353   1.163   3.023  10.257 -0.2603 -0.0001 -0.1916
36111DOPC   C1A44354   1.712   3.222  10.535 -0.1890 -0.2902 -0.0166
36111DOPC   D2A44355   2.103   3.488  10.682 -0.1907  0.3858  0.0863
36111DOPC   C3A44356   2.287   3.434  11.063  0.0869  0.0218 -0.1360
36111DOPC   C4A44357   2.235   3.180  11.473 -0.0965  0.0611  0.0859
36111DOPC   C1B44358   1.296   3.051  10.699 -0.4845 -0.0843 -0.1883
36111DOPC   D2B44359   1.411   3.102  11.164 -0.3001  0.2728  0.0914
36111DOPC   C3B44360   1.156   3.231  11.513  0.1088  0.2017  0.0968
36111DOPC   C4B44361   0.895   3.337  11.873 -0.0340  0.0256  0.2995
36112DOPC   NC344362  25.187   6.195  11.131  0.1538  0.0158 -0.1525
36112DOPC   PO444363  25.566   6.367  11.154  0.0555  0.1380 -0.0789
36112DOPC   GL144364  25.765   6.340  11.547 -0.1762  0.1956 -0.0952
36112DOPC   GL244365  25.645   6.580  11.636  0.2774 -0.2893  0.0008
36112DOPC   C1A44366  25.804   6.182  11.940 -0.1126 -0.1241  0.0170
36112DOPC   D2A44367  25.930   6.071  12.443  0.0084  0.0226  0.1515
36112DOPC   C3A44368  25.981   5.878  12.873 -0.1269  0.1472 -0.1499
36112DOPC   C4A44369  25.989   5.734  13.360  0.1210  0.2935 -0.0636
36112DOPC   C1B44370  25.366   6.556  11.969  0.5236 -0.1273  0.1278
36112DOPC   D2B44371  25.069   6.548  12.284 -0.1555 -0.1231 -0.2110
36112DOPC   C3B44372  25.072   6.412  12.727  0.1389 -0.2603 -0.0303
36112DOPC   C4B44373  25.237   6.558  13.166  0.0537  0.2202 -0.1976
36113DOPC   NC344374   0.725   6.321  10.462 -0.0324  0.2743  0.2374
36113DOPC   PO444375   0.577   6.687  10.419  0.0263  0.1125  0.0639
36113DOPC   GL144376   0.497   6.571  10.770 -0.0464 -0.4105 -0.4561
36113DOPC   GL244377   0.247   6.420  10.742  0.0099 -0.0607  0.1113
36113DOPC   C1A44378   0.608   6.824  11.148 -0.0336  0.0441 -0.0602
36113DOPC   D2A44379   0.924   7.090  11.399 -0.1750 -0.1475 -0.1449
36113DOPC   C3A44380   1.061   7.256  11.818 -0.1342 -0.2679  0.2791
36113DOPC   C4A44381   1.207   7.395  12.206  0.0152 -0.1398  0.1700
36113DOPC   C1B44382  -0.136   6.569  10.792  0.1882  0.0495  0.0727
36113DOPC   D2B44383  -0.618   6.660  10.907  0.0058 -0.0839 -0.1944
36113DOPC   C3B44384  -0.310   6.680  11.238 -0.0123  0.0645  0.0522
36113DOPC   C4B44385  -0.182   6.626  11.696  0.0227  0.0339 -0.2391
36114DOPC   NC344386  22.851   7.481  11.314  0.2147 -0.2314  0.1180
36114DOPC   PO444387  22.654   7.117  11.285  0.1209 -0.0932 -0.1303
36114DOPC   GL144388  22.464   7.190  11.577 -0.1989 -0.0716 -0.0780
36114DOPC   GL244389  22.405   7.426  11.604  0.2366  0.1570 -0.1003
36114DOPC   C1A44390  22.359   6.958  11.990  0.0747  0.2022  0.2047
36114DOPC   D2A44391  22.210   6.857  12.462  0.1090 -0.1595  0.0314
36114DOPC   C3A44392  22.165   6.973  12.975  0.0615 -0.1622  0.1827
36114DOPC   C4A44393  22.315   6.910  13.416 -0.0817 -0.1820 -0.0191
36114DOPC   C1B44394  22.638   7.372  11.983 -0.3477 -0.1488  0.2125
36114DOPC   D2B44395  22.935   7.499  12.351  0.3177  0.1301  0.0244
36114DOPC   C3B44396  22.981   7.493  12.790 -0.0735  0.0282 -0.1928
36114DOPC   C4B44397  22.947   7.703  13.248 -0.0964 -0.1533  0.2257
36115DOPC   NC344398   9.523   3.143  10.806 -0.0922 -0.0614 -0.0164
36115DOPC   PO444399   9.615   2.781  10.980  0.1908  0.1506  0.0493
36115DOPC   GL144400   9.483   2.681  11.247 -0.2944  0.0221 -0.1351
36115DOPC   GL244401   9.361   2.475  11.310 -0.0153  0.0282  0.0123
36115DOPC   C1A44402   9.682   2.566  11.649  0.3296  0.0600 -0.1398
36115DOPC   D2A44403   9.968   2.649  11.973 -0.0562  0.0361  0.0776
36115DOPC   C3A44404   9.979   2.562  12.456  0.0273  0.1000 -0.2950
36115DOPC   C4A44405   9.768   2.279  12.888  0.0442  0.1004 -0.0169
36115DOPC   C1B44406   9.118   2.580  11.639 -0.1921 -0.3332  0.0338
36115DOPC   D2B44407   8.809   2.747  12.054 -0.2204 -0.0466  0.1778
36115DOPC   C3B44408   8.615   3.055  12.398  0.1279  0.2388 -0.3112
36115DOPC   C4B44409   8.416   3.282  12.745  0.1699 -0.0415  0.1438
36116DOPC   NC344410   0.833   7.834  10.578 -0.1804  0.0402  0.1427
36116DOPC   PO444411   1.092   7.728  10.308 -0.1501  0.2003  0.1621
36116DOPC   GL144412   1.356   7.973  10.577  0.0383  0.1198  0.1417
36116DOPC   GL244413   1.174   8.208  10.634 -0.0506  0.0616 -0.0512
36116DOPC   C1A44414   1.578   7.949  10.940  0.1502  0.2408 -0.0182
36116DOPC   D2A44415   1.654   8.046  11.356  0.0770  0.0271 -0.3421
36116DOPC   C3A44416   1.754   7.964  11.764 -0.1296  0.0321 -0.2072
36116DOPC   C4A44417   1.909   8.081  12.264 -0.0348  0.1393 -0.0160
36116DOPC   C1B44418   1.272   8.378  11.027  0.1280  0.1176 -0.1174
36116DOPC   D2B44419   1.341   8.472  11.536 -0.3908 -0.4517 -0.0469
36116DOPC   C3B44420   1.300   8.283  11.975 -0.0211 -0.0986 -0.0171
36116DOPC   C4B44421   1.338   8.117  12.471 -0.0049 -0.1710 -0.1380
36117DOPC   NC344422  27.155   4.844  10.553 -0.1184  0.1411 -0.1988
36117DOPC   PO444423  27.451   4.788  10.842  0.0366  0.1132  0.0404
36117DOPC   GL144424  27.758   5.029  11.077 -0.0231  0.1318  0.1719
36117DOPC   GL244425  27.542   5.257  11.093  0.2195 -0.1047  0.5534
36117DOPC   C1A44426  28.053   4.915  11.386 -0.1583  0.0520  0.2772
36117DOPC   D2A44427  28.369   4.703  11.721 -0.3723 -0.1163  0.0766
36117DOPC   C3A44428  28.275   4.539  12.177  0.0024  0.0197 -0.1082
36117DOPC   C4A44429  28.091   4.568  12.640 -0.0789  0.1554 -0.1114
36117DOPC   C1B44430  27.638   5.238  11.479 -0.4110 -0.2186  0.1040
36117DOPC   D2B44431  27.818   5.133  11.893  0.0642  0.0344  0.1238
36117DOPC   C3B44432  27.989   5.355  12.253 -0.2708 -0.0540 -0.0533
36117DOPC   C4B44433  28.176   5.648  12.606 -0.1457  0.0082  0.3350
36118DOPC   NC344434  24.494   5.252  10.917  0.0191  0.0817 -0.1616
36118DOPC   PO444435  24.785   5.124  11.114 -0.1950  0.3426  0.0018
36118DOPC   GL144436  24.852   5.273  11.500 -0.0729 -0.0804  0.0826
36118DOPC   GL244437  25.089   5.158  11.571  0.0239  0.1273 -0.1913
36118DOPC   C1A44438  24.583   5.402  11.828  0.2219  0.0418 -0.0352
36118DOPC   D2A44439  24.407   5.533  12.260 -0.1696 -0.1470  0.1712
36118DOPC   C3A44440  24.202   5.700  12.678  0.1062 -0.0578  0.0837
36118DOPC   C4A44441  24.156   6.048  13.013  0.2487  0.1058 -0.3422
36118DOPC   C1B44442  24.864   4.897  11.802  0.0898  0.0737 -0.1266
36118DOPC   D2B44443  24.486   4.568  11.940 -0.0488  0.0780  0.2042
36118DOPC   C3B44444  24.613   4.323  12.310 -0.0327 -0.0530  0.1634
36118DOPC   C4B44445  24.758   4.056  12.699 -0.0365 -0.1154  0.1715
36119DOPC   NC344446  29.059   0.810  10.772 -0.4680  0.2863 -0.3101
36119DOPC   PO444447  28.761   0.949  10.568 -0.1070 -0.3409 -0.2290
36119DOPC   GL144448  28.527   1.065  10.851  0.0292 -0.1673  0.0492
36119DOPC   GL244449  28.337   0.932  10.933  0.2148  0.0485 -0.1207
36119DOPC   C1A44450  28.784   1.067  11.201 -0.1389 -0.0339 -0.2085
36119DOPC   D2A44451  28.844   1.169  11.711  0.0484  0.2398 -0.0486
36119DOPC   C3A44452  29.047   1.032  12.105  0.0268  0.2019 -0.0938
36119DOPC   C4A44453  29.106   1.096  12.590 -0.4493 -0.0398 -0.0614
36119DOPC   C1B44454  28.391   0.793  11.389 -0.0114  0.3208 -0.1260
36119DOPC   D2B44455  28.439   0.736  11.908  0.3164  0.1284 -0.3013
36119DOPC   C3B44456  28.573   1.096  12.152  0.1727 -0.1659  0.0496
36119DOPC   C4B44457  28.818   1.455  12.405 -0.2868  0.0569  0.0394
36120DOPC   NC344458   6.237   0.159  10.369  0.0833  0.1117  0.2288
36120DOPC   PO444459   6.098  -0.088  10.632  0.2685  0.2863  0.3655
36120DOPC   GL144460   6.138   0.073  11.023  0.1343 -0.0732  0.1062
36120DOPC   GL244461   6.311  -0.188  11.090  0.1572 -0.1717 -0.0023
36120DOPC   C1A44462   6.002   0.438  11.245 -0.0101  0.1417  0.0697
36120DOPC   D2A44463   5.670   0.592  11.572 -0.0940 -0.1386 -0.1197
36120DOPC   C3A44464   5.610   0.454  11.984 -0.1070  0.1652 -0.0524
36120DOPC   C4A44465   5.325   0.341  12.366  0.2486  0.1036 -0.1017
36120DOPC   C1B44466   6.544  -0.354  11.464 -0.1154  0.1072 -0.3110
36120DOPC   D2B44467   6.662  -0.558  11.877  0.1595 -0.1104 -0.2170
36120DOPC   C3B44468   6.304  -0.910  11.913  0.1147 -0.0332  0.2941
36120DOPC   C4B44469   6.016  -1.202  12.100  0.1643 -0.0568  0.2839
36121DOPC   NC344470  12.109   4.704  10.912 -0.2223  0.0094 -0.1789
36121DOPC   PO444471  12.208   4.583  11.266  0.2940 -0.1172 -0.3026
36121DOPC   GL144472  12.339   4.905  11.657  0.0945 -0.1441 -0.0362
36121DOPC   GL244473  12.295   4.633  11.773  0.1790  0.2490  0.2950
36121DOPC   C1A44474  12.370   5.080  12.039 -0.0556  0.0283 -0.1526
36121DOPC   D2A44475  12.249   5.085  12.506  0.0477 -0.0622 -0.1340
36121DOPC   C3A44476  11.827   4.998  12.653 -0.2035 -0.2602  0.0904
36121DOPC   C4A44477  11.600   4.939  13.075 -0.0019  0.3240 -0.0060
36121DOPC   C1B44478  12.689   4.434  11.858  0.1142 -0.0216  0.1900
36121DOPC   D2B44479  12.960   4.221  12.221  0.0880  0.1315  0.2004
36121DOPC   C3B44480  12.728   4.233  12.656 -0.0311 -0.1689 -0.3446
36121DOPC   C4B44481  12.502   4.238  13.070 -0.0102 -0.1307  0.0565
36122DOPC   NC344482   8.603   5.822  11.407  0.0212  0.0425 -0.2649
36122DOPC   PO444483   8.983   5.627  11.303  0.0826  0.2710 -0.2732
36122DOPC   GL144484   9.217   5.569  11.634  0.0805 -0.0821  0.0779
36122DOPC   GL244485   8.898   5.496  11.793 -0.3332 -0.1059 -0.2431
36122DOPC   C1A44486   9.473   5.392  11.928 -0.1092 -0.1560  0.1955
36122DOPC   D2A44487   9.483   5.265  12.427  0.1946 -0.0126  0.2012
36122DOPC   C3A44488   9.655   4.856  12.618 -0.0596  0.2158  0.2184
36122DOPC   C4A44489   9.811   4.425  12.856  0.3517 -0.0723 -0.1080
36122DOPC   C1B44490   8.892   5.320  12.196  0.0520 -0.1701  0.0453
36122DOPC   D2B44491   9.024   5.191  12.618  0.0462  0.1355 -0.0641
36122DOPC   C3B44492   8.757   4.929  12.967 -0.0203 -0.0078 -0.2634
36122DOPC   C4B44493   8.594   4.700  13.292  0.3683  0.0039 -0.0592
36123DOPC   NC344494  27.850   5.567  11.126  0.2273 -0.0543  0.0198
36123DOPC   PO444495  27.748   5.937  11.044 -0.0104  0.0216  0.0622
36123DOPC   GL144496  27.675   6.092  11.520 -0.1727  0.0784  0.0960
36123DOPC   GL244497  27.740   6.338  11.321 -0.0835 -0.0615 -0.2810
36123DOPC   C1A44498  27.934   6.135  11.879 -0.0938  0.0834  0.1275
36123DOPC   D2A44499  28.236   5.779  12.029  0.0708  0.0730  0.0999
36123DOPC   C3A44500  28.662   5.601  11.891 -0.2821 -0.1208 -0.2597
36123DOPC   C4A44501  28.934   5.489  11.574  0.3535  0.2044 -0.1526
36123DOPC   C1B44502  27.811   6.593  11.617  0.1199 -0.0603 -0.1293
36123DOPC   D2B44503  27.593   6.959  11.762  0.0360  0.1305 -0.4097
36123DOPC   C3B44504  27.504   7.149  12.206 -0.0453 -0.1642 -0.0490
36123DOPC   C4B44505  27.576   6.947  12.682  0.2446  0.2333 -0.3990
36124DOPC   NC344506  31.318   5.607  10.396  0.0572  0.1542 -0.1107
36124DOPC   PO444507  31.350   5.992  10.302  0.0686  0.2934 -0.0195
36124DOPC   GL144508  31.366   6.075  10.759  0.0177 -0.5317  0.1684
36124DOPC   GL244509  31.448   5.811  10.794 -0.0562  0.0219  0.0218
36124DOPC   C1A44510  31.054   6.201  11.111  0.0026  0.3854  0.0794
36124DOPC   D2A44511  30.980   6.211  11.575  0.1645 -0.1080 -0.2320
36124DOPC   C3A44512  31.099   6.268  12.005  0.1127  0.1502 -0.2774
36124DOPC   C4A44513  31.322   6.216  12.447 -0.2341  0.1319 -0.0045
36124DOPC   C1B44514  31.577   5.857  11.163 -0.2630  0.1492  0.2466
36124DOPC   D2B44515  31.500   5.559  11.532 -0.2524 -0.0988 -0.3041
36124DOPC   C3B44516  31.767   5.642  11.879 -0.0500 -0.1341 -0.1553
36124DOPC   C4B44517  32.026   5.496  12.261 -0.1513  0.2906  0.0938
36125DOPC   NC344518  21.803   6.119  10.983  0.3471  0.0102  0.0311
36125DOPC   PO444519  21.968   5.834  11.236 -0.2527  0.1347  0.0565
36125DOPC   GL144520  21.936   5.787  11.667 -0.0417 -0.0516  0.0114
36125DOPC   GL244521  21.954   6.085  11.746 -0.4364  0.0756  0.4756
36125DOPC   C1A44522  21.774   5.581  12.004  0.0117 -0.2304  0.2275
36125DOPC   D2A44523  21.319   5.427  12.165  0.1280  0.4669 -0.1937
36125DOPC   C3A44524  21.292   5.005  12.390  0.2081 -0.0719 -0.1527
36125DOPC   C4A44525  21.325   4.505  12.565  0.0353  0.0268 -0.0046
36125DOPC   C1B44526  22.136   5.863  12.084 -0.4757 -0.3146 -0.2510
36125DOPC   D2B44527  21.997   5.723  12.552 -0.1858  0.2825  0.1753
36125DOPC   C3B44528  22.051   5.696  12.955 -0.0739  0.0124 -0.3276
36125DOPC   C4B44529  22.181   5.908  13.372  0.3113 -0.0824  0.0580
36126DOPC   NC344530   7.841   1.247  10.948 -0.0509 -0.0976 -0.2177
36126DOPC   PO444531   7.507   1.101  11.102 -0.1058  0.0130 -0.1368
36126DOPC   GL144532   7.467   1.187  11.495 -0.0729 -0.2562 -0.4522
36126DOPC   GL244533   7.332   1.410  11.392 -0.0067 -0.1145  0.1273
36126DOPC   C1A44534   7.770   1.234  11.786 -0.2332 -0.0227 -0.0108
36126DOPC   D2A44535   7.966   1.093  12.155 -0.0863 -0.1413  0.2178
36126DOPC   C3A44536   8.368   0.984  12.317 -0.2439 -0.0650  0.2839
36126DOPC   C4A44537   8.814   0.809  12.439  0.2380 -0.1674 -0.2295
36126DOPC   C1B44538   6.995   1.548  11.565 -0.1453 -0.0817  0.1310
36126DOPC   D2B44539   6.711   1.388  11.928 -0.2330  0.2014  0.0021
36126DOPC   C3B44540   6.883   1.224  12.338  0.0765  0.1045  0.0450
36126DOPC   C4B44541   6.632   1.076  12.710 -0.0425  0.2850 -0.1679
36127DOPC   NC344542   5.985   5.405  10.636  0.0030  0.0526 -0.1528
36127DOPC   PO444543   5.743   5.187  10.890  0.1588  0.2466  0.4486
36127DOPC   GL144544   5.505   5.269  11.222 -0.2588 -0.0814 -0.2863
36127DOPC   GL244545   5.582   4.977  11.303 -0.0608 -0.0830 -0.0341
36127DOPC   C1A44546   5.095   5.203  11.331 -0.0309  0.0339  0.0243
36127DOPC   D2A44547   4.721   5.229  11.627  0.2629  0.1780  0.0245
36127DOPC   C3A44548   5.128   5.225  11.849 -0.1490  0.2747  0.1677
36127DOPC   C4A44549   5.358   5.027  12.196 -0.2723  0.1664  0.0584
36127DOPC   C1B44550   5.562   4.800  11.721  0.1529  0.0064 -0.0569
36127DOPC   D2B44551   5.411   4.556  12.080  0.4008  0.0449  0.1961
36127DOPC   C3B44552   5.154   4.589  12.481  0.0581 -0.2318 -0.2356
36127DOPC   C4B44553   5.047   4.771  12.919  0.0036  0.0711  0.0028
36128DOPC   NC344554  26.823   2.130  10.622 -0.1377 -0.3475  0.0069
36128DOPC   PO444555  26.780   2.458  10.903  0.3623 -0.0239  0.2403
36128DOPC   GL144556  26.951   2.537  11.204 -0.3568  0.0578 -0.1439
36128DOPC   GL244557  26.844   2.873  11.222  0.5488 -0.0875  0.4729
36128DOPC   C1A44558  27.201   2.372  11.525  0.4548 -0.0007 -0.0042
36128DOPC   D2A44559  27.217   2.194  12.005 -0.0601  0.2527  0.0951
36128DOPC   C3A44560  27.417   2.095  12.359 -0.0443 -0.1067  0.3035
36128DOPC   C4A44561  27.761   2.121  12.668 -0.0319  0.1512 -0.0054
36128DOPC   C1B44562  26.593   3.033  11.520 -0.1444  0.2292  0.0310
36128DOPC   D2B44563  26.351   3.274  11.851  0.0547 -0.0153 -0.0280
36128DOPC   C3B44564  26.466   3.245  12.325 -0.4107  0.0980 -0.0676
36128DOPC   C4B44565  26.672   3.287  12.778  0.5676  0.2748 -0.1662
36129DOPC   NC344566   1.913   2.582   9.700 -0.0058  0.0707  0.0119
36129DOPC   PO444567   1.664   2.450   9.986  0.0528  0.1067  0.0417
36129DOPC   GL144568   1.775   2.410  10.452 -0.2364 -0.5521  0.1832
36129DOPC   GL244569   1.566   2.657  10.505  0.0056  0.1236  0.0930
36129DOPC   C1A44570   1.721   2.147  10.759 -0.0454 -0.1595 -0.2242
36129DOPC   D2A44571   1.583   1.811  11.042 -0.0918 -0.1480  0.1184
36129DOPC   C3A44572   1.382   1.684  11.417 -0.0580  0.3094  0.0410
36129DOPC   C4A44573   1.067   1.677  11.826 -0.2111 -0.1423  0.0087
36129DOPC   C1B44574   1.550   2.703  10.942  0.1969  0.6184 -0.3045
36129DOPC   D2B44575   1.362   2.689  11.428  0.0714 -0.2447 -0.1133
36129DOPC   C3B44576   1.645   2.452  11.704 -0.2055 -0.0124 -0.0161
36129DOPC   C4B44577   1.692   2.263  12.145 -0.1119  0.0112 -0.0881
36130DOPC   NC344578  21.686   3.516  10.838  0.1239  0.0781  0.5426
36130DOPC   PO444579  22.008   3.502  11.078 -0.1500  0.3247  0.1459
36130DOPC   GL144580  22.208   3.754  11.369 -0.0021  0.4099  0.2717
36130DOPC   GL244581  22.493   3.628  11.290 -0.1491  0.1666 -0.1504
36130DOPC   C1A44582  22.284   4.007  11.735 -0.0063 -0.0060 -0.0844
36130DOPC   D2A44583  22.490   4.387  12.004 -0.2500 -0.0901  0.0621
36130DOPC   C3A44584  22.634   4.589  12.415 -0.2734  0.0667  0.2487
36130DOPC   C4A44585  22.684   4.943  12.773 -0.1460  0.2836  0.0176
36130DOPC   C1B44586  22.484   3.495  11.713  0.1600  0.0293 -0.0721
36130DOPC   D2B44587  22.472   3.466  12.221 -0.0514  0.0140 -0.2724
36130DOPC   C3B44588  22.188   3.155  12.453 -0.0333  0.0521  0.1457
36130DOPC   C4B44589  21.848   2.691  12.563  0.1852  0.0508 -0.2102
36131DOPC   NC344590  10.438   1.419  11.583  0.0243 -0.0093 -0.4460
36131DOPC   PO444591  10.749   1.460  11.323  0.0293 -0.0512 -0.1785
36131DOPC   GL144592  11.002   1.512  11.619 -0.2171  0.0306  0.1726
36131DOPC   GL244593  10.800   1.583  11.774  0.0937 -0.2174  0.0055
36131DOPC   C1A44594  11.109   1.492  12.113  0.0897 -0.1974  0.0912
36131DOPC   D2A44595  10.878   1.562  12.512  0.0367 -0.2696 -0.1496
36131DOPC   C3A44596  10.411   1.728  12.485  0.1112 -0.0448  0.1135
36131DOPC   C4A44597   9.964   1.825  12.336  0.0848  0.1414 -0.0922
36131DOPC   C1B44598  10.745   1.871  12.147 -0.3785  0.0898  0.1193
36131DOPC   D2B44599  10.793   2.138  12.540  0.1569 -0.4302 -0.0245
36131DOPC   C3B44600  10.920   2.301  12.962  0.1080 -0.1054 -0.0976
36131DOPC   C4B44601  10.888   2.578  13.381 -0.1699  0.0449 -0.0280
36132DOPC   NC344602  16.444   4.713  11.406 -0.1539 -0.3833  0.0526
36132DOPC   PO444603  16.250   5.040  11.496 -0.0271 -0.0044  0.2409
36132DOPC   GL144604  16.313   5.287  11.839 -0.2315  0.7126  0.1830
36132DOPC   GL244605  16.576   5.119  11.907 -0.0409  0.1361  0.3279
36132DOPC   C1A44606  16.074   5.174  12.205 -0.1194 -0.1417 -0.0431
36132DOPC   D2A44607  15.843   5.011  12.627  0.1245  0.2547 -0.6158
36132DOPC   C3A44608  15.927   4.653  12.982 -0.0322  0.2515  0.0323
36132DOPC   C4A44609  16.267   4.270  13.152 -0.1552  0.0319  0.0570
36132DOPC   C1B44610  16.401   4.853  12.303 -0.2813 -0.0829 -0.1655
36132DOPC   D2B44611  16.287   4.905  12.765 -0.2109  0.2299  0.0217
36132DOPC   C3B44612  16.560   4.687  13.057 -0.2414 -0.0277 -0.0662
36132DOPC   C4B44613  16.763   4.309  13.349 -0.2245 -0.4042 -0.1138
36133DOPC   NC344614  20.619   0.375  11.436  0.3289  0.0551  0.2934
36133DOPC   PO444615  20.976   0.527  11.344  0.0972 -0.2822 -0.1673
36133DOPC   GL144616  21.267   0.628  11.698 -0.0920  0.0638 -0.1505
36133DOPC   GL244617  21.340   0.889  11.551 -0.0156  0.1930  0.0101
36133DOPC   C1A44618  21.335   0.572  12.146 -0.3291 -0.1183  0.0023
36133DOPC   D2A44619  21.434   0.601  12.626 -0.1835 -0.0274 -0.0216
36133DOPC   C3A44620  21.282   0.932  12.896 -0.2752  0.0808  0.0376
36133DOPC   C4A44621  21.039   1.119  13.297  0.1823 -0.0962 -0.0277
36133DOPC   C1B44622  21.366   1.163  11.873  0.0361 -0.0378 -0.2213
36133DOPC   D2B44623  21.558   1.564  12.109  0.0681 -0.4523 -0.0395
36133DOPC   C3B44624  21.295   1.959  12.002 -0.1110  0.0282 -0.2386
36133DOPC   C4B44625  21.042   2.284  12.221  0.0785 -0.2203 -0.3554
36134DOPC   NC344626  20.527   2.741  11.492  0.2750  0.1032 -0.1204
36134DOPC   PO444627  20.265   2.445  11.584  0.1300 -0.0167  0.1674
36134DOPC   GL144628  20.378   2.456  11.967  0.4777  0.0812  0.2593
36134DOPC   GL244629  20.011   2.435  11.987 -0.1827  0.0831  0.1918
36134DOPC   C1A44630  20.584   2.076  12.037 -0.1011  0.2042 -0.0723
36134DOPC   D2A44631  20.712   1.944  12.460  0.0221 -0.0936  0.2099
36134DOPC   C3A44632  21.110   1.847  12.520 -0.2336 -0.1580  0.1893
36134DOPC   C4A44633  21.591   1.839  12.578 -0.0612  0.1160  0.2497
36134DOPC   C1B44634  19.815   2.393  12.338 -0.3414 -0.2185  0.2958
36134DOPC   D2B44635  19.880   2.202  12.892 -0.1314  0.0054 -0.2449
36134DOPC   C3B44636  19.868   2.217  13.406  0.0745 -0.0315  0.1778
36134DOPC   C4B44637  20.174   2.406  13.783 -0.4545  0.0405  0.0830
36135DOPC   NC344638  29.272   5.057  10.639 -0.1472 -0.1879  0.1022
36135DOPC   PO444639  29.280   5.416  10.478 -0.2538 -0.2319 -0.3362
36135DOPC   GL144640  29.534   5.687  10.841  0.1720  0.1039  0.1906
36135DOPC   GL244641  29.279   5.525  10.979 -0.0559  0.3002 -0.2145
36135DOPC   C1A44642  29.812   5.539  11.167  0.0439  0.2475 -0.0952
36135DOPC   D2A44643  30.166   5.475  11.496  0.1000  0.0103  0.0453
36135DOPC   C3A44644  30.199   5.699  11.876  0.1213 -0.0538 -0.0444
36135DOPC   C4A44645  30.122   6.111  12.186 -0.0700 -0.0062 -0.2213
36135DOPC   C1B44646  29.370   5.166  11.276  0.1260  0.0575  0.2467
36135DOPC   D2B44647  29.443   4.717  11.460  0.3402  0.0856 -0.3486
36135DOPC   C3B44648  29.434   5.072  11.806 -0.0911 -0.0489  0.0766
36135DOPC   C4B44649  29.534   5.325  12.211  0.3664 -0.3558 -0.0488
36136DOPC   NC344650   3.758   7.198  10.204 -0.0062 -0.1952 -0.0916
36136DOPC   PO444651   3.840   6.964  10.458  0.0965  0.0133  0.1189
36136DOPC   GL144652   3.926   6.989  10.971 -0.2398 -0.1828 -0.0975
36136DOPC   GL244653   3.698   6.902  10.965  0.0658 -0.0515  0.1872
36136DOPC   C1A44654   4.023   6.664  11.353  0.2338 -0.0177 -0.1392
36136DOPC   D2A44655   4.111   6.270  11.567 -0.1547  0.4011 -0.0530
36136DOPC   C3A44656   4.208   5.943  11.931  0.0403  0.0281 -0.1096
36136DOPC   C4A44657   4.393   5.867  12.386 -0.1266 -0.0956  0.1555
36136DOPC   C1B44658   3.401   6.975  11.334 -0.1140  0.2531 -0.0440
36136DOPC   D2B44659   3.236   7.044  11.843  0.0598 -0.3477 -0.1004
36136DOPC   C3B44660   3.202   7.006  12.339 -0.3005  0.2390 -0.1307
36136DOPC   C4B44661   2.871   7.054  12.627 -0.0153  0.1640 -0.1651
36137DOPC   NC344662   5.186   6.794  10.300  0.2124  0.3273 -0.0689
36137DOPC   PO444663   5.285   7.158  10.447  0.1624 -0.2178 -0.2342
36137DOPC   GL144664   5.134   7.322  10.825 -0.0798 -0.0001  0.0755
36137DOPC   GL244665   5.163   7.044  10.923  0.2244 -0.1277  0.0888
36137DOPC   C1A44666   5.093   7.466  11.207 -0.0283 -0.1730 -0.0001
36137DOPC   D2A44667   5.063   7.508  11.694  0.0697 -0.0753 -0.0203
36137DOPC   C3A44668   4.750   7.722  11.932  0.1982 -0.3184  0.1778
36137DOPC   C4A44669   4.443   7.542  12.268  0.0781 -0.1056 -0.0811
36137DOPC   C1B44670   4.844   6.950  11.198 -0.2601 -0.1350  0.0998
36137DOPC   D2B44671   4.752   7.029  11.680  0.0657  0.3844  0.2422
36137DOPC   C3B44672   4.983   7.110  12.025  0.2874  0.2486 -0.0404
36137DOPC   C4B44673   5.280   7.298  12.419 -0.0034  0.1438 -0.0055
36138DOPC   NC344674  10.084   6.429  11.302  0.0258 -0.0553  0.1744
36138DOPC   PO444675  10.159   6.753  11.462 -0.0420 -0.3416  0.0756
36138DOPC   GL144676  10.117   6.772  11.907  0.1656  0.4588  0.3797
36138DOPC   GL244677  10.353   6.720  11.891 -0.2541 -0.0530  0.0442
36138DOPC   C1A44678  10.020   6.951  12.282  0.4068 -0.1168 -0.0823
36138DOPC   D2A44679   9.673   7.071  12.689  0.1783  0.0298  0.0001
36138DOPC   C3A44680   9.530   6.670  12.640 -0.0354 -0.1454 -0.0416
36138DOPC   C4A44681   9.497   6.222  12.819 -0.0223  0.1316 -0.0593
36138DOPC   C1B44682  10.503   6.423  12.159 -0.0548  0.0158  0.1417
36138DOPC   D2B44683  10.650   6.103  12.527 -0.2570 -0.0303 -0.2437
36138DOPC   C3B44684  10.850   5.990  12.154 -0.6109 -0.0108  0.1580
36138DOPC   C4B44685  11.008   6.210  11.759 -0.4381 -0.1586 -0.3367
36139DOPC   NC344686  23.564   2.766  10.571  0.1855  0.0429 -0.0612
36139DOPC   PO444687  23.346   2.640  10.863  0.1722 -0.1901 -0.2559
36139DOPC   GL144688  23.262   2.339  11.208  0.0573 -0.0591 -0.1250
36139DOPC   GL244689  23.005   2.396  11.163 -0.2387 -0.0305  0.2032
36139DOPC   C1A44690  23.224   2.139  11.529  0.4500 -0.2903  0.3256
36139DOPC   D2A44691  23.004   1.974  11.946 -0.0686 -0.3718 -0.0183
36139DOPC   C3A44692  22.926   1.928  12.397 -0.0926  0.1122  0.0176
36139DOPC   C4A44693  22.724   1.933  12.853 -0.0189 -0.1391 -0.0746
36139DOPC   C1B44694  23.025   2.620  11.538 -0.0838  0.1095 -0.1532
36139DOPC   D2B44695  23.221   2.773  11.971 -0.1296  0.1448 -0.0636
36139DOPC   C3B44696  23.125   2.851  12.431 -0.0272 -0.0009 -0.6060
36139DOPC   C4B44697  23.013   2.945  12.912 -0.0279 -0.2442  0.2737
36140DOPC   NC344698  15.133   5.589  11.350 -0.0861 -0.3456  0.0168
36140DOPC   PO444699  15.484   5.615  11.276 -0.0273 -0.1463  0.0706
36140DOPC   GL144700  15.611   5.749  11.621 -0.1946  0.0963 -0.1277
36140DOPC   GL244701  15.531   5.482  11.699 -0.4242  0.0834 -0.0637
36140DOPC   C1A44702  15.857   5.777  11.973  0.1362  0.1219 -0.1426
36140DOPC   D2A44703  15.991   5.634  12.409  0.3059  0.0642 -0.1641
36140DOPC   C3A44704  16.193   5.476  12.728 -0.1422  0.1471 -0.1134
36140DOPC   C4A44705  16.301   5.665  13.141  0.0994  0.0796  0.4155
36140DOPC   C1B44706  15.644   5.315  12.103  0.0721  0.0720  0.1012
36140DOPC   D2B44707  15.394   5.063  12.458  0.1858  0.0978 -0.0696
36140DOPC   C3B44708  15.480   4.942  12.940  0.0746  0.0550  0.0804
36140DOPC   C4B44709  15.744   4.903  13.435 -0.0807 -0.2550  0.3045
36141DOPC   NC344710   9.656   4.631  11.268  0.0327  0.1714 -0.0286
36141DOPC   PO444711  10.051   4.608  11.429  0.0621 -0.0601  0.4369
36141DOPC   GL144712  10.101   4.772  11.766 -0.1029 -0.1214 -0.1798
36141DOPC   GL244713  10.195   4.592  11.924 -0.0230 -0.3938  0.0246
36141DOPC   C1A44714   9.796   4.955  12.044 -0.0937  0.1168  0.2827
36141DOPC   D2A44715   9.327   4.876  12.205  0.1214  0.3610  0.1806
36141DOPC   C3A44716   9.127   4.645  12.532 -0.2423  0.2404 -0.2005
36141DOPC   C4A44717   9.156   4.482  13.003 -0.1985 -0.0833  0.1200
36141DOPC   C1B44718  10.024   4.579  12.326 -0.0193 -0.0059  0.2213
36141DOPC   D2B44719  10.310   4.603  12.742 -0.0692 -0.1669 -0.2305
36141DOPC   C3B44720  10.562   4.995  12.833  0.3568 -0.0141 -0.3876
36141DOPC   C4B44721  10.681   5.216  13.293  0.0472  0.0474  0.3811
36142DOPC   NC344722  25.442   3.605  11.416 -0.1227  0.3591  0.1629
36142DOPC   PO444723  25.609   3.965  11.361 -0.1480 -0.2071  0.1298
36142DOPC   GL144724  25.515   4.271  11.537 -0.0909  0.0660  0.1281
36142DOPC   GL244725  25.753   4.333  11.609 -0.3073  0.0908  0.1526
36142DOPC   C1A44726  25.371   4.383  11.974 -0.0200 -0.0266 -0.3789
36142DOPC   D2A44727  25.116   4.363  12.478 -0.0024 -0.0336 -0.0801
36142DOPC   C3A44728  25.073   4.400  12.983 -0.2720 -0.1219  0.0943
36142DOPC   C4A44729  25.168   4.603  13.420 -0.0633  0.3456 -0.1324
36142DOPC   C1B44730  26.066   4.350  11.878  0.0571  0.1899  0.0576
36142DOPC   D2B44731  26.432   4.260  12.179  0.1376 -0.0617 -0.0015
36142DOPC   C3B44732  26.199   4.489  12.539  0.1661  0.0209 -0.3347
36142DOPC   C4B44733  25.838   4.360  12.834 -0.3103 -0.0140  0.2145
36143DOPC   NC344734   7.737   2.843  10.652 -0.1272 -0.3446 -0.1037
36143DOPC   PO444735   7.735   2.503  10.844 -0.0063  0.2776  0.2513
36143DOPC   GL144736   7.839   2.562  11.176  0.1474  0.2909 -0.0127
36143DOPC   GL244737   7.938   2.766  11.175 -0.0097  0.0260  0.0073
36143DOPC   C1A44738   7.956   2.243  11.557  0.1068  0.0321  0.0271
36143DOPC   D2A44739   8.004   1.923  11.926 -0.1353 -0.0499  0.0892
36143DOPC   C3A44740   8.254   2.065  12.303 -0.1429  0.0619  0.1591
36143DOPC   C4A44741   8.415   2.299  12.722 -0.1401 -0.1852 -0.0945
36143DOPC   C1B44742   8.314   2.608  11.268  0.0061  0.4245  0.1151
36143DOPC   D2B44743   8.500   2.359  11.633  0.2672 -0.1454  0.0150
36143DOPC   C3B44744   8.455   2.425  12.043 -0.0200 -0.1043 -0.1766
36143DOPC   C4B44745   8.264   2.681  12.367 -0.1851  0.2704 -0.1648
36144DOPC   NC344746  26.468   7.766  10.783 -0.2890 -0.2514 -0.2597
36144DOPC   PO444747  26.071   7.867  10.912  0.0556 -0.2957  0.1106
36144DOPC   GL144748  26.133   7.745  11.310  0.2782  0.4953 -0.0213
36144DOPC   GL244749  26.099   7.948  11.475  0.0085 -0.0748 -0.2333
36144DOPC   C1A44750  26.550   7.799  11.442  0.0230  0.1692  0.1277
36144DOPC   D2A44751  27.050   7.869  11.513  0.0638  0.3314 -0.1085
36144DOPC   C3A44752  27.450   8.039  11.636  0.2318  0.2123 -0.0761
36144DOPC   C4A44753  27.879   7.876  11.881 -0.1230  0.0880  0.0810
36144DOPC   C1B44754  26.206   7.847  11.927 -0.1507 -0.1069  0.2795
36144DOPC   D2B44755  26.366   7.537  12.271  0.1079  0.1330 -0.0991
36144DOPC   C3B44756  26.365   7.443  12.763  0.0403 -0.3110 -0.0165
36144DOPC   C4B44757  26.240   7.240  13.191  0.1464 -0.1903  0.0582
36145DOPC   NC344758  24.946   1.533  11.592  0.1458  0.0136  0.2330
36145DOPC   PO444759  24.874   1.226  11.314 -0.1777 -0.2198  0.0816
36145DOPC   GL144760  24.694   0.952  11.606 -0.3165  0.0728 -0.0354
36145DOPC   GL244761  24.532   1.257  11.676  0.3630  0.1596 -0.0132
36145DOPC   C1A44762  24.995   0.773  11.859  0.2147  0.0365 -0.1638
36145DOPC   D2A44763  25.099   0.575  12.326  0.2546 -0.2620 -0.2077
36145DOPC   C3A44764  24.788   0.341  12.623 -0.2299 -0.0090 -0.0879
36145DOPC   C4A44765  24.569   0.330  13.034  0.0877  0.0732 -0.0601
36145DOPC   C1B44766  24.711   1.470  12.033 -0.1393  0.0561  0.5722
36145DOPC   D2B44767  24.717   1.705  12.520 -0.1830 -0.1446  0.2158
36145DOPC   C3B44768  24.935   1.599  12.916  0.0283  0.2069  0.0604
36145DOPC   C4B44769  25.284   1.581  13.282  0.0336 -0.1453 -0.3853
36146DOPC   NC344770  22.557   4.448  11.239 -0.1850  0.2999  0.1406
36146DOPC   PO444771  22.707   4.082  11.132  0.1243 -0.2870  0.0844
36146DOPC   GL144772  22.868   3.887  11.505 -0.3337  0.1519 -0.2996
36146DOPC   GL244773  22.747   4.052  11.683  0.0862  0.2275 -0.0988
36146DOPC   C1A44774  22.985   3.523  11.757  0.0810 -0.2214 -0.0099
36146DOPC   D2A44775  22.945   3.241  12.144  0.0258  0.1905  0.2744
36146DOPC   C3A44776  22.817   3.290  12.619  0.1999  0.0939 -0.1955
36146DOPC   C4A44777  22.517   3.359  13.035 -0.1502 -0.0003  0.1032
36146DOPC   C1B44778  22.718   3.883  12.057  0.2060 -0.3590 -0.1916
36146DOPC   D2B44779  22.600   4.116  12.467  0.1816  0.0620  0.1934
36146DOPC   C3B44780  22.403   4.366  12.791  0.0354  0.2343  0.0471
36146DOPC   C4B44781  22.437   4.705  13.123  0.1900  0.0427 -0.1185
36147DOPC   NC344782  31.305   7.687  10.926  0.0972 -0.1944  0.0921
36147DOPC   PO444783  31.192   7.401  10.677 -0.2081 -0.1047  0.0986
36147DOPC   GL144784  31.200   7.117  11.003 -0.0438  0.1173  0.2166
36147DOPC   GL244785  30.898   7.156  11.056  0.1589  0.5829 -0.1461
36147DOPC   C1A44786  31.264   7.337  11.387 -0.2699 -0.1371  0.0353
36147DOPC   D2A44787  31.173   7.610  11.778  0.2542 -0.1010 -0.6960
36147DOPC   C3A44788  31.351   7.862  12.151  0.0861  0.5913  0.1399
36147DOPC   C4A44789  31.128   7.884  12.571  0.0896 -0.3504 -0.0163
36147DOPC   C1B44790  30.891   7.011  11.438  0.1998 -0.0205 -0.0747
36147DOPC   D2B44791  30.880   6.955  11.920 -0.3311  0.3534 -0.0554
36147DOPC   C3B44792  31.273   6.862  12.156  0.0569 -0.2403 -0.3517
36147DOPC   C4B44793  31.605   6.549  12.081  0.0170 -0.1934 -0.2131
36148DOPC   NC344794  23.571   7.027  11.095 -0.1295 -0.0355 -0.1178
36148DOPC   PO444795  23.952   7.125  11.109 -0.0876 -0.0985  0.0991
36148DOPC   GL144796  24.114   7.195  11.462 -0.1504  0.0369 -0.2430
36148DOPC   GL244797  23.999   7.480  11.590  0.3274  0.0407  0.3886
36148DOPC   C1A44798  24.015   7.046  11.828 -0.0026  0.0182 -0.1235
36148DOPC   D2A44799  23.728   7.007  12.266  0.0318 -0.0592 -0.2008
36148DOPC   C3A44800  23.573   7.277  12.658  0.0161  0.2412  0.1335
36148DOPC   C4A44801  23.438   7.537  13.051 -0.2191 -0.0430 -0.0200
36148DOPC   C1B44802  23.574   7.396  11.761  0.2157 -0.2524  0.1136
36148DOPC   D2B44803  23.250   7.269  12.038 -0.2555  0.0529  0.0251
36148DOPC   C3B44804  23.147   7.082  12.496 -0.0512  0.1267  0.0879
36148DOPC   C4B44805  22.952   6.798  12.885 -0.0983 -0.2295 -0.0527
36149DOPC   NC344806  22.704   0.812  10.767  0.1275  0.1238  0.1561
36149DOPC   PO444807  23.118   0.843  10.808  0.1236  0.0099  0.1192
36149DOPC   GL144808  23.424   0.921  11.157  0.5143 -0.1576 -0.0034
36149DOPC   GL244809  23.263   1.155  11.218 -0.1443  0.1274  0.3514
36149DOPC   C1A44810  23.611   0.760  11.495  0.0859 -0.0286 -0.0799
36149DOPC   D2A44811  23.626   0.910  11.945  0.1137  0.1820  0.1512
36149DOPC   C3A44812  23.308   1.036  12.145 -0.1729 -0.0781 -0.2222
36149DOPC   C4A44813  22.894   1.072  12.461 -0.0304  0.0480 -0.0203
36149DOPC   C1B44814  23.113   0.953  11.534 -0.3466 -0.2782  0.1186
36149DOPC   D2B44815  23.163   0.614  11.940  0.2553 -0.0299 -0.1938
36149DOPC   C3B44816  23.106   0.618  12.397  0.1221 -0.2224 -0.1509
36149DOPC   C4B44817  23.130   0.579  12.886 -0.1519 -0.2764 -0.1560
36150DOPC   NC344818  13.717   6.808  11.082 -0.0200  0.1566 -0.3803
36150DOPC   PO444819  13.891   7.106  11.236 -0.3605 -0.0531 -0.0082
36150DOPC   GL144820  13.659   7.021  11.518  0.0827 -0.2470 -0.0320
36150DOPC   GL244821  13.697   6.730  11.514  0.1355 -0.0398 -0.0381
36150DOPC   C1A44822  13.623   7.393  11.795 -0.0368  0.2623 -0.0272
36150DOPC   D2A44823  13.590   7.629  12.222 -0.0814  0.1102  0.1691
36150DOPC   C3A44824  13.903   7.711  12.623 -0.0272  0.2529  0.0155
36150DOPC   C4A44825  14.193   7.884  12.921  0.0821  0.1403 -0.1303
36150DOPC   C1B44826  13.906   6.501  11.822  0.3176 -0.1474 -0.0555
36150DOPC   D2B44827  14.019   6.123  12.152 -0.2832  0.0974 -0.1542
36150DOPC   C3B44828  14.186   5.742  12.411 -0.0436 -0.1175 -0.0364
36150DOPC   C4B44829  14.522   5.434  12.289  0.0235  0.0838  0.0567
36151DOPC   NC344830  12.037   0.241  11.331 -0.1307  0.1664 -0.2366
36151DOPC   PO444831  12.412   0.358  11.302 -0.0288 -0.2190  0.0561
36151DOPC   GL144832  12.435   0.631  11.684  0.3611  0.3209 -0.0886
36151DOPC   GL244833  12.146   0.660  11.616  0.1501  0.1222 -0.1015
36151DOPC   C1A44834  12.411   0.552  12.094  0.1029  0.2610 -0.0202
36151DOPC   D2A44835  12.209   0.664  12.544 -0.0767  0.1534  0.2811
36151DOPC   C3A44836  12.282   0.569  12.954  0.0249  0.2512  0.0690
36151DOPC   C4A44837  12.456   0.325  13.379  0.0182 -0.3401 -0.0520
36151DOPC   C1B44838  11.971   0.759  12.005  0.0648 -0.1211  0.0094
36151DOPC   D2B44839  11.774   0.908  12.487  0.0769  0.1463  0.0098
36151DOPC   C3B44840  11.917   0.926  12.923 -0.0990  0.0085  0.2737
36151DOPC   C4B44841  12.111   0.806  13.391  0.0220  0.0326 -0.3375
36152DOPC   NC344842   6.158   1.833  10.695 -0.2134  0.1901  0.0936
36152DOPC   PO444843   6.134   2.178  10.838  0.1233 -0.1261  0.0124
36152DOPC   GL144844   6.122   1.885  11.153 -0.0413 -0.0659  0.1206
36152DOPC   GL244845   6.301   2.105  11.339  0.0764  0.5559  0.0465
36152DOPC   C1A44846   5.882   1.500  11.389  0.0595  0.1305 -0.0301
36152DOPC   D2A44847   5.533   1.179  11.595 -0.1562 -0.2263  0.0102
36152DOPC   C3A44848   5.151   1.260  11.846 -0.1124  0.0181  0.1405
36152DOPC   C4A44849   4.822   1.183  12.253 -0.0864 -0.1282  0.0708
36152DOPC   C1B44850   6.212   2.017  11.703  0.0032  0.2341 -0.1645
36152DOPC   D2B44851   5.916   2.009  12.081  0.0645  0.0428  0.0725
36152DOPC   C3B44852   5.996   2.172  12.473  0.1814  0.2851 -0.0469
36152DOPC   C4B44853   5.884   2.626  12.646 -0.3217 -0.0326 -0.1225
36153DOPC   NC344854   3.040   3.903  10.093 -0.1044 -0.4334  0.2893
36153DOPC   PO444855   2.819   3.843  10.404  0.1658 -0.1155 -0.1100
36153DOPC   GL144856   2.857   3.957  10.810 -0.0042 -0.0805 -0.0376
36153DOPC   GL244857   2.670   4.076  10.955  0.2331  0.2741 -0.0819
36153DOPC   C1A44858   3.121   4.090  11.123 -0.1422 -0.2510 -0.1575
36153DOPC   D2A44859   3.195   4.269  11.561  0.3335 -0.1232 -0.1409
36153DOPC   C3A44860   3.119   4.757  11.532 -0.0983 -0.1280  0.2111
36153DOPC   C4A44861   3.296   5.159  11.302  0.2426 -0.0383 -0.0564
36153DOPC   C1B44862   2.612   3.965  11.370  0.0516  0.1468 -0.2180
36153DOPC   D2B44863   2.828   3.982  11.802 -0.1263  0.0989  0.0951
36153DOPC   C3B44864   2.881   3.863  12.300  0.1431  0.0175  0.2134
36153DOPC   C4B44865   2.983   3.820  12.757  0.0364  0.0241 -0.0361
36154DOPC   NC344866  10.874   4.072  11.526 -0.0661 -0.1006  0.0022
36154DOPC   PO444867  10.868   4.251  11.141 -0.2865  0.1172  0.1407
36154DOPC   GL144868  11.063   4.488  11.321 -0.2861  0.1070 -0.0521
36154DOPC   GL244869  10.841   4.541  11.541  0.0630  0.3264  0.2029
36154DOPC   C1A44870  11.317   4.453  11.689  0.2758  0.2888 -0.0305
36154DOPC   D2A44871  11.407   4.421  12.180  0.0292 -0.2234 -0.1281
36154DOPC   C3A44872  11.523   4.614  12.597 -0.0743  0.1828  0.1152
36154DOPC   C4A44873  11.884   4.517  13.001 -0.2398 -0.0354 -0.0429
36154DOPC   C1B44874  10.721   4.315  11.921  0.0204  0.0520 -0.3079
36154DOPC   D2B44875  10.722   3.855  12.232 -0.0190  0.0295  0.0505
36154DOPC   C3B44876  10.896   3.748  12.662 -0.3007 -0.0529 -0.0653
36154DOPC   C4B44877  10.956   3.577  13.157  0.0226  0.1282  0.3158
36155DOPC   NC344878  27.364   6.533  11.359  0.1309  0.1373  0.1469
36155DOPC   PO444879  27.164   6.684  11.068  0.0069  0.2925 -0.2221
36155DOPC   GL144880  26.919   6.640  11.408 -0.0317 -0.0361  0.0178
36155DOPC   GL244881  27.071   6.829  11.563 -0.0642 -0.1353  0.3213
36155DOPC   C1A44882  26.810   6.242  11.530  0.1470  0.1528 -0.1465
36155DOPC   D2A44883  26.852   5.983  11.993 -0.0933  0.0692 -0.0668
36155DOPC   C3A44884  26.993   6.247  12.326 -0.0087  0.2708  0.2915
36155DOPC   C4A44885  27.175   6.739  12.408 -0.0944  0.0367  0.0496
36155DOPC   C1B44886  26.938   7.028  12.001  0.0181 -0.2740  0.0592
36155DOPC   D2B44887  26.811   7.253  12.360 -0.1759  0.0347 -0.1277
36155DOPC   C3B44888  27.046   7.156  12.751  0.0719 -0.1992 -0.1457
36155DOPC   C4B44889  27.251   6.810  13.055 -0.1004  0.3364  0.2312
36156DOPC   NC344890  24.958   7.340  11.252  0.2111 -0.0144 -0.0560
36156DOPC   PO444891  24.966   6.958  11.299 -0.1891 -0.3087 -0.0188
36156DOPC   GL144892  25.178   6.917  11.688 -0.1971 -0.0813  0.0042
36156DOPC   GL244893  24.889   7.051  11.689  0.1956  0.0835 -0.1655
36156DOPC   C1A44894  25.273   7.060  12.071 -0.5435  0.1842  0.0245
36156DOPC   D2A44895  25.243   7.228  12.534 -0.0846 -0.1268 -0.0022
36156DOPC   C3A44896  25.612   7.539  12.556 -0.2969 -0.0021 -0.3272
36156DOPC   C4A44897  26.017   7.861  12.696  0.0665  0.1597 -0.0855
36156DOPC   C1B44898  24.783   6.924  12.063 -0.1722 -0.0054 -0.2644
36156DOPC   D2B44899  24.669   6.725  12.530  0.1882 -0.1969 -0.0948
36156DOPC   C3B44900  24.341   6.534  12.779  0.2297 -0.2885  0.0303
36156DOPC   C4B44901  24.125   6.525  13.190  0.3087 -0.2194 -0.0480
36157DOPC   NC344902  17.493   2.645  11.106 -0.1950  0.1396  0.0219
36157DOPC   PO444903  17.373   2.300  11.266 -0.0199 -0.2424 -0.0218
36157DOPC   GL144904  17.267   2.346  11.760 -0.0880  0.0869  0.3533
36157DOPC   GL244905  17.423   2.104  11.792  0.0334  0.3489  0.1370
36157DOPC   C1A44906  17.036   2.132  12.005 -0.0026  0.0441  0.1788
36157DOPC   D2A44907  16.738   2.116  12.397 -0.0229  0.0145  0.2168
36157DOPC   C3A44908  16.584   2.298  12.798  0.2559 -0.1289 -0.0423
36157DOPC   C4A44909  16.266   2.440  13.102 -0.1650 -0.2501  0.3459
36157DOPC   C1B44910  17.495   2.060  12.227  0.2154  0.1464  0.0098
36157DOPC   D2B44911  17.755   1.798  12.604  0.0396  0.2798  0.0912
36157DOPC   C3B44912  17.687   1.369  12.788 -0.0310 -0.2326 -0.0346
36157DOPC   C4B44913  17.809   0.851  12.888  0.1331 -0.0658  0.0659
36158DOPC   NC344914  20.219   3.489  11.559 -0.0160  0.1659 -0.2224
36158DOPC   PO444915  20.530   3.234  11.500 -0.0456  0.0340 -0.3288
36158DOPC   GL144916  20.833   3.141  11.827  0.2638 -0.0547 -0.2426
36158DOPC   GL244917  20.943   2.959  11.670  0.1163 -0.5180  0.0997
36158DOPC   C1A44918  20.818   3.015  12.255 -0.0282 -0.0962  0.0431
36158DOPC   D2A44919  20.990   2.767  12.686 -0.1846  0.0623 -0.4933
36158DOPC   C3A44920  20.932   2.361  12.872 -0.0693  0.1459 -0.1722
36158DOPC   C4A44921  20.941   1.910  13.028 -0.1129  0.1219  0.0970
36158DOPC   C1B44922  20.795   2.629  11.941  0.0413 -0.0907  0.2194
36158DOPC   D2B44923  20.605   2.430  12.355 -0.0499  0.3567  0.0786
36158DOPC   C3B44924  20.205   2.480  12.675 -0.3421  0.0112  0.4975
36158DOPC   C4B44925  19.855   2.700  12.898 -0.0966 -0.2774 -0.2997
36159DOPC   NC344926  11.275   1.433  11.209 -0.0004  0.1615  0.0442
36159DOPC   PO444927  11.227   1.824  11.294 -0.0575 -0.1601 -0.0976
36159DOPC   GL144928  11.332   1.807  11.706  0.0266 -0.1008 -0.0113
36159DOPC   GL244929  11.159   2.054  11.736  0.0739 -0.2351 -0.1390
36159DOPC   C1A44930  11.631   1.613  11.988 -0.1967  0.1609 -0.1327
36159DOPC   D2A44931  11.857   1.691  12.372 -0.1547  0.0375 -0.2537
36159DOPC   C3A44932  11.867   1.425  12.777  0.0216  0.0715  0.1283
36159DOPC   C4A44933  11.959   1.360  13.250  0.0713 -0.2887  0.0534
36159DOPC   C1B44934  11.240   2.031  12.211 -0.0458 -0.1553  0.1513
36159DOPC   D2B44935  11.420   1.709  12.567 -0.1013  0.3405 -0.0362
36159DOPC   C3B44936  11.451   1.297  12.477 -0.0858  0.1343  0.0781
36159DOPC   C4B44937  11.314   0.870  12.647  0.2979  0.1122  0.0697
36160DOPC   NC344938  18.756   4.457  11.568 -0.0931 -0.1903  0.0897
36160DOPC   PO444939  19.078   4.330  11.385  0.0287 -0.0282  0.2891
36160DOPC   GL144940  19.300   4.292  11.782 -0.0416 -0.0752  0.0818
36160DOPC   GL244941  19.020   4.261  11.896 -0.0091 -0.1255  0.0876
36160DOPC   C1A44942  19.455   4.130  12.160 -0.0092 -0.0696 -0.3733
36160DOPC   D2A44943  19.678   4.116  12.636  0.0210  0.2958  0.2299
36160DOPC   C3A44944  19.409   4.296  13.011  0.1834  0.0806  0.3851
36160DOPC   C4A44945  19.271   4.174  13.425  0.0829 -0.3191  0.2090
36160DOPC   C1B44946  18.967   3.943  12.257  0.0597 -0.1954  0.1925
36160DOPC   D2B44947  18.794   3.596  12.578 -0.1097 -0.0218 -0.0249
36160DOPC   C3B44948  18.865   3.672  13.067 -0.0361  0.3071  0.0286
36160DOPC   C4B44949  18.903   3.704  13.534  0.4507 -0.4356  0.2908
36161DOPC   NC344950  14.650   2.665  11.517 -0.0994  0.0307 -0.3685
36161DOPC   PO444951  14.776   2.310  11.365 -0.2200 -0.0673 -0.0148
36161DOPC   GL144952  15.040   2.204  11.646 -0.0457  0.2780 -0.0180
36161DOPC   GL244953  15.172   2.494  11.700 -0.1770 -0.2170 -0.1314
36161DOPC   C1A44954  14.912   2.107  12.019  0.1863  0.0839  0.2183
36161DOPC   D2A44955  15.128   2.248  12.479  0.2506 -0.1074 -0.1440
36161DOPC   C3A44956  15.448   1.958  12.742  0.3457 -0.0992 -0.2638
36161DOPC   C4A44957  15.928   1.883  12.714 -0.0577  0.2333  0.0579
36161DOPC   C1B44958  15.374   2.241  12.031 -0.3494  0.0370 -0.3576
36161DOPC   D2B44959  15.479   1.848  12.278 -0.3026  0.1888 -0.1328
36161DOPC   C3B44960  15.684   1.491  12.529  0.1625 -0.2080  0.0547
36161DOPC   C4B44961  15.555   0.999  12.490  0.0196 -0.0207  0.1702
36162W        W44962   1.973   5.625  23.577  0.0330 -0.1933 -0.3131
36163W        W44963   4.252   2.101  24.053  0.1320  0.1703  0.1630
36164W        W44964   3.060   2.877  24.645  0.0292 -0.0789 -0.1577
36165W        W44965   3.850   6.408   8.062 -0.2010 -0.0006  0.2827
36166W        W44966   1.712   5.458  21.616 -0.1340 -0.1855  0.2065
36167W        W44967  31.104   6.746  15.886 -0.0746  0.1621  0.0915
36168W        W44968  14.512   3.328   3.751  0.1221 -0.1472  0.1088
36169W        W44969   4.164   1.005  10.490  0.4657  0.1296  0.1806
36170W        W44970   3.773   1.534  20.881 -0.0082  0.4788  0.0551
36171W        W44971  30.286   0.567  25.149  0.3131  0.1543 -0.0841
36172W        W44972  16.001   6.478  24.847 -0.1730  0.0194  0.0284
36173W        W44973  27.230   0.709   2.735  0.3393  0.2798 -0.1790
36174W        W44974  11.816   7.691  17.779  0.3518 -0.0222 -0.0792
36175W        W44975   3.416   0.256  15.145 -0.1283 -0.0591 -0.0582
36176W        W44976  21.825   7.310   3.614  0.0080  0.2410 -0.0106
36177W        W44977   8.883   2.236   8.712  0.1303 -0.1019 -0.1183
36178W        W44978  28.084   7.850   4.264 -0.3450 -0.0273  0.0173
36179W        W44979  30.498   4.574   0.598  0.2297  0.1849 -0.1587
36180W        W44980  11.629   5.122   7.392 -0.1074 -0.0878 -0.0989
36181W        W44981  23.160   1.383  17.378  0.0559  0.0377  0.3785
36182W        W44982  10.741   1.726  23.211  0.1319 -0.1731  0.2126
36183W        W44983   0.603   6.345  19.126  0.0228 -0.2508 -0.1152
36184W        W44984  13.266   3.461   4.539 -0.3063 -0.2320 -0.2209
36185W        W44985  16.044   7.309   0.512  0.3796  0.0569  0.2571
36186W        W44986   5.862   0.222  23.078  0.1084 -0.2493  0.3064
36187W        W44987  25.661   2.270   3.401 -0.2234  0.0020 -0.0848
36188W        W44988  14.109   1.797  20.556  0.3022 -0.0197 -0.0179
36189W        W44989  24.128   1.097  24.810 -0.0385 -0.1084 -0.4312
36190W        W44990   3.412   1.196  20.787  0.0139  0.0829  0.1959
36191W        W44991   8.389   4.767   9.288  0.0746 -0.2196 -0.0240
36192W        W44992  20.303   6.382  23.200  0.0418  0.1586  0.1262
36193W        W44993  15.561   2.579  23.198  0.1838  0.1738  0.1529
36194W        W44994  16.387   7.354  10.031 -0.0942  0.0873 -0.1348
36195W        W44995  25.701   6.054  16.564 -0.1955 -0.1736  0.1731
36196W        W44996  28.962   1.820   0.667  0.1986 -0.2740  0.0721
36197W        W44997  10.019   2.572   5.652 -0.1212 -0.0562  0.0197
36198W        W44998   6.266   2.401  18.935  0.0596  0.0761 -0.1376
36199W        W44999  26.457   5.989  19.014  0.1874  0.2112 -0.0632
36200W        W45000  27.783   6.883  25.548  0.0922 -0.2253  0.0309
36201W        W45001  28.957   1.491   4.039  0.3301  0.2964 -0.0748
36202W        W45002   9.858   0.365  16.958 -0.2524 -0.0867  0.1550
36203W        W45003  14.962   0.460  22.076 -0.0794  0.1336 -0.2952
36204W        W45004  13.482   5.081  25.282 -0.1876  0.0650 -0.0594
36205W        W45005  19.426   6.586  19.791 -0.2425 -0.1365 -0.1545
36206W        W45006  22.176   4.651   6.518 -0.1776 -0.1387 -0.2267
36207W        W45007  26.954   2.092   9.708  0.2330  0.0002 -0.2391
36208W        W45008  30.358   3.315   5.595 -0.0423 -0.0655  0.0185
36209W        W45009  30.260   1.380   5.447 -0.1225 -0.1605 -0.2123
36210W        W45010  24.102   3.813  20.009  0.0171 -0.3694  0.1294
36211W        W45011   8.003   0.036   4.948 -0.0465 -0.1040 -0.0147
36212W        W45012  13.723   4.495  15.998  0.0090 -0.1196  0.1496
36213W        W45013   3.883   1.696  19.831  0.3047 -0.0721 -0.0739
36214W        W45014  23.055   2.429   3.146 -0.1365 -0.1118 -0.1813
36215W        W45015   4.786   1.661  17.986 -0.0903 -0.3223 -0.2023
36216W        W45016  22.639   3.033  19.111  0.3331 -0.0490  0.0120
36217W        W45017  18.899   2.140   5.759 -0.2619 -0.0433 -0.1800
36218W        W45018  19.617   2.735   3.308  0.2972  0.0657 -0.0500
36219W        W45019   4.157   5.442   8.911  0.1348 -0.0965  0.1292
36220W        W45020  21.713   0.144   8.666 -0.3302  0.1414 -0.1392
36221W        W45021  20.258   4.130  17.937 -0.0076 -0.0272  0.1791
36222W        W45022  28.389   6.366   9.940  0.5222  0.0533  0.2687
36223W        W45023  11.188   5.841  10.778  0.2317 -0.1010  0.1269
36224W        W45024  24.592   6.698   0.919  0.1062 -0.1561  0.1142
36225W        W45025  28.188   0.322   2.567 -0.0029  0.1840  0.1283
36226W        W45026  22.539   4.508   1.384 -0.3736  0.2132 -0.0436
36227W        W45027   7.854   6.183   0.259  0.0425  0.4516 -0.1762
36228W        W45028   5.819   5.732  18.961 -0.3031 -0.1353 -0.0426
36229W        W45029  21.011   5.450  23.836 -0.0045 -0.0277  0.1181
36230W        W45030   7.493   7.529  17.207 -0.1481  0.3055  0.0121
36231W        W45031   5.315   4.927  21.873 -0.2447 -0.5449  0.0471
36232W        W45032  17.335   3.283   1.445 -0.2718  0.0230  0.1230
36233W        W45033   3.400   4.501   4.938 -0.0603 -0.1928 -0.0363
36234W        W45034  30.180   2.385   5.828  0.2342  0.4159  0.1344
36235W        W45035  30.874   4.355  24.835  0.0614 -0.1433 -0.1542
36236W        W45036   8.469   1.248   7.876 -0.0595 -0.2001  0.4591
36237W        W45037   5.312   0.233  19.223  0.0860  0.0490  0.0291
36238W        W45038   9.065   7.597   4.785  0.1429  0.1552 -0.0719
36239W        W45039   3.613   0.781   2.000  0.1409 -0.0398  0.0956
36240W        W45040  16.502   2.891  23.689 -0.1328 -0.2527  0.3850
36241W        W45041   4.405   5.719  17.497 -0.1511 -0.4197 -0.1713
36242W        W45042  13.277   3.056  17.685 -0.0479 -0.0504 -0.4209
36243W        W45043   5.252   1.570  17.767  0.0159 -0.0404  0.0490
36244W        W45044  17.893   6.556  24.603 -0.1172 -0.2157 -0.0548
36245W        W45045  13.242   2.181   0.358  0.2476  0.1656 -0.2014
36246W        W45046  16.496   6.220   5.710  0.0175  0.0092  0.3372
36247W        W45047  24.983   0.875  15.725  0.0206  0.0478 -0.0830
36248W        W45048   9.205   0.414   6.766  0.0865 -0.0035 -0.0417
36249W        W45049  25.917   4.133  25.959 -0.2485  0.1121 -0.2474
36250W        W45050  19.773   5.342   4.950  0.0777  0.0195 -0.0250
36251W        W45051  20.443   2.981  10.655 -0.1904 -0.0308  0.0299
36252W        W45052   3.652   0.496  21.581 -0.0778 -0.2494 -0.0080
36253W        W45053  29.183   5.025   2.417 -0.1703 -0.0933 -0.0294
36254W        W45054  31.275   5.519   2.291 -0.4075 -0.0495 -0.0912
36255W        W45055  13.563   4.325  22.705  0.5936 -0.2205 -0.0210
36256W        W45056  12.341   3.977  20.891 -0.0871 -0.0617 -0.1362
36257W        W45057   2.024   5.281  24.206 -0.3506  0.0942  0.3918
36258W        W45058   8.537   1.656  17.134 -0.1167  0.2899  0.0409
36259W        W45059  14.863   5.814   5.468 -0.1944  0.0533 -0.0411
36260W        W45060  26.501   1.725   7.483  0.0256 -0.0124 -0.0059
36261W        W45061  25.179   1.989   1.060 -0.2375  0.0710  0.0278
36262W        W45062  16.739   4.388  23.690  0.3471 -0.3620 -0.1985
36263W        W45063  24.679   1.098  10.037 -0.1658 -0.0182  0.2128
36264W        W45064  12.587   7.469   9.777 -0.0256  0.1653 -0.0395
36265W        W45065   4.362   5.550   5.415  0.1209  0.2238 -0.0031
36266W        W45066   8.995   3.152   8.798  0.1312  0.0599 -0.1455
36267W        W45067  26.205   2.150   4.184 -0.2044  0.0337 -0.1171
36268W        W45068   8.767   2.931   1.179  0.0128 -0.0811 -0.2832
36269W        W45069  25.995   0.436  17.735 -0.1937  0.0012  0.0324
36270W        W45070  23.303   6.852  20.959  0.0768  0.0007  0.2505
36271W        W45071  30.121   0.488   7.539 -0.2670  0.0749  0.2785
36272W        W45072   4.790   3.514  21.713  0.2040  0.1436  0.3361
36273W        W45073  25.060   0.814  16.757  0.0972  0.0328 -0.3113
36274W        W45074   3.076   1.257  20.404  0.0041 -0.2531 -0.2287
36275W        W45075  27.794   6.951  15.186  0.1937  0.2145  0.0337
36276W        W45076  14.876   1.397  20.904  0.2556  0.0770  0.0139
36277W        W45077  18.149   4.009   8.751 -0.2325  0.2167 -0.1535
36278W        W45078   3.750   7.547  21.519  0.0081 -0.0680  0.0774
36279W        W45079  12.293   6.688   8.537  0.0638  0.0900 -0.4346
36280W        W45080  15.756   4.112  11.248 -0.1691 -0.1454  0.5530
36281W        W45081  17.104   6.285  23.983  0.1416 -0.1538  0.1349
36282W        W45082   4.709   5.432  16.176  0.0389  0.0975 -0.2338
36283W        W45083  15.387   3.715  22.105  0.1059  0.0003 -0.0690
36284W        W45084  14.482   3.634  16.751  0.1758  0.1434  0.1637
36285W        W45085  11.337   5.363  17.407  0.1564  0.0981  0.4043
36286W        W45086  28.098   6.727   1.944 -0.0018  0.1194  0.0275
36287W        W45087  12.679   4.044   9.366 -0.4074  0.1759 -0.3308
36288W        W45088   0.339   0.685   2.655 -0.0729 -0.0182  0.0514
36289W        W45089  16.547   0.947  22.280 -0.3485  0.0586 -0.1600
36290W        W45090  23.612   2.117  16.399 -0.0795 -0.0801 -0.0113
36291W        W45091  13.621   3.537  23.088 -0.1049 -0.3487 -0.0624
36292W        W45092   9.417   0.193   0.363 -0.0985  0.0005 -0.0761
36293W        W45093   8.359   2.800   4.789 -0.1961  0.2987 -0.4357
36294W        W45094  28.249   1.798   8.363  0.0173 -0.1815 -0.0243
36295W        W45095  21.017   5.548   2.716  0.0679 -0.0464  0.0549
36296W        W45096  18.591   5.044  24.893 -0.2805 -0.2259  0.3980
36297W        W45097  20.930   5.264  10.910  0.1517  0.2614  0.2311
36298W        W45098  13.790   6.011  20.840  0.0523 -0.1024 -0.0858
36299W        W45099   3.869   7.280   5.400 -0.2209 -0.1058 -0.3347
36300W        W45100   1.688   1.006  20.333  0.2371  0.1447  0.0218
36301W        W45101   3.688   4.738   8.735 -0.3377 -0.1777 -0.2152
36302W        W45102   1.340   4.259  16.022 -0.0533 -0.0417  0.3344
36303W        W45103   0.131   6.518  19.872 -0.0583  0.1708  0.0581
36304W        W45104  25.748   1.133  20.367 -0.0085  0.0619 -0.0607
36305W        W45105  21.763   3.915  24.752  0.0374  0.1218 -0.0325
36306W        W45106  12.738   4.681   3.996 -0.0153 -0.2543  0.0249
36307W        W45107  14.681   0.521   3.228  0.2560  0.1884 -0.2320
36308W        W45108  25.940   6.943   8.507  0.0507 -0.1018 -0.1105
36309W        W45109   1.606   4.533  23.554 -0.0011  0.0864  0.2310
36310W        W45110  23.331   6.248  21.352 -0.1518 -0.1113 -0.2420
36311W        W45111   7.263   0.477   9.193 -0.3499  0.1523  0.0744
36312W        W45112  14.860   7.801   7.374 -0.2030 -0.2277 -0.0552
36313W        W45113  24.515   3.120  20.014 -0.1310  0.1196  0.0012
36314W        W45114  31.398   4.839   3.835  0.2726  0.3585  0.0918
36315W        W45115  17.142   3.206  10.460  0.0553 -0.0327  0.3597
36316W        W45116  24.160   5.310   1.860  0.0086  0.1453  0.0096
36317W        W45117  26.390   1.383   9.458 -0.1310  0.1513  0.0452
36318W        W45118  17.564   2.522  21.331  0.4047 -0.3101 -0.1903
36319W        W45119  23.598   0.514   6.444  0.2944  0.0561 -0.0900
36320W        W45120  14.012   6.450  23.028 -0.0479  0.0683  0.2553
36321W        W45121  18.575   5.806  25.547 -0.0367  0.1228 -0.0216
36322W        W45122   6.756   4.770   6.337  0.0283  0.1028 -0.1184
36323W        W45123  30.478   7.443   4.559  0.0584 -0.0313 -0.0084
36324W        W45124  23.048   6.062  15.852  0.0902  0.0344 -0.0286
36325W        W45125   9.500   2.215   8.458  0.4148 -0.2141 -0.4628
36326W        W45126  15.449   2.238   7.630  0.0898  0.0521  0.0025
36327W        W45127  22.337   7.143  18.900 -0.1098  0.4690 -0.3267
36328W        W45128  27.480   7.776  24.478  0.0497 -0.1782  0.2314
36329W        W45129   3.858   4.678   3.450  0.1545 -0.2426  0.0858
36330W        W45130   7.530   1.417  23.599 -0.2229  0.0263  0.0114
36331W        W45131   9.140   6.480  10.152  0.0405 -0.2439  0.1600
36332W        W45132  27.997   0.924   6.964  0.1336  0.0356  0.1803
36333W        W45133  29.436   6.343  20.842  0.0390  0.1264  0.0506
36334W        W45134  28.552   5.383   8.436  0.1833  0.0300  0.0440
36335W        W45135   4.687   5.986  21.816  0.0619  0.2470 -0.0678
36336W        W45136  30.350   1.765   0.715  0.2075  0.0696  0.2458
36337W        W45137   3.658   5.063   2.475  0.1265  0.1026 -0.0640
36338W        W45138  17.023   1.604   1.991  0.0183 -0.0324  0.2055
36339W        W45139   2.115   7.509  20.985 -0.2182 -0.0721 -0.0805
36340W        W45140  23.111   3.376  23.490 -0.1544  0.1377  0.2980
36341W        W45141   6.577   1.381  21.310 -0.0496 -0.2282 -0.0646
36342W        W45142  31.283   5.339  19.796 -0.2033  0.2494 -0.1056
36343W        W45143   8.526   6.637  24.582 -0.3182 -0.3106  0.1991
36344W        W45144   9.061   0.236   8.639 -0.0843  0.0182 -0.2880
36345W        W45145  16.828   7.687  16.782 -0.1943 -0.0004 -0.0235
36346W        W45146   7.705   6.006   1.107  0.0987  0.3350  0.0415
36347W        W45147   7.737   0.877   7.543 -0.3614 -0.0554  0.0026
36348W        W45148  17.272   3.998   4.395 -0.0667  0.0894 -0.2807
36349W        W45149  11.436   5.338   9.905  0.0245 -0.0490  0.3415
36350W        W45150  28.257   4.249  18.262 -0.0746  0.0246  0.0099
36351W        W45151  17.162   0.277  24.394 -0.0547  0.0135  0.2477
36352W        W45152  18.692   5.277   9.006  0.0106 -0.1816 -0.1723
36353W        W45153   5.982   6.154   1.826  0.0573  0.0053 -0.3207
36354W        W45154   2.907   6.139  23.242  0.2203 -0.1838  0.0351
36355W        W45155   2.045   2.763   4.906 -0.0111  0.1384 -0.1421
36356W        W45156   7.017   5.005  23.227 -0.0838  0.2307 -0.0466
36357W        W45157   9.166   1.845   3.885  0.0686  0.0055  0.2089
36358W        W45158  15.981   6.716  10.016 -0.0007 -0.0531  0.0772
36359W        W45159  21.359   5.392  22.801  0.0591  0.1025  0.1441
36360W        W45160  14.415   4.238  11.130  0.0687 -0.0923  0.0890
36361W        W45161   8.708   0.597  17.577  0.1389 -0.2814  0.2451
36362W        W45162  28.158   2.811   7.865 -0.1069  0.1922  0.2025
36363W        W45163  17.904   3.848  21.996 -0.0188  0.2911 -0.2396
36364W        W45164  27.188   2.924   2.987 -0.0530 -0.0205  0.3892
36365W        W45165  27.747   6.564   5.495  0.2493  0.0082 -0.1131
36366W        W45166  24.686   3.312  15.356 -0.1904  0.1180 -0.0220
36367W        W45167  13.268   2.153  23.364  0.2184  0.1707 -0.0034
36368W        W45168  25.054   6.831  15.449 -0.1494  0.3327 -0.0369
36369W        W45169  22.182   3.315  21.525  0.1125 -0.0731 -0.0281
36370W        W45170  27.921   4.848   6.624 -0.1902 -0.0047  0.1775
36371W        W45171  22.368   6.085   8.661 -0.2368  0.1969 -0.1982
36372W        W45172   6.035   7.604   7.247 -0.2826  0.2014 -0.0161
36373W        W45173  22.385   2.321   4.139 -0.2809  0.0755  0.0511
36374W        W45174   3.956   5.647  19.917  0.0204  0.2285 -0.2123
36375W        W45175   1.060   7.269  24.740  0.2750 -0.0005 -0.0678
36376W        W45176   8.827   1.110  17.443 -0.0130  0.1975  0.0922
36377W        W45177   6.180   0.146   8.383  0.1156  0.3470 -0.2379
36378W        W45178  23.005   0.970   4.654 -0.0564  0.0813 -0.1988
36379W        W45179   1.710   6.137   9.800  0.2121 -0.1005  0.0587
36380W        W45180  13.533   2.601   0.149 -0.4363  0.2353  0.3095
36381W        W45181  10.965   2.848   3.114  0.0402 -0.1257 -0.3016
36382W        W45182  22.513   2.590  15.760  0.0455  0.0575  0.1449
36383W        W45183  27.205   4.158   0.969  0.1638  0.2283 -0.1918
36384W        W45184  23.660   6.421   0.750  0.1617 -0.0402  0.2814
36385W        W45185  22.558   2.980   7.180 -0.2156 -0.0886 -0.1166
36386W        W45186  29.934   0.755   9.676 -0.2544 -0.1817  0.2458
36387W        W45187   1.056   0.476  24.201 -0.1187  0.0059  0.0127
36388W        W45188  22.981   2.658  15.531 -0.2119  0.0878  0.3027
36389W        W45189  25.572   5.696   6.696  0.3475  0.2319  0.2095
36390W        W45190  28.967   2.156  16.620 -0.3810 -0.3537 -0.1243
36391W        W45191  18.277   6.171  24.496  0.0612 -0.1937  0.2100
36392W        W45192  30.305   1.387  16.685  0.0998 -0.2623  0.1659
36393W        W45193   5.499   1.421  19.486 -0.0985  0.1311 -0.0389
36394W        W45194   4.580   0.799  24.997 -0.1715  0.1276 -0.0334
36395W        W45195  10.154   1.476   0.813  0.1983  0.1684 -0.0141
36396W        W45196   5.838   5.413   0.865 -0.0435  0.1826  0.1469
36397W        W45197   6.007   6.378  17.014  0.0908  0.0039 -0.0606
36398W        W45198  14.975   0.808  22.487 -0.1270 -0.0613  0.1328
36399W        W45199  21.151   6.421   8.119  0.2212 -0.1095  0.2788
36400W        W45200  24.206   4.252  11.172 -0.1530  0.0306 -0.0635
36401W        W45201  19.666   6.204  24.219 -0.0669  0.3941 -0.3248
36402W        W45202  18.601   1.281   5.665 -0.2196 -0.0665 -0.3070
36403W        W45203   2.683   5.480   8.241 -0.3889 -0.1221 -0.2151
36404W        W45204   6.566   3.259  10.511 -0.0322  0.0577 -0.0450
36405W        W45205  28.036   4.325   6.671  0.0699  0.1090 -0.2616
36406W        W45206   0.031   0.598   9.704  0.2375 -0.2879 -0.1347
36407W        W45207   6.149   5.106  21.436 -0.5907 -0.0287 -0.1109
36408W        W45208   6.443   0.541   1.095  0.2339 -0.1671  0.0848
36409W        W45209  14.947   6.546  19.085  0.0682 -0.0783 -0.1579
36410W        W45210  17.592   2.642  11.572 -0.0934  0.0009 -0.2449
36411W        W45211  19.921   3.073  15.729  0.0383 -0.1443  0.0289
36412W        W45212   2.528   5.414   4.001 -0.1138 -0.0894  0.0997
36413W        W45213  18.352   3.090   9.698  0.0250 -0.0544 -0.0594
36414W        W45214  20.603   1.064   1.726  0.2519 -0.3295  0.1329
36415W        W45215  17.791   3.219  20.501 -0.3241  0.0215 -0.0746
36416W        W45216   8.437   6.226   9.887 -0.0159 -0.1244  0.0397
36417W        W45217  15.943   5.560   9.239 -0.2839  0.1921 -0.0590
36418W        W45218  17.529   3.664   2.096  0.0552  0.0463 -0.1481
36419W        W45219  12.601   1.896   2.327  0.2350 -0.0061 -0.0165
36420W        W45220   1.057   3.373  20.950 -0.1027 -0.0501  0.0912
36421W        W45221   6.692   5.232   8.408  0.2286  0.1631 -0.1105
36422W        W45222  28.300   2.077  19.081 -0.0941  0.0666 -0.0899
36423W        W45223  11.523   4.524  15.161  0.1872 -0.1848  0.4291
36424W        W45224  31.386   2.181  10.097 -0.0271 -0.2457  0.0903
36425W        W45225  23.215   0.755   6.091  0.0845 -0.3038 -0.2741
36426W        W45226   1.109   6.697   7.376  0.0773  0.3845 -0.2277
36427W        W45227   3.710   3.447   2.771  0.0182 -0.1878  0.1383
36428W        W45228   0.995   5.592  22.652  0.2925  0.1182  0.0673
36429W        W45229  20.429   5.743   8.581 -0.0549  0.3037  0.1042
36430W        W45230  17.531   1.554   0.784 -0.3127 -0.0497  0.1955
36431W        W45231  18.468   4.393   0.418  0.0887  0.2163 -0.0080
36432W        W45232  22.209   3.604  19.536 -0.0308 -0.1674 -0.2651
36433W        W45233   3.140   0.902   5.799  0.1910 -0.0410  0.2105
36434W        W45234  11.485   3.671  25.442  0.2697  0.2183  0.1024
36435W        W45235  25.375   6.386   3.049  0.0605  0.0953  0.4536
36436W        W45236   6.606   6.844  15.284 -0.1045 -0.3251 -0.0157
36437W        W45237  28.630   0.124  10.863 -0.0441  0.0621  0.0285
36438W        W45238   2.558   6.739  22.787  0.0686 -0.3540  0.0027
36439W        W45239   4.449   1.993  23.004 -0.0682 -0.0417  0.0186
36440W        W45240   2.516   1.562   1.946  0.0847  0.0409 -0.0524
36441W        W45241  26.990   4.576  10.965 -0.1093  0.0471  0.0753
36442W        W45242   6.899   6.572  17.077  0.2992 -0.2261 -0.0351
36443W        W45243  10.471   4.416  25.946  0.1231  0.1864  0.0085
36444W        W45244   1.862   2.482  20.858 -0.1463 -0.2134 -0.1638
36445W        W45245  23.879   1.057   1.673  0.0116 -0.1375  0.0816
36446W        W45246  17.726   7.837   6.557 -0.1142 -0.0022 -0.0795
36447W        W45247  23.835   2.082   8.690 -0.2925  0.0485 -0.1420
36448W        W45248  10.620   5.982   7.255 -0.4953  0.0135 -0.1237
36449W        W45249  13.893   5.981   2.133  0.1986  0.2188 -0.0447
36450W        W45250   5.652   7.813  22.651  0.0236 -0.1246 -0.1351
36451W        W45251   3.837   0.104   9.773 -0.2619 -0.0848  0.1829
36452W        W45252  23.517   4.899  18.537 -0.0065  0.1151 -0.2345
36453W        W45253  19.078   1.418   4.296  0.2855  0.0911 -0.2335
36454W        W45254   7.815   3.637  16.458  0.0955  0.1914  0.0934
36455W        W45255   0.171   4.601   0.704  0.1721  0.2436 -0.0840
36456W        W45256  25.536   7.816  23.277  0.1666 -0.0491  0.3260
36457W        W45257  20.774   3.950  24.911  0.2114 -0.2519  0.0660
36458W        W45258   3.537   3.982   5.608  0.2959 -0.1871  0.4147
36459W        W45259   2.869   1.834   5.658 -0.0400  0.1618 -0.0822
36460W        W45260   6.991   0.767  19.786 -0.2687  0.0691 -0.0002
36461W        W45261  26.188   3.993   2.285 -0.0978 -0.2460 -0.2478
36462W        W45262   7.295   3.535   3.532  0.1911 -0.0758  0.0552
36463W        W45263  15.866   2.900  18.385  0.2274 -0.3758 -0.0071
36464W        W45264   4.474   0.175  17.825  0.1127 -0.1429  0.5028
36465W        W45265  21.616   5.159  24.624  0.0658  0.0209 -0.1803
36466W        W45266  10.402   1.907  18.082 -0.0391  0.2336 -0.0736
36467W        W45267   8.688   4.521   9.727  0.1794  0.0119  0.0749
36468W        W45268  10.602   0.209  18.671  0.0267 -0.2038  0.3888
36469W        W45269   3.696   3.280  18.768 -0.0061 -0.0320 -0.0714
36470W        W45270  17.821   1.840  16.489 -0.0757 -0.0372  0.0128
36471W        W45271  27.115   2.928  20.305 -0.0126  0.2170  0.2890
36472W        W45272  24.290   2.447  19.733 -0.0227 -0.0813 -0.2004
36473W        W45273  15.143   5.683   3.210 -0.0586 -0.0423 -0.2292
36474W        W45274  20.361   7.460  25.530  0.2432 -0.1465  0.0735
36475W        W45275  24.295   3.902  17.829  0.0149  0.1614  0.1197
36476W        W45276  29.402   0.785   9.655 -0.1719 -0.2445 -0.0277
36477W        W45277  26.588   2.158  16.645 -0.0062  0.1103 -0.0643
36478W        W45278  12.036   3.788   7.830  0.0946 -0.1238 -0.1133
36479W        W45279   7.984   4.827  11.186  0.0160 -0.0740 -0.0095
36480W        W45280  17.772   3.322   1.161 -0.1569  0.1897 -0.0782
36481W        W45281   1.798   3.086   0.847  0.0589  0.1903  0.0656
36482W        W45282   7.708   1.532  15.921  0.1561  0.0605 -0.1380
36483W        W45283  24.617   5.285   0.495  0.1992  0.0342 -0.0515
36484W        W45284  26.665   5.349  17.675  0.1517  0.1595 -0.1083
36485W        W45285  24.170   7.442   3.341  0.0092  0.3741  0.2064
36486W        W45286   0.485   5.772   6.119  0.4127  0.0068 -0.4161
36487W        W45287  12.360   6.061  25.683  0.0287  0.4045  0.2661
36488W        W45288  13.187   1.009  16.564  0.1139 -0.0421 -0.1291
36489W        W45289  19.426   1.571  22.167 -0.0532 -0.0594 -0.0794
36490W        W45290  26.656   1.180   4.202  0.1035 -0.1310  0.0748
36491W        W45291  19.092   6.598   6.215  0.5285  0.0468 -0.0691
36492W        W45292   7.287   7.337  10.207  0.2120 -0.1280 -0.0134
36493W        W45293   1.633   3.553   1.252 -0.1028 -0.2471 -0.0272
36494W        W45294   0.315   6.455  17.097 -0.1378  0.0826  0.2615
36495W        W45295  25.108   7.590   2.178  0.2179 -0.3578 -0.2696
36496W        W45296  25.075   3.793  19.810 -0.2076 -0.1164 -0.1898
36497W        W45297   3.178   7.514   6.672  0.1142 -0.2943 -0.0053
36498W        W45298  25.604   1.010  25.804  0.2207 -0.2065 -0.1182
36499W        W45299   1.460   1.863   0.742 -0.0535 -0.3630  0.3220
36500W        W45300   9.900   2.500  17.438  0.0963  0.2308 -0.2899
36501W        W45301  11.112   3.131  17.539 -0.3418  0.1465 -0.1068
36502W        W45302  18.848   2.582  24.514 -0.1441  0.2132 -0.1339
36503W        W45303   6.877   7.828  22.339 -0.1548 -0.3107 -0.1154
36504W        W45304  12.751   7.833  22.572  0.1700 -0.2035  0.1255
36505W        W45305  31.079   2.572   0.666 -0.0723  0.1214  0.1110
36506W        W45306  25.379   7.682   5.956  0.2371  0.0512  0.0534
36507W        W45307   4.837   7.160  15.915 -0.0681 -0.1838  0.1794
36508W        W45308  26.278   2.314  23.014 -0.0230  0.2274  0.2701
36509W        W45309  29.433   6.164   9.792 -0.3470  0.1113 -0.1053
36510W        W45310  26.747   4.781  21.941  0.0703 -0.1453  0.0219
36511W        W45311  13.484   7.335   9.866  0.1628  0.2044  0.0251
36512W        W45312   7.022   3.256  24.494  0.1751  0.2029  0.3772
36513W        W45313   0.367   6.747   3.594  0.0987  0.0567  0.2892
36514W        W45314   1.429   2.570  22.197  0.2459 -0.0941 -0.1000
36515W        W45315  13.759   7.571  24.094  0.2346  0.3363 -0.0627
36516W        W45316  21.573   1.046  21.757 -0.1698 -0.3351  0.3743
36517W        W45317  29.555   5.282   8.591 -0.0539  0.1075  0.0976
36518W        W45318  26.367   3.530  20.828 -0.0967 -0.1224  0.2097
36519W        W45319  23.266   6.652  18.759  0.0767 -0.1894 -0.0271
36520W        W45320   5.331   6.511   5.132 -0.1162 -0.1343  0.0464
36521W        W45321   5.799   7.240   9.682  0.0206 -0.0533  0.1578
36522W        W45322  22.192   5.497  16.044 -0.3161  0.0427  0.0881
36523W        W45323  11.815   2.292   2.387 -0.3371  0.0640  0.0676
36524W        W45324  10.102   3.174   5.822  0.1368  0.1499  0.1370
36525W        W45325  23.862   3.282   2.825  0.2688  0.0783 -0.2468
36526W        W45326   1.002   4.424   9.406 -0.1790 -0.1264  0.4000
36527W        W45327  30.108   2.146   1.614 -0.2019  0.1355  0.1754
36528W        W45328  20.380   3.423  18.050 -0.1347 -0.1700 -0.3465
36529W        W45329   4.150   2.757  19.177 -0.0598 -0.4441 -0.0136
36530W        W45330  11.811   3.172  23.150  0.0020  0.1902  0.0725
36531W        W45331  20.063   4.320  21.049  0.1079  0.1317  0.2085
36532W        W45332  15.564   3.507   0.454 -0.0131  0.0539  0.0801
36533W        W45333   9.969   0.419  25.015 -0.1700  0.3091 -0.1142
36534W        W45334  18.161   4.260   4.432 -0.0515 -0.2649 -0.1111
36535W        W45335   4.896   3.494   8.298 -0.0036  0.2458 -0.2377
36536W        W45336  22.755   2.513  16.501  0.1224 -0.1342 -0.0858
36537W        W45337  30.698   3.143   1.223  0.2113 -0.1127 -0.0356
36538W        W45338   3.604   3.483   8.975 -0.1660 -0.1557 -0.0435
36539W        W45339  22.691   2.455  10.235  0.0090  0.0036  0.2026
36540W        W45340  31.208   0.463  22.155 -0.3032 -0.0578 -0.0508
36541W        W45341   0.223   6.381   7.635 -0.1693  0.0522 -0.1579
36542W        W45342  23.916   2.179   3.566  0.2279  0.0962 -0.1203
36543W        W45343   6.209   2.904   9.814 -0.0471  0.0601 -0.0572
36544W        W45344   0.244   5.170   9.665 -0.0753  0.0326  0.0649
36545W        W45345  24.279   1.301   2.053 -0.0315 -0.4518  0.1561
36546W        W45346   0.549   7.755  23.823 -0.1066 -0.0521  0.1159
36547W        W45347  24.406   4.709  11.068 -0.0705 -0.3797  0.0350
36548W        W45348   9.573   6.679  21.321 -0.0812  0.1412  0.1961
36549W        W45349   1.833   2.137   7.469  0.0410  0.1000 -0.1531
36550W        W45350   3.359   2.127   9.728 -0.0926  0.0111 -0.1095
36551W        W45351   8.905   0.275   7.909  0.2169  0.1695  0.1292
36552W        W45352   8.318   1.909   6.471  0.0982  0.0327 -0.2252
36553W        W45353   0.018   6.569   3.916 -0.2278 -0.2230 -0.1246
36554W        W45354   8.365   7.032   5.826 -0.0305 -0.2176 -0.0297
36555W        W45355  17.541   2.035   0.645 -0.0454  0.1089  0.3728
36556W        W45356  16.339   5.578  22.697 -0.2374 -0.0166  0.1676
36557W        W45357  25.238   6.610   3.956 -0.0377  0.0474 -0.1411
36558W        W45358  27.888   2.900   3.924  0.0917 -0.3434 -0.1968
36559W        W45359  10.311   5.382   5.045  0.0059 -0.0386  0.1944
36560W        W45360   1.417   2.606  21.065  0.0820  0.2207  0.3153
36561W        W45361  27.404   1.918  16.799  0.0136 -0.0354  0.0775
36562W        W45362  21.822   5.158  16.095 -0.0591  0.0047  0.0684
36563W        W45363   3.433   0.752  15.875 -0.2475  0.0874 -0.0102
36564W        W45364   9.746   7.668  23.740 -0.2643 -0.3073 -0.3365
36565W        W45365  13.781   6.472  18.175  0.1465  0.1973 -0.2692
36566W        W45366  22.200   4.017  21.301 -0.1652  0.0585 -0.1149
36567W        W45367  18.401   2.283  21.747  0.0764 -0.3032  0.0202
36568W        W45368   0.435   2.373  22.308 -0.0094 -0.1328  0.1775
36569W        W45369  11.156   5.068   5.231 -0.3589 -0.2421 -0.0114
36570W        W45370  10.736   0.542   7.011 -0.0186  0.1814  0.1515
36571W        W45371  13.307   0.101  22.611 -0.2068 -0.3272  0.0104
36572W        W45372   0.301   1.040  21.711  0.0923  0.0489  0.2224
36573W        W45373  10.558   2.763   6.281 -0.1833  0.2715 -0.2739
36574W        W45374   7.975   5.246   6.059 -0.1267  0.2341 -0.1236
36575W        W45375  17.043   7.606  19.024  0.1646  0.1577  0.1309
36576W        W45376  28.388   5.106  23.045  0.4126  0.2405 -0.1748
36577W        W45377  10.349   7.331  16.349  0.2613 -0.0725  0.2046
36578W        W45378   3.059   6.845   3.788  0.2509 -0.3769  0.1126
36579W        W45379  14.539   1.235   8.119  0.0153 -0.0595  0.0580
36580W        W45380   7.079   7.138  15.905  0.0249 -0.0256  0.0814
36581W        W45381  23.582   7.036   0.335 -0.1039 -0.1534  0.4906
36582W        W45382  10.590   7.085  15.890 -0.2759 -0.0787 -0.0422
36583W        W45383  17.656   2.508   8.309  0.2391  0.0449  0.1451
36584W        W45384   2.374   3.454   4.343  0.3379 -0.0087 -0.3660
36585W        W45385  21.123   6.896   5.517 -0.0881 -0.5816 -0.1348
36586W        W45386   9.365   1.038  21.712  0.0293 -0.0137 -0.1409
36587W        W45387   5.035   3.697   1.926 -0.3769 -0.0697 -0.2359
36588W        W45388  10.288   3.523  25.797  0.0816 -0.2298 -0.0359
36589W        W45389  30.606   7.063   7.239 -0.0515  0.3005 -0.3421
36590W        W45390  23.029   5.015  18.498 -0.4202 -0.3637  0.1259
36591W        W45391  26.909   2.178  21.473 -0.1254 -0.1187  0.2639
36592W        W45392  11.260   6.132   5.537 -0.0877  0.1763 -0.0628
36593W        W45393  19.173   6.319  10.911  0.3233 -0.2200  0.0570
36594W        W45394   3.643   5.075   4.858  0.1349  0.0681  0.0275
36595W        W45395  26.996   0.528   0.743 -0.2514 -0.0333 -0.1255
36596W        W45396  26.394   7.602   5.476 -0.1719 -0.2553 -0.1860
36597W        W45397  18.148   1.454   3.961 -0.0594 -0.0380 -0.0339
36598W        W45398  11.616   6.967  16.617 -0.2548  0.1042 -0.0461
36599W        W45399   0.921   1.793  23.437  0.2294 -0.1160  0.1443
36600W        W45400  28.292   4.838  25.757  0.0134 -0.5192  0.0929
36601W        W45401  19.669   4.078  11.724  0.0203 -0.0399 -0.0892
36602W        W45402  27.831   0.511  14.348  0.1264  0.0118 -0.1574
36603W        W45403  16.507   4.439  14.837 -0.0329 -0.0331  0.1731
36604W        W45404  16.702   0.084  18.791 -0.1260 -0.0375 -0.0775
36605W        W45405   8.961   2.769   0.741  0.4749 -0.0080  0.2474
36606W        W45406   5.055   1.216   0.402  0.0765  0.2202  0.0312
36607W        W45407  18.427   2.001  23.073  0.0879  0.0927 -0.3384
36608W        W45408  18.331   6.944  17.924  0.1572  0.0862 -0.0697
36609W        W45409  25.778   6.302  22.987 -0.1146 -0.0483  0.1453
36610W        W45410  10.061   3.227   4.722 -0.0754 -0.1638  0.2196
36611W        W45411  16.781   3.001  16.553  0.1972  0.0859  0.2155
36612W        W45412  20.537   7.732  17.755 -0.1363  0.0635  0.1610
36613W        W45413  25.116   0.587  17.432 -0.1520  0.1313 -0.0715
36614W        W45414  10.537   2.389  23.923 -0.0239  0.0828  0.3510
36615W        W45415  20.845   3.998  15.946  0.3107  0.1759 -0.3326
36616W        W45416  10.556   1.758  19.129  0.1845  0.3332  0.1628
36617W        W45417  26.341   6.954  17.983  0.4722  0.0264  0.0885
36618W        W45418  25.728   6.440  16.279  0.1490  0.0657  0.1163
36619W        W45419  26.923   5.001  16.188 -0.0526 -0.1770 -0.1430
36620W        W45420  18.286   7.509  19.663  0.1146 -0.1736  0.2161
36621W        W45421   7.814   0.658   4.288 -0.1309  0.1003 -0.1935
36622W        W45422   6.186   1.151   7.751  0.3391  0.1463  0.2214
36623W        W45423   7.514   6.413   0.534  0.1186 -0.1062  0.0921
36624W        W45424  20.816   2.078   5.353 -0.0092  0.0545 -0.2241
36625W        W45425  20.616   5.836  10.358  0.1758  0.0262 -0.1257
36626W        W45426   3.819   0.689   6.503  0.3050  0.0682  0.0487
36627W        W45427  21.258   3.893  10.139  0.0692  0.0073 -0.0368
36628W        W45428  12.534   1.223   6.543 -0.1942 -0.0341 -0.4583
36629W        W45429  30.718   0.370   1.385 -0.0153  0.1312  0.0374
36630W        W45430  17.737   3.909  26.061 -0.1942  0.4026 -0.2034
36631W        W45431  14.013   3.164  20.541  0.2200  0.1396  0.1374
36632W        W45432  21.600   0.584   2.664  0.2205  0.0007 -0.3081
36633W        W45433  10.648   0.119  10.426  0.0613  0.3505  0.0949
36634W        W45434  22.022   0.728   3.609  0.1537  0.0030  0.0907
36635W        W45435  30.401   4.470  20.147 -0.0076 -0.1346  0.0485
36636W        W45436   0.077   0.022  23.776 -0.2447 -0.3016  0.1902
36637W        W45437  22.169   4.099   5.099  0.1338 -0.2946 -0.3830
36638W        W45438   5.604   2.196   0.508 -0.1310  0.3481  0.1660
36639W        W45439   8.832   3.756   3.433  0.0913  0.0429  0.3428
36640W        W45440  25.674   7.075  24.381  0.0766  0.2372 -0.0729
36641W        W45441  15.665   1.745   4.650 -0.2586 -0.0838 -0.0444
36642W        W45442   4.192   0.205   2.031 -0.0241 -0.0535  0.0541
36643W        W45443  30.196   3.318  21.885  0.0958 -0.1192  0.3909
36644W        W45444  19.064   2.061  24.519  0.2491  0.4026 -0.3059
36645W        W45445  22.092   6.149   1.879  0.0196 -0.1665 -0.0134
36646W        W45446   2.429   6.447   5.943 -0.1543  0.0350 -0.2874
36647W        W45447  13.243   1.659  19.265 -0.1503  0.0758  0.2372
36648W        W45448  26.672   4.611  10.525 -0.0969 -0.0435 -0.1662
36649W        W45449  14.591   2.169   7.481  0.0899  0.0737 -0.1319
36650W        W45450  10.174   7.202   7.015 -0.1286 -0.2964  0.2984
36651W        W45451  29.226   6.980   7.780  0.0114  0.3966  0.3702
36652W        W45452   3.809   1.570   6.840 -0.2848  0.0046 -0.3817
36653W        W45453   0.776   3.713   1.272 -0.1559  0.2015 -0.2367
36654W        W45454   6.310   6.278   6.242  0.2418  0.1573 -0.0967
36655W        W45455  26.666   0.045  24.288 -0.1543 -0.2091 -0.0034
36656W        W45456  19.565   4.271  25.233 -0.0730 -0.3022  0.3649
36657W        W45457  15.632   7.753   6.663  0.1428  0.0352  0.2190
36658W        W45458   2.987   3.501  10.740 -0.1289 -0.1195 -0.1317
36659W        W45459  13.211   7.509  19.220  0.3371  0.2688 -0.2982
36660W        W45460  10.081   0.518   0.808  0.0712 -0.1535 -0.2096
36661W        W45461   9.442   1.221  10.490  0.3853  0.1077 -0.4568
36662W        W45462  15.352   5.086   4.886  0.1181 -0.1151 -0.0247
36663W        W45463  14.441   2.654   7.460 -0.1127  0.2637 -0.0105
36664W        W45464   0.845   7.797  15.907  0.1694  0.1988 -0.3451
36665W        W45465   4.084   3.446  16.192  0.0864 -0.0977 -0.2798
36666W        W45466  15.217   4.681  24.854 -0.1888 -0.1986 -0.0840
36667W        W45467   4.404   5.095   5.122  0.0797  0.1325 -0.0100
36668W        W45468  13.396   6.606   5.289 -0.2653  0.2080  0.1793
36669W        W45469   6.882   1.851  22.265  0.2917  0.1071  0.2212
36670W        W45470   9.125   6.922   1.651  0.0322  0.1174  0.0912
36671W        W45471  14.287   6.828  15.486  0.2239 -0.2332  0.1674
36672W        W45472  30.445   4.362  21.134 -0.1920  0.0226 -0.0429
36673W        W45473  21.119   4.984   2.665  0.2866  0.1433 -0.0084
36674W        W45474  29.263   3.695   1.905  0.0448  0.0296  0.3018
36675W        W45475  30.237   7.397  15.390 -0.3785  0.4111 -0.1181
36676W        W45476   2.769   7.058  21.380  0.1438 -0.1039 -0.2815
36677W        W45477  26.928   3.728   3.517  0.0722 -0.0500  0.2355
36678W        W45478  26.735   3.120  10.258 -0.1499 -0.1746  0.2110
36679W        W45479   1.314   7.395  19.570 -0.0463 -0.0885  0.0242
36680W        W45480  10.278   5.521  16.219  0.1196  0.0634 -0.2415
36681W        W45481   1.152   4.009   7.671  0.2022 -0.0191  0.1231
36682W        W45482  28.329   6.409  19.331  0.1346 -0.0893  0.0439
36683W        W45483   1.592   1.819   5.328  0.2809 -0.1027 -0.1247
36684W        W45484  15.045   4.958  15.492  0.1099 -0.0569  0.1480
36685W        W45485   8.407   7.304   9.469  0.2881 -0.1729 -0.1353
36686W        W45486   3.912   5.280   5.234  0.2625  0.0663 -0.0917
36687W        W45487  10.299   4.189   6.128 -0.2817 -0.1521 -0.0642
36688W        W45488  16.597   7.640   6.409  0.0995 -0.0052 -0.4362
36689W        W45489   0.579   2.571   1.528 -0.0859  0.0941 -0.1747
36690W        W45490  24.826   5.444   8.165 -0.1542  0.2256 -0.0813
36691W        W45491   4.905   2.050   4.103 -0.0020  0.1095  0.0134
36692W        W45492  30.452   3.228   4.301  0.0275  0.3596 -0.3206
36693W        W45493  21.984   0.055  17.570  0.1972 -0.0396 -0.1503
36694W        W45494  22.072   0.409   6.074 -0.0929 -0.4568  0.0181
36695W        W45495  29.628   2.641  15.503 -0.2580 -0.0210 -0.0545
36696W        W45496  27.288   0.601   2.236 -0.0831 -0.0333 -0.1001
36697W        W45497  26.510   5.428  23.561  0.0693  0.0930  0.0626
36698W        W45498  14.851   5.867  18.865 -0.0554 -0.1599  0.0654
36699W        W45499  23.926   7.377  18.515  0.0872  0.0246 -0.0377
36700W        W45500   5.749   5.738   3.403 -0.2793 -0.0387 -0.1147
36701W        W45501  18.827   7.292   7.393  0.0039  0.0717  0.1986
36702W        W45502  23.224   5.065   7.310  0.0455  0.1101 -0.2164
36703W        W45503   1.905   7.003  21.742 -0.1049  0.0989 -0.3402
36704W        W45504  28.597   3.041  18.785 -0.2220  0.0279 -0.0247
36705W        W45505   9.385   2.707   6.935  0.2636 -0.0284 -0.0334
36706W        W45506  30.343   5.047  21.677  0.1237  0.2371 -0.0535
36707W        W45507  22.301   2.950  10.196 -0.5086 -0.0814 -0.3828
36708W        W45508   7.441   4.749  23.308  0.0098 -0.2803  0.0269
36709W        W45509  13.572   4.286  26.050 -0.1564 -0.0969  0.0661
36710W        W45510  29.359   0.136   7.350 -0.1536  0.2039  0.1220
36711W        W45511   4.021   1.993   9.106 -0.1684  0.2974 -0.0141
36712W        W45512  21.998   0.525  22.366  0.0680  0.0753  0.1071
36713W        W45513   7.762   4.516   5.517 -0.1466 -0.0210  0.3096
36714W        W45514   5.182   3.152   9.679  0.0617  0.0726 -0.0545
36715W        W45515  17.548   5.281  18.158  0.1387 -0.0288  0.0569
36716W        W45516  20.854   1.967  19.507 -0.0335  0.2176 -0.0241
36717W        W45517  25.983   4.213  10.862 -0.0462 -0.2041  0.2867
36718W        W45518   6.313   4.099   1.310  0.1892  0.2598 -0.1496
36719W        W45519  19.205   2.277   1.031  0.1274  0.1275  0.0434
36720W        W45520   8.261   4.689  22.105  0.1242  0.2619 -0.0508
36721W        W45521   2.119   1.685  10.007  0.1343  0.2326  0.1091
36722W        W45522  27.152   4.895   8.297  0.2664  0.0060  0.0080
36723W        W45523   4.378   5.137  16.445 -0.0503  0.0246 -0.0310
36724W        W45524  14.129   3.787  18.220 -0.0980 -0.2817  0.0769
36725W        W45525  29.453   3.762  14.892 -0.1456  0.0346  0.1424
36726W        W45526  27.358   7.011   0.321  0.0417  0.1658 -0.0587
36727W        W45527  25.647   4.644  25.051 -0.0863  0.2614 -0.1340
36728W        W45528  12.199   1.829  11.293  0.0036 -0.0653  0.0804
36729W        W45529   8.191   0.083  10.157  0.1464  0.0191 -0.0992
36730W        W45530   5.317   4.035  10.268 -0.0402  0.0685  0.1312
36731W        W45531  10.698   1.802  21.584  0.1835 -0.2977  0.0206
36732W        W45532   5.556   0.684   5.969 -0.1040  0.2695  0.0175
36733W        W45533  19.734   1.966  22.010 -0.1587 -0.1994 -0.2616
36734W        W45534  29.932   5.064  20.568 -0.0546  0.0976  0.2278
36735W        W45535  16.133   0.975   8.427  0.1238 -0.1020 -0.1176
36736W        W45536  15.750   1.086  16.057 -0.0593 -0.0815  0.0270
36737W        W45537  18.950   1.093  10.509 -0.1615  0.1608 -0.0498
36738W        W45538  20.518   6.212  18.818 -0.3048  0.2196 -0.0556
36739W        W45539  10.569   2.709  19.233 -0.0507  0.0303 -0.2326
36740W        W45540  30.631   3.517  23.186  0.1213  0.2117 -0.0512
36741W        W45541   6.647   4.980  24.046  0.2733  0.1145  0.0662
36742W        W45542   9.099   2.646   6.111  0.1965  0.2937 -0.0310
36743W        W45543  12.079   4.884  21.765  0.2947  0.0045  0.0773
36744W        W45544   4.352   1.055  20.595  0.3723 -0.2884 -0.1324
36745W        W45545   9.906   6.980   3.670 -0.1904  0.2177  0.2263
36746W        W45546  13.489   1.652  17.615  0.2016 -0.1799 -0.3716
36747W        W45547  11.632   6.572   2.281  0.4592  0.2182 -0.2405
36748W        W45548  12.409   7.766   8.342  0.1646  0.2653  0.0554
36749W        W45549  19.530   1.965  24.377  0.1066  0.3439  0.0234
36750W        W45550  14.601   6.559  11.171 -0.1924 -0.2472  0.0513
36751W        W45551   7.545   5.633   7.349  0.2321  0.1178  0.2007
36752W        W45552  16.847   6.397  16.398  0.1886 -0.2283 -0.0013
36753W        W45553  17.737   3.561   8.218 -0.1714  0.2314  0.0391
36754W        W45554   1.581   7.266  10.093  0.0407 -0.1701 -0.0371
36755W        W45555   7.496   2.535   0.750  0.1135  0.1799 -0.1364
36756W        W45556  21.354   7.335  20.450  0.0401  0.1962  0.0155
36757W        W45557  13.746   5.344  16.412  0.0710  0.1114 -0.1352
36758W        W45558  21.558   7.005   2.525  0.1986  0.2962  0.0901
36759W        W45559  11.946   4.546  10.270  0.1027  0.0268  0.0752
36760W        W45560  27.711   0.245  10.088  0.1409  0.1139 -0.0157
36761W        W45561   9.386   3.801  22.464 -0.4709  0.1485  0.4775
36762W        W45562  21.347   2.720   6.036 -0.0168 -0.1347  0.1480
36763W        W45563  24.159   2.468  24.215  0.0935 -0.0411  0.1078
36764W        W45564  26.593   5.712  17.184  0.0396 -0.1799  0.0891
36765W        W45565  20.166   4.103   5.903 -0.0926 -0.0488  0.0222
36766W        W45566  10.917   3.539  16.734  0.0412  0.0384  0.0698
36767W        W45567   0.202   1.072  19.762  0.0057  0.0582 -0.1573
36768W        W45568  12.823   4.777  19.085 -0.0543 -0.1926  0.1193
36769W        W45569  13.723   6.530  23.433 -0.1499 -0.5270  0.0986
36770W        W45570   9.724   6.313  21.686 -0.0551  0.2222  0.1252
36771W        W45571   0.891   4.647  21.244  0.1252  0.1891  0.1278
36772W        W45572   0.482   7.146  24.497 -0.1820 -0.0550  0.3634
36773W        W45573  13.035   7.077  24.870  0.1598  0.1216  0.0566
36774W        W45574  10.752   2.288  20.894 -0.1159  0.1944 -0.1249
36775W        W45575  23.078   1.169   7.413  0.3055 -0.0524  0.0636
36776W        W45576  28.510   6.675  22.972  0.0915 -0.0610 -0.1248
36777W        W45577  29.634   4.882  18.483  0.4320  0.0797 -0.2445
36778W        W45578   1.306   5.348  24.219 -0.1689  0.0506  0.0623
36779W        W45579  25.421   1.784  24.028 -0.2128 -0.0057  0.1524
36780W        W45580   7.337   4.541  17.951 -0.2468 -0.2328 -0.3319
36781W        W45581  14.315   1.691  25.708  0.0275 -0.0236  0.3352
36782W        W45582  26.487   2.169   9.741 -0.0384  0.0088 -0.1087
36783W        W45583  13.744   0.315   9.978  0.0052  0.0828 -0.0026
36784W        W45584  28.698   5.858   7.083  0.0225 -0.1504 -0.1817
36785W        W45585  18.158   6.281   9.394  0.1244  0.0551 -0.1934
36786W        W45586  16.892   7.804  15.936 -0.0750  0.1836  0.3156
36787W        W45587  16.625   5.196  11.140  0.1369 -0.0595  0.0516
36788W        W45588  13.260   7.262   2.144  0.0571 -0.1295 -0.1593
36789W        W45589   4.142   6.453  25.018  0.2262 -0.2008 -0.0101
36790W        W45590   1.677   0.138  21.472 -0.1453  0.0663  0.0440
36791W        W45591  27.442   6.758  18.603 -0.3149 -0.2680  0.3329
36792W        W45592  13.605   3.108   4.472 -0.1534  0.1041 -0.2706
36793W        W45593  18.196   3.002  18.247 -0.0475 -0.0805  0.1889
36794W        W45594  25.406   2.232  10.374 -0.2375 -0.0809 -0.1729
36795W        W45595  28.483   6.144   7.504  0.2981 -0.0545  0.1462
36796W        W45596  17.367   2.497  16.908  0.0640  0.1786 -0.1170
36797W        W45597  29.280   7.493   7.488 -0.2924 -0.1571 -0.2435
36798W        W45598  27.899   2.271   5.628 -0.1108 -0.2084 -0.0664
36799W        W45599  11.601   7.254  15.170  0.1175 -0.0130 -0.2516
36800W        W45600   9.167   4.609   8.929  0.0849  0.0333 -0.3159
36801W        W45601   7.095   2.767   8.194  0.0303  0.1339 -0.2304
36802W        W45602  29.883   3.305   7.241 -0.1756  0.0659 -0.1562
36803W        W45603   3.667   0.649   6.013  0.0063 -0.0544  0.0121
36804W        W45604  31.248   4.138  23.494  0.1286 -0.0678 -0.0623
36805W        W45605  21.841   2.346  22.003 -0.0325  0.1769  0.1103
36806W        W45606  23.073   1.755   6.188  0.3746  0.2820  0.2538
36807W        W45607  11.901   2.228  25.351  0.0930 -0.1754 -0.1132
36808W        W45608  16.040   0.024  19.504  0.1015 -0.1703 -0.1322
36809W        W45609   6.628   6.965   8.013 -0.0252 -0.0293  0.0900
36810W        W45610   6.332   4.658   2.691  0.0316  0.1750 -0.1786
36811W        W45611   4.231   2.314   8.068 -0.2867 -0.2088 -0.0407
36812W        W45612  25.039   7.369   9.774  0.0321 -0.0982 -0.1056
36813W        W45613  11.162   2.508   6.314  0.1916  0.1209 -0.3761
36814W        W45614  16.330   4.956  22.177 -0.0406 -0.0599  0.0391
36815W        W45615  17.886   1.479   4.748  0.3126 -0.3108  0.1176
36816W        W45616  28.260   5.222  24.248  0.3188 -0.0505 -0.2505
36817W        W45617  10.179   5.646  18.575 -0.0445 -0.4174  0.3808
36818W        W45618  14.265   2.109   3.469 -0.4874 -0.0436  0.1916
36819W        W45619  24.869   4.132  22.818 -0.1363 -0.0497 -0.0444
36820W        W45620   7.036   6.199  24.432 -0.0104  0.1144  0.1079
36821W        W45621   0.320   3.341  21.525 -0.1404 -0.1427 -0.1503
36822W        W45622   1.633   1.663  20.198  0.0084 -0.0586 -0.1123
36823W        W45623  11.999   4.255  20.679 -0.2126 -0.1226  0.1178
36824W        W45624  12.280   4.604   2.555 -0.0838  0.1266  0.0614
36825W        W45625  13.900   2.638   0.514 -0.1881 -0.1118  0.0932
36826W        W45626  26.213   0.499   6.181  0.2683  0.1427  0.3055
36827W        W45627  21.070   6.952   4.915  0.1441 -0.1535  0.1247
36828W        W45628  10.165   1.325  19.136 -0.0984 -0.0143  0.0011
36829W        W45629  25.337   5.876  14.886  0.1202 -0.3037  0.2574
36830W        W45630  14.208   5.273  23.437  0.1346  0.0601  0.1875
36831W        W45631  14.432   1.828   0.458  0.0335 -0.1923 -0.1204
36832W        W45632  17.092   3.719  22.422  0.0237  0.1050  0.0372
36833W        W45633  17.519   5.519  17.649 -0.2539 -0.0029 -0.0691
36834W        W45634  27.407   5.599  21.548 -0.2275 -0.0508  0.0823
36835W        W45635   0.209   6.516  18.672  0.1998  0.2480  0.1396
36836W        W45636  21.808   5.148  19.575 -0.0007 -0.0039 -0.2644
36837W        W45637   5.790   7.286   4.796 -0.2479 -0.1480 -0.3480
36838W        W45638  31.215   2.100  15.753 -0.2692 -0.0454 -0.0730
36839W        W45639   3.236   6.342   2.865  0.1282  0.3753 -0.3186
36840W        W45640  15.509   3.958  10.565  0.1105 -0.1158 -0.2607
36841W        W45641   6.189   0.629  22.247  0.1867  0.1183  0.1526
36842W        W45642  14.607   6.615  15.847 -0.2403  0.1473  0.2767
36843W        W45643  30.102   6.687  24.362 -0.1046  0.1274  0.0015
36844W        W45644  19.669   3.786  22.663  0.0140  0.1178  0.2269
36845W        W45645  11.116   0.505  21.209 -0.0867  0.0706 -0.0587
36846W        W45646  12.847   6.059   0.471 -0.0362 -0.2866 -0.0921
36847W        W45647  15.324   7.632  22.697  0.1154 -0.1495  0.1059
36848W        W45648  21.165   4.784  25.126  0.0750  0.3197  0.0213
36849W        W45649   8.211   0.810  20.112 -0.1525 -0.0075 -0.0871
36850W        W45650  21.686   5.784  21.437 -0.1312  0.2386 -0.0252
36851W        W45651  12.872   6.791  21.306 -0.2654 -0.0958  0.1814
36852W        W45652  27.914   7.585  22.973 -0.1828 -0.2218  0.1708
36853W        W45653   8.424   6.882  25.021 -0.1381  0.1537 -0.1630
36854W        W45654  17.060   6.492   2.519 -0.1456  0.1516 -0.0596
36855W        W45655   9.783   6.844  25.956  0.1324 -0.0171  0.0748
36856W        W45656  22.663   4.472  26.055 -0.3084  0.0180 -0.0717
36857W        W45657  10.491   6.465  21.029  0.0598  0.0759 -0.0876
36858W        W45658  26.671   6.315   7.911 -0.0012  0.2506 -0.0140
36859W        W45659   9.063   3.492  15.137 -0.1639 -0.0289 -0.1026
36860W        W45660   3.334   1.189  22.914 -0.0256 -0.1880 -0.3011
36861W        W45661   1.741   0.075  18.344  0.0053  0.4604  0.1037
36862W        W45662   9.817   7.581   7.027 -0.1391  0.1185 -0.5557
36863W        W45663  23.625   6.702   1.639 -0.2479 -0.0508  0.1201
36864W        W45664   5.477   4.851   2.596  0.1280 -0.0947  0.0850
36865W        W45665   6.208   4.597   4.890  0.0001  0.1275  0.1040
36866W        W45666  29.249   6.077  19.207 -0.0760 -0.1843 -0.0225
36867W        W45667  10.353   3.594   1.032  0.1550 -0.1142  0.3810
36868W        W45668  15.119   6.596  10.481 -0.1225 -0.0584 -0.0872
36869W        W45669  16.160   3.783  25.292  0.4320 -0.0072  0.0091
36870W        W45670  14.252   3.649   2.172  0.0721 -0.0334  0.0771
36871W        W45671  20.425   6.504   6.373 -0.0991 -0.2006  0.1765
36872W        W45672  23.499   6.707  19.489  0.1886  0.2743 -0.0457
36873W        W45673   3.069   5.254   0.254 -0.0323 -0.1685  0.0359
36874W        W45674  30.673   7.259   2.490  0.1025 -0.0351 -0.0101
36875W        W45675  26.693   3.305  11.149 -0.0030 -0.1272  0.0557
36876W        W45676   6.066   5.852  23.813 -0.1947 -0.3772 -0.3534
36877W        W45677  12.215   4.983  20.353 -0.1822 -0.0605  0.0870
36878W        W45678  26.365   3.491   6.105  0.3056  0.3938 -0.0622
36879W        W45679  15.891   7.690  10.141  0.3822 -0.1616 -0.2299
36880W        W45680  18.244   6.170  23.439  0.0503 -0.1246  0.0495
36881W        W45681  27.749   1.656   9.364 -0.2144 -0.1740 -0.5071
36882W        W45682   5.944   3.235   3.413 -0.2275  0.1546 -0.2361
36883W        W45683  26.945   5.890  22.320  0.3512 -0.0696  0.0986
36884W        W45684  27.787   3.785  14.589  0.1939  0.2074  0.1056
36885W        W45685   5.712   1.473   3.091 -0.0711 -0.0777 -0.3245
36886W        W45686  10.740   4.380  15.558  0.2652  0.0082  0.4126
36887W        W45687  29.868   1.850  14.696 -0.0788 -0.1714  0.1603
36888W        W45688  15.398   1.087  22.403  0.1657  0.0285  0.1562
36889W        W45689  19.374   6.363   5.771 -0.0981 -0.0591  0.1422
36890W        W45690  21.228   1.551  24.266  0.0797 -0.1812 -0.0725
36891W        W45691   1.795   2.118   8.514  0.0283  0.2343 -0.0156
36892W        W45692  23.863   2.268   1.243  0.0549 -0.1074  0.1289
36893W        W45693  26.144   5.220  19.068  0.3717  0.0865  0.1402
36894W        W45694  27.864   0.383  19.823  0.0258 -0.0565  0.2118
36895W        W45695  26.994   3.283  15.979 -0.2306  0.3987  0.0542
36896W        W45696   4.501   0.193   8.023  0.4080  0.4493 -0.0596
36897W        W45697   0.499   7.772   7.145  0.0695  0.1184  0.4782
36898W        W45698   3.168   3.918  16.541 -0.0222 -0.2219  0.1006
36899W        W45699  20.042   5.390   8.755 -0.1824  0.1752 -0.0581
36900W        W45700  27.325   3.488  24.480 -0.0909  0.1765  0.1332
36901W        W45701  18.536   6.521  25.123 -0.0941  0.0458  0.1637
36902W        W45702   9.653   2.809  16.673  0.0255  0.0071  0.2972
36903W        W45703   6.837   1.821  21.356 -0.4458 -0.1586 -0.0960
36904W        W45704  10.827   4.891   6.267 -0.1106  0.0894 -0.0412
36905W        W45705  11.086   2.710   7.395  0.0943  0.0842  0.1218
36906W        W45706  28.332   4.866   7.833  0.1483 -0.0983  0.2930
36907W        W45707   5.810   6.777  22.689 -0.0809 -0.2092 -0.0122
36908W        W45708   9.192   7.283   0.974 -0.1807  0.0790 -0.0389
36909W        W45709  29.188   7.780  20.048  0.3538 -0.0959  0.0408
36910W        W45710   0.095   1.294  18.092 -0.1988  0.0975  0.1400
36911W        W45711   5.226   0.228  17.742 -0.0890 -0.1626 -0.0032
36912W        W45712  13.268   4.011  20.644  0.0204 -0.1440  0.5384
36913W        W45713  27.492   2.259   2.036  0.1549  0.1736  0.0383
36914W        W45714  19.130   2.304   7.987 -0.0172 -0.0952  0.0494
36915W        W45715  22.762   2.304   6.746  0.0914 -0.0330  0.0519
36916W        W45716  15.284   5.178  10.984  0.0009 -0.2838  0.1705
36917W        W45717  25.935   7.646  21.683  0.1117  0.2139  0.1401
36918W        W45718   0.196   3.654  21.151 -0.0523 -0.1242  0.0694
36919W        W45719  17.644   5.478  22.938 -0.1900 -0.1044 -0.1581
36920W        W45720   7.892   7.674  15.758 -0.1085 -0.0410 -0.1101
36921W        W45721   1.240   0.141   8.130  0.1272 -0.2053 -0.0306
36922W        W45722   8.268   6.205  20.915 -0.1619  0.1637  0.2760
36923W        W45723  11.058   7.645  23.459 -0.1693  0.2025 -0.1512
36924W        W45724   9.534   7.110  20.324  0.0156 -0.1390  0.0846
36925W        W45725  15.237   0.756  11.115 -0.1617  0.0503 -0.0540
36926W        W45726   9.018   3.225  15.802  0.0705 -0.4744  0.2020
36927W        W45727  15.910   0.317  21.747 -0.1504  0.1567 -0.0804
36928W        W45728  17.327   1.280   6.425 -0.2008  0.2122 -0.1489
36929W        W45729  30.601   7.007  14.691 -0.0394  0.4935  0.0493
36930W        W45730  26.153   6.362   4.529  0.2176 -0.1859  0.2107
36931W        W45731  24.505   0.003   7.013  0.1021  0.1865 -0.0783
36932W        W45732  15.660   5.643  22.506 -0.0706 -0.1476 -0.0757
36933W        W45733  26.110   4.205  22.155  0.2419  0.1602  0.3098
36934W        W45734  15.855   0.985  22.658 -0.4915  0.1245 -0.0906
36935W        W45735  15.245   1.209  19.982  0.1171  0.0353  0.0356
36936W        W45736   1.690   5.850   1.853 -0.1833  0.2076  0.2106
36937W        W45737   3.027   0.329   8.003  0.0359  0.0084 -0.0868
36938W        W45738  26.355   2.328  17.482 -0.1336 -0.2173  0.3765
36939W        W45739  24.146   4.676  16.132 -0.1473 -0.1191 -0.0935
36940W        W45740  17.188   6.264  10.452 -0.1251  0.1772 -0.4617
36941W        W45741  26.203   2.540  20.758 -0.2165  0.1172 -0.0746
36942W        W45742   5.501   1.835   6.837  0.0164 -0.0343 -0.0298
36943W        W45743  14.065   2.197  18.418 -0.0241  0.0526  0.1284
36944W        W45744  11.307   1.644  23.568  0.0291  0.0696  0.1559
36945W        W45745  25.543   3.747   0.762 -0.5121  0.2305 -0.0043
36946W        W45746  25.507   7.859  21.277 -0.2342  0.0518 -0.0297
36947W        W45747  29.930   5.485  21.650 -0.2589  0.1332 -0.0802
36948W        W45748  21.463   3.017   5.366 -0.2151  0.2529  0.3115
36949W        W45749  22.183   6.692  18.710 -0.3462  0.1978 -0.0504
36950W        W45750  19.061   6.068  17.020 -0.0514  0.0865  0.1652
36951W        W45751  14.461   2.828  16.825  0.0203 -0.1396  0.1224
36952W        W45752  29.133   1.856  25.273 -0.1215 -0.0418  0.2721
36953W        W45753  12.830   7.682   9.250  0.0108  0.4537 -0.2674
36954W        W45754  30.724   5.709   8.103 -0.0057 -0.1402  0.0259
36955W        W45755   4.197   1.167   7.610 -0.1729  0.0115  0.0642
36956W        W45756  17.157   4.318  10.110  0.2867 -0.1678  0.1551
36957W        W45757  16.766   7.788   1.556  0.0620  0.0555  0.0678
36958W        W45758   4.965   1.775  20.933  0.1664 -0.2357  0.1427
36959W        W45759  20.776   7.509   4.290 -0.0517  0.0482 -0.3587
36960W        W45760  28.364   4.360  19.077 -0.0625  0.2224 -0.6355
36961W        W45761   3.899   3.684  19.963  0.0936 -0.1905  0.0233
36962W        W45762   4.921   1.411  24.344  0.1980  0.2054  0.0731
36963W        W45763  13.257   1.582   2.731 -0.0541  0.4538  0.3009
36964W        W45764   2.125   0.596  14.690 -0.3614  0.2453 -0.1771
36965W        W45765   9.201   7.612  15.017 -0.1327 -0.0898 -0.0825
36966W        W45766  10.925   0.732  16.887 -0.0575 -0.0475  0.3560
36967W        W45767  20.786   2.052  18.441  0.1908  0.3519 -0.1601
36968W        W45768  13.093   4.331   5.240  0.0715 -0.3180  0.0109
36969W        W45769  21.690   0.621   5.247  0.1891 -0.0152  0.0865
36970W        W45770   3.949   5.920  22.103  0.1510 -0.1209 -0.2367
36971W        W45771  10.452   1.348  14.942  0.1676  0.0883  0.0798
36972W        W45772  20.503   2.862   6.310  0.0373 -0.0468 -0.2974
36973W        W45773   9.822   0.057  17.352  0.1366 -0.2612 -0.0485
36974W        W45774  13.100   5.918  25.794 -0.0554  0.2149  0.2616
36975W        W45775   6.724   6.993   8.880  0.3869  0.2158 -0.0401
36976W        W45776  20.213   1.452  21.832 -0.4370 -0.2881  0.0729
36977W        W45777   4.769   3.444   0.903 -0.1559  0.0086 -0.0396
36978W        W45778  16.043   3.352   6.035 -0.0536  0.0206  0.0034
36979W        W45779   3.002   0.832   0.095  0.1615  0.4025  0.1979
36980W        W45780   4.977   6.435   6.896 -0.1728 -0.0745 -0.0850
36981W        W45781  26.609   5.009  19.072  0.0929 -0.1000 -0.2336
36982W        W45782  13.987   1.865  18.928 -0.1187  0.0565  0.1614
36983W        W45783   7.850   4.444  21.929 -0.2551  0.4950 -0.1598
36984W        W45784   9.059   3.157   9.625 -0.2961  0.0522 -0.2097
36985W        W45785   3.366   6.700  25.552  0.1699  0.1465 -0.0434
36986W        W45786  23.813   3.555  16.464  0.1631  0.2907  0.0395
36987W        W45787   8.762   2.682   0.251  0.1707  0.1122 -0.0285
36988W        W45788  22.254   7.749  18.879 -0.1581 -0.0154  0.4232
36989W        W45789  16.574   0.375   9.806 -0.0607 -0.1974  0.1427
36990W        W45790  19.765   1.345  23.660  0.0947 -0.3596  0.1294
36991W        W45791   7.608   4.046  22.588 -0.2007 -0.0968  0.2042
36992W        W45792  21.640   7.529   9.750  0.2029 -0.1561  0.1466
36993W        W45793   5.562   6.374  19.200 -0.0605  0.1427 -0.1460
36994W        W45794  10.597   7.184  22.263  0.1871 -0.0086  0.3680
36995W        W45795  10.870   3.709   1.011 -0.0708  0.1861  0.0132
36996W        W45796   7.361   6.158   9.990  0.3153 -0.0189  0.2018
36997W        W45797   2.399   4.777  23.056 -0.1044  0.2300 -0.0753
36998W        W45798  23.807   1.233   9.675 -0.1803  0.1385 -0.0258
36999W        W45799   4.645   6.789  25.450 -0.1452 -0.1278  0.0871
37000W        W45800  27.058   5.872  18.821 -0.0737  0.1200 -0.1132
37001W        W45801   4.688   2.175   2.896 -0.3283  0.3598  0.1949
37002W        W45802   1.045   6.596   9.533  0.2821 -0.0557  0.0931
37003W        W45803   2.879   0.659   7.631 -0.2146  0.2339  0.3061
37004W        W45804   0.160   3.872   0.130  0.2294 -0.2156 -0.0755
37005W        W45805  27.921   3.902  18.027 -0.2734 -0.1672  0.0549
37006W        W45806   4.421   0.436  24.656 -0.0954 -0.1884  0.1165
37007W        W45807   9.167   4.666  15.220 -0.0584 -0.1757 -0.1250
37008W        W45808  19.800   7.816   7.277 -0.2937  0.1697 -0.1272
37009W        W45809  12.763   6.423   7.943  0.1285  0.2894 -0.2346
37010W        W45810  27.390   5.548   0.805  0.2826 -0.1201 -0.0593
37011W        W45811   2.749   5.944  17.056 -0.1652  0.1281  0.3172
37012W        W45812   5.130   7.856   1.108 -0.0967  0.1394  0.1331
37013W        W45813   7.754   7.306   3.670 -0.3559 -0.1933  0.2120
37014W        W45814   0.091   6.180  17.747 -0.0333  0.1971 -0.1865
37015W        W45815  10.811   0.121   4.944 -0.2052  0.2845 -0.2269
37016W        W45816  26.536   1.986   7.040 -0.2645  0.1047 -0.2283
37017W        W45817   4.791   0.737  25.549 -0.2400  0.1212 -0.1187
37018W        W45818  26.792   2.389  15.861 -0.0331  0.1533  0.1140
37019W        W45819   4.195   0.126  20.548  0.1684  0.1405 -0.2386
37020W        W45820  19.978   2.984  21.152  0.1489  0.3395  0.1545
37021W        W45821  20.883   7.562   3.429  0.1338  0.0060  0.3364
37022W        W45822  17.597   3.524  15.732  0.0664  0.2403 -0.0909
37023W        W45823  22.931   0.407  19.345  0.0424 -0.2088  0.0248
37024W        W45824  31.401   6.375  22.933  0.0736 -0.0489  0.2275
37025W        W45825   1.375   4.244  18.355 -0.1307  0.0993 -0.3206
37026W        W45826  19.563   4.390  18.932 -0.3248 -0.1195  0.0274
37027W        W45827  27.064   3.519  20.226 -0.2037 -0.0107 -0.3181
37028W        W45828   4.231   1.564   8.884 -0.4412  0.1675 -0.1304
37029W        W45829  14.542   4.474  19.262  0.0319 -0.0648 -0.0234
37030W        W45830   1.118   2.716   1.659  0.1785  0.0576 -0.3312
37031W        W45831  29.036   7.211  17.581 -0.1819  0.0080  0.1125
37032W        W45832  23.912   2.838   1.288  0.3605  0.2008  0.1613
37033W        W45833  24.720   4.885  18.493  0.0979  0.0512 -0.3236
37034W        W45834   7.383   5.876   7.934 -0.1016  0.1334 -0.0618
37035W        W45835  27.684   6.259   7.122 -0.0816 -0.2397 -0.0269
37036W        W45836   6.897   5.079  16.915  0.0436 -0.0176 -0.3779
37037W        W45837   7.762   3.559   4.570 -0.1120  0.0164  0.4185
37038W        W45838  22.433   5.830   1.770 -0.1807  0.2394  0.0284
37039W        W45839  25.975   1.581  19.417  0.1633  0.3588 -0.0052
37040W        W45840   2.785   1.801  17.263 -0.1325 -0.4613  0.1006
37041W        W45841  18.646   6.043  18.129  0.0404 -0.1314 -0.1162
37042W        W45842  14.857   2.406  24.011  0.3159  0.0354  0.1338
37043W        W45843   5.784   0.288  10.615 -0.1504  0.0560 -0.2824
37044W        W45844   5.508   6.270  23.690 -0.1203 -0.1722  0.2253
37045W        W45845  25.987   4.375  24.603 -0.0540 -0.0238  0.1477
37046W        W45846  27.020   4.251   7.683 -0.0708 -0.0456  0.2552
37047W        W45847  21.440   2.518  19.665 -0.0106  0.0968  0.2217
37048W        W45848  10.801   0.839   8.688 -0.4783 -0.1120  0.1637
37049W        W45849  16.009   1.277   2.779 -0.0396 -0.1904 -0.2569
37050W        W45850   5.923   2.747  15.645  0.3048  0.0814  0.0789
37051W        W45851  31.298   4.543   7.407 -0.0910 -0.2485  0.0097
37052W        W45852  31.406   1.266  14.609 -0.1050 -0.2258 -0.3018
37053W        W45853   1.026   4.918   0.951 -0.0945 -0.1401 -0.0150
37054W        W45854  22.569   6.961  19.746  0.0199 -0.1378  0.2319
37055W        W45855   6.302   4.057  17.535  0.0768  0.2133  0.1896
37056W        W45856   8.103   4.387  22.615 -0.2034 -0.1513 -0.0155
37057W        W45857  18.156   1.095  17.288 -0.1194 -0.1224 -0.2020
37058W        W45858   6.918   0.593  20.738  0.1868 -0.1049 -0.2546
37059W        W45859  13.797   7.673  22.714 -0.1893  0.0177 -0.0603
37060W        W45860   1.010   1.801  25.852 -0.3395  0.1844 -0.1728
37061W        W45861   1.120   1.158   5.203  0.1851 -0.0588  0.0005
37062W        W45862  11.729   5.265  20.407 -0.0527 -0.2738 -0.1453
37063W        W45863  22.720   1.557  22.641  0.1009  0.1965  0.0486
37064W        W45864   6.982   5.536  25.001  0.0689 -0.1927 -0.0804
37065W        W45865  21.114   0.437   5.888 -0.1048  0.1561  0.1867
37066W        W45866   7.909   7.472  23.222 -0.2196 -0.1224  0.2348
37067W        W45867   2.142   0.663   8.411  0.1710 -0.3606 -0.0918
37068W        W45868   7.452   3.666   5.034 -0.0867 -0.0780  0.0274
37069W        W45869  26.793   5.323   2.732 -0.0961 -0.0774 -0.0503
37070W        W45870  23.839   7.696   4.655 -0.3638  0.0339  0.1520
37071W        W45871  11.655   4.160   5.773  0.2850  0.0402 -0.0490
37072W        W45872  21.636   5.202   4.834 -0.0205 -0.0614 -0.2917
37073W        W45873   0.332   4.562   7.341  0.0245 -0.0075 -0.2482
37074W        W45874   3.221   0.594  16.833  0.2567 -0.0774  0.1900
37075W        W45875  18.934   7.814  22.923  0.1132 -0.0141  0.0314
37076W        W45876   0.111   7.493   1.316 -0.0501 -0.2169  0.0907
37077W        W45877   0.300   7.625   2.741 -0.1588  0.2829  0.1230
37078W        W45878   9.813   2.880  20.339  0.0653 -0.1967 -0.1258
37079W        W45879  17.446   1.226   4.201 -0.0311  0.0360  0.3226
37080W        W45880  15.249   1.374  24.006 -0.2288  0.2819 -0.1098
37081W        W45881   3.753   5.726   8.990  0.1277 -0.0151  0.3240
37082W        W45882   2.943   4.223  25.734 -0.2094  0.3668  0.0986
37083W        W45883  15.732   1.044   9.815 -0.0178 -0.1599  0.1644
37084W        W45884  29.812   4.411  17.094  0.2482 -0.0127 -0.2618
37085W        W45885  12.696   1.717   1.821  0.0851  0.1499  0.0687
37086W        W45886  19.599   2.771   9.231  0.1333 -0.0607  0.2315
37087W        W45887  20.833   4.544   8.296  0.1180 -0.0135 -0.0913
37088W        W45888   3.890   6.134  25.802 -0.0060  0.2370  0.0464
37089W        W45889  30.727   6.585  20.342 -0.0052 -0.0782  0.0609
37090W        W45890  30.213   5.455  25.454  0.0039 -0.2681 -0.0279
37091W        W45891   8.043   5.548   0.982  0.2000  0.0605 -0.3800
37092W        W45892   9.215   6.001   8.851 -0.0455  0.1371 -0.1831
37093W        W45893  17.544   2.161   3.773  0.2832 -0.0134 -0.1242
37094W        W45894  21.163   4.625   7.378  0.2545  0.0586  0.0234
37095W        W45895   3.656   5.510  23.430 -0.0981  0.0112  0.0164
37096W        W45896  29.650   0.498   6.671  0.0147 -0.0729  0.1681
37097W        W45897  31.112   3.539   7.874 -0.2248  0.0031 -0.1356
37098W        W45898  25.551   7.630  19.059  0.2011  0.0302 -0.1593
37099W        W45899  30.313   6.100  16.604  0.0356  0.0404 -0.0693
37100W        W45900   5.826   6.898   1.249  0.2610 -0.0687 -0.0025
37101W        W45901   7.912   6.898  21.409  0.2062  0.1587  0.2592
37102W        W45902  20.906   4.669   6.680 -0.0287 -0.0967 -0.1144
37103W        W45903  23.394   3.536  18.054  0.0002  0.0944  0.2986
37104W        W45904  18.933   6.718  10.642  0.0355  0.1331 -0.1940
37105W        W45905  11.940   1.936  19.865 -0.2595  0.1093  0.0574
37106W        W45906   4.694   1.281  24.780  0.0778 -0.2800 -0.1824
37107W        W45907  29.152   2.669   6.266 -0.1650  0.4452 -0.4803
37108W        W45908  22.169   1.758   9.210  0.1741 -0.2290 -0.1390
37109W        W45909   6.985   4.218  17.197 -0.0573  0.1483 -0.2147
37110W        W45910  18.420   4.959  10.269 -0.1070 -0.2016  0.0073
37111W        W45911  10.436   4.466  17.710  0.0165  0.2835  0.0780
37112W        W45912  21.537   5.064  20.251  0.1039 -0.0645  0.1265
37113W        W45913  16.018   0.752  17.353 -0.1019 -0.0978  0.1189
37114W        W45914  26.380   5.858   4.265 -0.0192 -0.0744  0.0162
37115W        W45915   6.270   3.211   3.794 -0.0095  0.0851  0.2382
37116W        W45916  29.433   3.324  16.451 -0.1317  0.1229  0.3705
37117W        W45917   2.415   1.519   7.105 -0.0045 -0.0196  0.0580
37118W        W45918   2.902   0.170  25.528  0.0913 -0.0995  0.3333
37119W        W45919   5.966   2.917   6.915  0.1123 -0.1092 -0.2777
37120W        W45920  11.997   2.902   0.356 -0.1568 -0.1805  0.0265
37121W        W45921  28.723   5.933  10.344  0.0850  0.0717 -0.0373
37122W        W45922  29.023   0.098   4.230  0.0785 -0.2877 -0.2995
37123W        W45923  17.939   3.949  22.484  0.3743 -0.1818  0.1281
37124W        W45924  14.485   1.912  23.859  0.1471 -0.1723  0.1832
37125W        W45925   4.163   5.189  20.029 -0.0046 -0.0883  0.0271
37126W        W45926  20.068   7.184   9.998  0.2253  0.2701 -0.2841
37127W        W45927  10.661   6.662  11.271  0.2585  0.4450  0.4038
37128W        W45928  19.054   6.863   4.702 -0.0520  0.0278  0.4172
37129W        W45929  30.231   5.997  18.731  0.2678  0.2215  0.0883
37130W        W45930  19.335   3.138   0.946  0.0045  0.0677  0.0722
37131W        W45931  19.329   0.722  17.057  0.1320 -0.4150  0.1525
37132W        W45932  30.857   6.004   0.221  0.0175 -0.2097 -0.0880
37133W        W45933  23.145   3.359   9.832 -0.2011 -0.1845  0.0537
37134W        W45934  15.833   6.243   9.981  0.0694  0.0340 -0.0193
37135W        W45935  27.798   6.639  20.407 -0.2693  0.2299  0.3085
37136W        W45936  20.274   3.462   7.756 -0.0143  0.3313  0.0219
37137W        W45937  13.975   5.547  22.039  0.1559  0.2230 -0.0539
37138W        W45938   7.321   1.537  24.705  0.3742  0.0244 -0.0027
37139W        W45939  26.947   0.435   1.912  0.0094 -0.1350  0.1028
37140W        W45940  21.570   7.707   2.788 -0.0393  0.2027  0.0507
37141W        W45941  18.733   0.350  24.488 -0.1844 -0.3696  0.3955
37142W        W45942   8.828   5.153   7.810  0.0632  0.0841 -0.0736
37143W        W45943   8.372   5.132  25.008  0.2198  0.0985  0.3161
37144W        W45944  15.540   4.471  21.702 -0.2154 -0.0732 -0.2368
37145W        W45945  20.926   2.525   2.972  0.3554 -0.2178 -0.0266
37146W        W45946  18.762   3.354  11.103  0.2695 -0.4194  0.0239
37147W        W45947   3.205   6.396   9.178 -0.0964 -0.1234 -0.0515
37148W        W45948   5.377   6.737  21.256  0.1563  0.0802  0.2749
37149W        W45949  28.511   4.556  22.159  0.0575 -0.0905  0.0523
37150W        W45950  12.245   4.019  18.433 -0.2424 -0.3415  0.0997
37151W        W45951   9.764   3.115  20.844 -0.0965 -0.0126 -0.0847
37152W        W45952  29.793   0.993   6.647  0.0507 -0.1958  0.2044
37153W        W45953  22.928   6.558  22.684  0.1724  0.0731 -0.0471
37154W        W45954   4.908   3.243  10.371 -0.0372 -0.2500 -0.0694
37155W        W45955  18.058   5.904   2.693 -0.1226  0.2328 -0.1674
37156W        W45956  10.771   7.465  20.822 -0.0888  0.4025 -0.1055
37157W        W45957  22.953   3.824  19.078 -0.0083 -0.1660 -0.1618
37158W        W45958  14.833   2.215  23.087 -0.1291  0.0143 -0.4535
37159W        W45959   0.936   5.326   4.008 -0.2961  0.3294  0.4957
37160W        W45960  15.683   0.263   7.703  0.1061 -0.0487  0.0329
37161W        W45961  12.718   5.915   6.337 -0.2152  0.1704  0.1150
37162W        W45962  26.421   7.447   2.143 -0.1128 -0.2060 -0.1893
37163W        W45963   3.029   0.689  24.045  0.4198  0.1315 -0.2808
37164W        W45964   4.129   2.982   2.835  0.0647  0.0745 -0.0488
37165W        W45965  18.339   1.985   5.026  0.0223 -0.1025 -0.2144
37166W        W45966  15.045   3.719   2.188  0.2802 -0.1864  0.1256
37167W        W45967  12.980   4.069  19.974 -0.0450  0.0540  0.2541
37168W        W45968  16.229   5.998   2.858  0.3028 -0.0913 -0.3960
37169W        W45969  12.962   2.168   5.073  0.0930 -0.0101  0.0132
37170W        W45970  19.181   6.094   9.518 -0.2375  0.1922  0.2183
37171W        W45971  15.081   3.450  24.245 -0.0287  0.3385  0.2267
37172W        W45972  23.808   3.836  22.114  0.1856  0.0130 -0.0940
37173W        W45973  26.972   2.206   5.870  0.1627  0.1279  0.1978
37174W        W45974   2.055   0.723   1.703  0.2406  0.0470  0.1721
37175W        W45975   4.452   2.945   3.796  0.0602  0.0551 -0.1854
37176W        W45976  29.990   3.594  14.388  0.0947  0.0320  0.0545
37177W        W45977  26.185   3.810  10.525 -0.1163  0.1009  0.1786
37178W        W45978  17.600   4.648  24.130  0.1305  0.1530 -0.3110
37179W        W45979   1.180   6.650   8.376 -0.2187  0.2215 -0.0225
37180W        W45980  29.885   3.391   4.322  0.1010 -0.2087 -0.3809
37181W        W45981  25.278   6.545   6.169 -0.1752 -0.0679  0.0565
37182W        W45982  26.900   4.358   0.605  0.3676  0.0195 -0.1466
37183W        W45983   2.901   2.609   2.053  0.0626 -0.0339  0.1853
37184W        W45984  21.565   2.251   6.882  0.2156  0.2371  0.0472
37185W        W45985  24.844   5.359  23.448  0.0887 -0.0293 -0.2053
37186W        W45986  22.740   7.166  14.994 -0.1355  0.0646  0.2284
37187W        W45987  16.821   5.273   0.145  0.0019 -0.0879 -0.1802
37188W        W45988  27.386   5.061   0.952  0.3572  0.0551  0.0152
37189W        W45989   8.608   0.330  21.844  0.0293 -0.1183  0.2563
37190W        W45990  21.610   7.552  15.335  0.0767  0.0609 -0.0773
37191W        W45991  10.055   0.238   4.961  0.1145  0.2354 -0.1048
37192W        W45992   7.515   1.494   0.922 -0.0422 -0.1499  0.3551
37193W        W45993   7.941   3.272  15.821 -0.0477  0.0888 -0.2748
37194W        W45994  23.725   3.855  21.257  0.2245 -0.2207  0.3713
37195W        W45995  30.173   2.486   1.190 -0.0322 -0.1186  0.1855
37196W        W45996  26.749   5.989   5.282 -0.4179  0.0661 -0.2078
37197W        W45997  22.958   3.460   6.575 -0.1064  0.2643 -0.5348
37198W        W45998  12.020   3.109   8.280 -0.1872  0.2528  0.0173
37199W        W45999  13.071   7.723  17.755 -0.0337  0.0283 -0.0816
37200W        W46000   8.165   2.312  24.594 -0.0473  0.5078  0.3537
37201W        W46001  27.247   1.485  16.520 -0.1015 -0.0452 -0.0819
37202W        W46002  16.288   5.764  21.964  0.0478 -0.0883  0.0815
37203W        W46003  19.787   3.455  21.008  0.1743 -0.3877  0.0010
37204W        W46004  24.479   1.475  16.720 -0.0905  0.2428 -0.0602
37205W        W46005   9.679   0.425  21.112  0.0810 -0.2337  0.2434
37206W        W46006  26.558   0.466  18.399  0.1446 -0.0921 -0.1610
37207W        W46007  14.997   5.681  23.100 -0.0024 -0.1648  0.3279
37208W        W46008  15.477   7.617  17.092 -0.0555  0.1803  0.1706
37209W        W46009  31.367   0.093  25.713 -0.0011  0.1131 -0.1230
37210W        W46010  13.047   0.667   8.536 -0.0907 -0.3359 -0.2858
37211W        W46011  20.255   6.328   7.108  0.0269 -0.2168 -0.2247
37212W        W46012  19.491   0.486   2.749  0.1658  0.1194  0.1328
37213W        W46013   8.893   6.994  18.890 -0.0679  0.2060  0.1357
37214W        W46014  12.677   0.552   5.837 -0.4059  0.1955 -0.0075
37215W        W46015  29.273   1.090  21.424 -0.1615  0.1240  0.2628
37216W        W46016  10.406   2.139  23.498  0.0808  0.0645 -0.2150
37217W        W46017  18.444   3.529  15.932  0.2835 -0.2302  0.0778
37218W        W46018  26.964   7.710   8.880 -0.3462 -0.1211 -0.0862
37219W        W46019  25.860   4.199  25.052  0.2161  0.0216  0.1159
37220W        W46020  26.001   3.927  19.491 -0.1725  0.2248 -0.5319
37221W        W46021  30.728   2.587   8.941 -0.2489 -0.0329  0.0319
37222W        W46022  20.570   4.951  21.747  0.1336  0.3656  0.2350
37223W        W46023   6.287   7.250  16.171 -0.0248 -0.1911 -0.0303
37224W        W46024  25.771   6.285  18.114  0.0850 -0.0980  0.2176
37225W        W46025  26.746   7.071   1.437 -0.0088 -0.5939 -0.3964
37226W        W46026   6.178   1.707   8.586  0.1896  0.1993 -0.0928
37227W        W46027  17.936   4.730  21.844 -0.3090  0.0700  0.1437
37228W        W46028  23.587   1.842  22.149 -0.1455 -0.3217 -0.1041
37229W        W46029  11.271   6.346   1.086  0.2349 -0.2148  0.0692
37230W        W46030   7.414   3.023   1.627  0.0084  0.1206 -0.0633
37231W        W46031  25.248   5.059   1.317 -0.0428 -0.0979  0.3512
37232W        W46032   8.707   3.669  26.057 -0.0504 -0.4432 -0.1225
37233W        W46033  16.602   1.411   4.512 -0.3471 -0.1427  0.0437
37234W        W46034   7.847   0.227  20.900  0.0429 -0.0865  0.0600
37235W        W46035   7.702   3.919  25.740  0.0133  0.2330 -0.1797
37236W        W46036   6.889   7.455  20.533 -0.1964 -0.0529 -0.1372
37237W        W46037   4.895   2.734   9.887 -0.2376  0.0164  0.0683
37238W        W46038  22.126   3.502   3.806 -0.2170 -0.1348  0.0746
37239W        W46039  24.538   7.526  10.855  0.0315  0.2225 -0.2428
37240W        W46040   0.748   2.181   9.463 -0.0170 -0.1512  0.0113
37241W        W46041   3.781   4.089   2.131 -0.1019  0.1377  0.1103
37242W        W46042   3.080   7.604   1.603  0.0553 -0.2116  0.1237
37243W        W46043   6.782   4.803   8.635  0.0119 -0.1346  0.0514
37244W        W46044  31.197   7.795  24.702 -0.0101  0.1292  0.1130
37245W        W46045   5.896   7.576  25.545  0.0511  0.0130  0.1089
37246W        W46046  26.468   0.233   5.220  0.0003  0.2106  0.1237
37247W        W46047  11.923   1.598  10.340 -0.1816 -0.1841  0.2278
37248W        W46048  25.595   0.184   8.139 -0.3021  0.1984  0.2085
37249W        W46049   2.068   4.005   1.546  0.0263  0.1504 -0.2427
37250W        W46050   4.521   2.525  15.083 -0.1010 -0.1072 -0.0572
37251W        W46051  10.413   0.199  18.161 -0.3125  0.0476 -0.0888
37252W        W46052   0.355   2.461  24.427 -0.0855 -0.1218  0.0289
37253W        W46053  22.527   4.938  23.773 -0.1654 -0.0186 -0.3605
37254W        W46054  30.392   1.765   2.373  0.0389  0.3370 -0.1064
37255W        W46055  30.594   5.578   3.279  0.2693  0.1462 -0.1729
37256W        W46056   9.503   1.619  10.844  0.2696  0.0425  0.1380
37257W        W46057   8.776   0.152   1.537  0.2517 -0.0081 -0.4126
37258W        W46058   0.303   7.572  20.715 -0.0088 -0.0328 -0.2395
37259W        W46059  22.116   4.680  18.176 -0.1827  0.2104  0.3094
37260W        W46060  23.136   6.762   4.814 -0.1950  0.1414 -0.0306
37261W        W46061  20.439   7.859  24.605  0.0023  0.0527  0.3414
37262W        W46062  25.228   3.626  23.930  0.2270  0.1182  0.1044
37263W        W46063  20.283   4.832  24.692 -0.4291  0.0153 -0.1725
37264W        W46064   4.219   5.952  15.183  0.0630  0.1373 -0.2380
37265W        W46065  17.105   3.919   1.952 -0.1873  0.1876 -0.1062
37266W        W46066  18.691   5.674  22.790 -0.1594 -0.3134  0.5125
37267W        W46067   2.175   3.950  20.905  0.0183 -0.3191 -0.0006
37268W        W46068   9.428   6.005   4.556 -0.0971  0.0188  0.3082
37269W        W46069   6.440   4.798   7.582  0.0547 -0.0224  0.0437
37270W        W46070  14.407   6.591   1.006 -0.1563 -0.2336  0.0041
37271W        W46071  22.835   5.372  19.406  0.0833 -0.1060  0.3374
37272W        W46072  16.518   7.032   4.044 -0.1177 -0.0531  0.0803
37273W        W46073  25.315   1.861   8.058 -0.0800  0.0389 -0.0409
37274W        W46074  15.863   0.332  23.848  0.0194  0.0520  0.2418
37275W        W46075   7.992   3.872  11.063  0.0182  0.1806  0.0126
37276W        W46076  14.620   2.426   9.735 -0.2735 -0.0800  0.3250
37277W        W46077   7.004   3.247  22.940  0.0124  0.1175  0.1937
37278W        W46078  12.009   1.187  24.561 -0.1295 -0.1250 -0.0017
37279W        W46079  14.461   0.172  24.264 -0.2119  0.0045  0.1450
37280W        W46080  23.837   0.716   9.542  0.1230 -0.1464 -0.1015
37281W        W46081   4.334   5.285   9.404 -0.0247 -0.0190  0.0764
37282W        W46082  27.704   4.064  24.233  0.2960 -0.1967 -0.0348
37283W        W46083  14.902   5.394  18.793 -0.0739  0.0741  0.2066
37284W        W46084  12.053   6.972   3.462 -0.0700  0.1039 -0.2461
37285W        W46085  26.778   5.227   7.516  0.0859  0.2575  0.4214
37286W        W46086  19.044   2.350  19.689 -0.3655 -0.0348  0.5425
37287W        W46087   3.955   3.228   5.155 -0.0951  0.2273 -0.0730
37288W        W46088   2.459   5.168  17.109  0.0730 -0.0096 -0.3807
37289W        W46089  15.606   0.690  24.718 -0.0412 -0.0788 -0.0291
37290W        W46090   6.962   5.588  25.711  0.2427 -0.1076  0.0800
37291W        W46091  20.013   5.377   0.101 -0.0722  0.0302  0.1805
37292W        W46092  13.303   6.167  16.181  0.0201  0.1658 -0.1715
37293W        W46093   7.545   3.918   8.833 -0.0252  0.1058 -0.2972
37294W        W46094  27.697   4.992   9.791 -0.2418  0.0089 -0.0311
37295W        W46095  29.080   6.410   3.999  0.2100 -0.1710  0.0426
37296W        W46096   6.586   1.302  16.630 -0.1146 -0.1805  0.2156
37297W        W46097  20.314   2.676  20.430  0.1741  0.1151 -0.0203
37298W        W46098   0.030   4.046  16.605 -0.1613  0.1190 -0.0643
37299W        W46099  22.290   0.060  10.787 -0.0806  0.1695  0.1762
37300W        W46100  10.495   4.338   9.810 -0.1946 -0.0477 -0.1778
37301W        W46101  27.283   4.276  15.815  0.1496  0.2126 -0.3637
37302W        W46102   5.016   1.243   2.439 -0.0143 -0.0049  0.1463
37303W        W46103   1.122   6.203  15.876  0.1228  0.0933 -0.0845
37304W        W46104   7.470   0.947   1.682 -0.0944 -0.1918  0.0027
37305W        W46105  25.017   0.085  23.286 -0.1022 -0.0868 -0.2129
37306W        W46106   4.738   4.256  19.087 -0.1864  0.4174 -0.0937
37307W        W46107   8.639   5.633   4.095 -0.2815  0.1226 -0.0948
37308W        W46108  29.125   6.578   9.069  0.1622  0.2768 -0.0578
37309W        W46109   3.377   2.041  24.768 -0.6066 -0.3008  0.0788
37310W        W46110  12.082   3.476  11.114  0.0842  0.1434  0.2674
37311W        W46111  19.265   6.975   6.648  0.0092  0.0365  0.0848
37312W        W46112  16.894   0.907   7.819 -0.0006  0.1053 -0.4362
37313W        W46113  16.988   3.750  18.134 -0.3956  0.2762  0.0138
37314W        W46114   1.654   1.085   7.597  0.1975  0.0181  0.4485
37315W        W46115  21.137   3.717   6.253 -0.0769  0.0404 -0.1910
37316W        W46116  28.651   5.364  15.169 -0.0667 -0.2443 -0.2141
37317W        W46117  30.416   7.778  25.893  0.0564  0.1038 -0.2621
37318W        W46118   5.913   2.151  21.663 -0.3469 -0.2400  0.0597
37319W        W46119  17.268   1.108   5.585 -0.0003 -0.1611  0.0117
37320W        W46120  19.428   4.505   5.441  0.0144  0.0660 -0.1741
37321W        W46121   8.765   2.346  19.591 -0.3465 -0.0966  0.1539
37322W        W46122  29.822   2.189  25.179  0.1025 -0.0297 -0.3112
37323W        W46123  19.025   6.803  16.636  0.2199 -0.1631  0.1541
37324W        W46124  11.448   0.274  16.215  0.2880  0.1396  0.0334
37325W        W46125  15.836   3.069  23.706 -0.1403  0.2297  0.1020
37326W        W46126  28.880   7.541  25.361  0.1135 -0.0659  0.1099
37327W        W46127  15.922   4.291  16.044  0.0556 -0.0084  0.0276
37328W        W46128  26.687   1.226   7.383 -0.2796  0.1721  0.0397
37329W        W46129  12.681   3.501   9.785  0.1310  0.0655  0.1286
37330W        W46130  22.018   6.133  10.511 -0.1656  0.1315 -0.0254
37331W        W46131  16.530   3.147  23.095  0.0330  0.0009 -0.4578
37332W        W46132   8.862   0.124  10.090 -0.2399 -0.1124 -0.1483
37333W        W46133  29.275   0.811   5.950  0.1666 -0.1035 -0.2323
37334W        W46134  26.966   7.577  22.829 -0.0737 -0.1473  0.1115
37335W        W46135  30.654   5.246   4.496 -0.0243 -0.2025 -0.1310
37336W        W46136  28.499   4.465   9.798 -0.3021  0.0816  0.1174
37337W        W46137  29.325   5.381  20.601 -0.0344  0.1675  0.2287
37338W        W46138  14.488   0.487   6.138  0.4732  0.0704  0.0257
37339W        W46139  18.041   3.586  21.571  0.0535  0.3262 -0.1413
37340W        W46140  26.884   1.704   4.939  0.0146 -0.0969 -0.0258
37341W        W46141   8.173   5.355  21.043 -0.0627  0.2644  0.3080
37342W        W46142  22.582   7.794  21.441 -0.0752  0.0700  0.0202
37343W        W46143   3.537   7.324  17.734 -0.0782 -0.0616 -0.1149
37344W        W46144  14.733   2.859   2.372  0.0068  0.0457  0.2895
37345W        W46145   5.138   3.456  21.339  0.0598 -0.0417  0.0268
37346W        W46146  14.713   4.040   6.580 -0.2199 -0.0322  0.2291
37347W        W46147   2.273   1.397  16.478  0.0071  0.4149 -0.2819
37348W        W46148  12.524   6.243  19.092 -0.0419 -0.2571  0.2525
37349W        W46149  19.145   4.357   5.069 -0.0016 -0.0001 -0.0000
37350W        W46150   1.471   3.393  20.613 -0.0130  0.1140 -0.2642
37351W        W46151   4.949   1.572  22.936  0.0910 -0.0216 -0.0139
37352W        W46152  12.742   5.868  21.435  0.0456 -0.0884  0.4628
37353W        W46153  23.675   2.096  16.964 -0.4733 -0.2316 -0.0016
37354W        W46154  17.491   1.489  17.916 -0.0008 -0.0670  0.0822
37355W        W46155  27.011   2.511  16.401 -0.0823  0.0617  0.2278
37356W        W46156  29.887   2.206   9.220 -0.0084 -0.1262 -0.2798
37357W        W46157  14.986   0.512  16.059 -0.0040  0.0674  0.1918
37358W        W46158   8.450   2.761  22.527  0.0397  0.4966  0.0955
37359W        W46159   0.472   5.719   7.398 -0.3733 -0.0208  0.0797
37360W        W46160   4.040   2.200  19.675 -0.0736  0.0294 -0.0524
37361W        W46161   2.113   7.602   5.628 -0.1015  0.0444 -0.2737
37362W        W46162   4.292   0.307  15.971 -0.1915  0.1594 -0.1413
37363W        W46163  15.363   0.743   6.537  0.0623  0.1874 -0.3156
37364W        W46164   4.501   5.627  19.315  0.1592  0.1943 -0.0999
37365W        W46165   2.941   6.367   3.577 -0.2107  0.1213 -0.0101
37366W        W46166  15.491   0.141  20.207 -0.1788  0.0778  0.3237
37367W        W46167   9.618   4.073   7.815 -0.0611  0.1313 -0.1539
37368W        W46168  21.322   5.811  16.432  0.3317  0.3331  0.1041
37369W        W46169  10.683   6.356  19.556  0.2236  0.0197 -0.2464
37370W        W46170  23.536   2.097  18.083 -0.0866 -0.0353  0.1744
37371W        W46171  29.324   7.614  17.118 -0.2056 -0.0639 -0.0282
37372W        W46172  17.068   1.822   0.747  0.2545 -0.0194  0.2016
37373W        W46173  18.936   3.481   3.966 -0.2279  0.0562 -0.0021
37374W        W46174  28.043   0.130  17.406  0.3185  0.2581 -0.0634
37375W        W46175   8.964   7.015  23.725  0.2503 -0.0173 -0.0588
37376W        W46176  12.117   3.537   5.334 -0.0873  0.0400  0.0588
37377W        W46177   4.086   0.270  19.934 -0.0833 -0.2249 -0.2170
37378W        W46178  20.878   3.557   2.249  0.1957 -0.1457  0.0480
37379W        W46179  15.154   1.867  17.683 -0.1692  0.3641 -0.0465
37380W        W46180  12.271   0.165  23.318 -0.0001 -0.1029 -0.0998
37381W        W46181   5.445   7.481  10.109  0.2396  0.0884 -0.2786
37382W        W46182   8.147   5.509   2.814  0.1190 -0.0989 -0.1025
37383W        W46183   4.202   6.861  25.966 -0.0257  0.0836 -0.0664
37384W        W46184  29.948   1.912   0.374  0.0121  0.0824 -0.2974
37385W        W46185  26.022   7.235  18.869 -0.1071 -0.0694 -0.0083
37386W        W46186  18.726   4.581  18.086  0.2681 -0.2139  0.1495
37387W        W46187   5.244   4.353   0.449 -0.0395  0.1010 -0.0417
37388W        W46188  24.134   4.688  21.256 -0.1362  0.2514 -0.0191
37389W        W46189  31.313   2.747   1.829  0.0037  0.1018 -0.1421
37390W        W46190  28.996   2.113  22.277  0.0866  0.0576 -0.1705
37391W        W46191   4.546   3.798  25.860 -0.3191  0.3438 -0.1268
37392W        W46192  29.563   0.262  23.438 -0.1557 -0.0350  0.0765
37393W        W46193  15.203   1.934   7.289 -0.1446 -0.1978  0.1152
37394W        W46194  26.437   2.103   6.037 -0.1386  0.0184  0.1567
37395W        W46195  31.364   1.697  23.512  0.3110 -0.0780 -0.0533
37396W        W46196  25.123   0.426   2.724  0.2231 -0.0983  0.0875
37397W        W46197  25.681   3.922   0.299  0.2155 -0.0258 -0.1695
37398W        W46198  11.094   3.647  20.628 -0.1928 -0.0217  0.2416
37399W        W46199   2.457   6.939  14.352 -0.0459 -0.3234 -0.0923
37400W        W46200   6.786   6.334  22.600 -0.2137  0.0423 -0.0714
37401W        W46201  24.492   6.299   0.301 -0.0243 -0.0685 -0.0332
37402W        W46202   5.322   0.069  23.037 -0.1800 -0.0184 -0.4069
37403W        W46203  14.621   5.710  10.953  0.0255 -0.1646 -0.3260
37404W        W46204  13.699   0.018   7.279 -0.0043  0.1619  0.0085
37405W        W46205   5.674   2.489  20.615  0.2490  0.1912 -0.0618
37406W        W46206   8.656   6.818   0.528  0.0089  0.0645  0.1423
37407W        W46207  27.535   2.102   9.907 -0.2307 -0.1964 -0.1633
37408W        W46208   6.538   7.538   0.237  0.0126 -0.1813 -0.2601
37409W        W46209  16.009   4.698  22.548  0.3089 -0.3169  0.0804
37410W        W46210   1.967   2.211   0.073  0.0082  0.2204 -0.2787
37411W        W46211  30.483   7.029   8.205  0.1902  0.0748 -0.2510
37412W        W46212   0.192   6.280   6.042  0.0585 -0.1226  0.0600
37413W        W46213  14.033   2.736  17.075  0.2265 -0.0270 -0.2055
37414W        W46214  15.171   6.584   8.026 -0.0437 -0.0513 -0.1275
37415W        W46215  25.281   1.463   0.854  0.2921  0.3395  0.1392
37416W        W46216  11.184   1.326   3.958 -0.0073 -0.1281  0.1210
37417W        W46217   7.000   4.660  23.673  0.0970  0.2994 -0.2511
37418W        W46218  27.394   0.758  17.838  0.1301  0.0944  0.1329
37419W        W46219  26.525   7.193  14.834  0.0006 -0.1372 -0.0999
37420W        W46220  11.311   1.154  19.301 -0.1395  0.1425 -0.1362
37421W        W46221   5.955   0.430   2.623 -0.0478 -0.3370  0.1695
37422W        W46222   8.870   2.443  18.956  0.1090  0.1538  0.1821
37423W        W46223  17.620   2.539  18.905  0.0055  0.0836 -0.0919
37424W        W46224  23.728   1.392  10.580 -0.0773  0.0284 -0.1005
37425W        W46225   5.202   5.829   2.239 -0.0701 -0.0166 -0.3319
37426W        W46226  24.987   3.613   5.093 -0.1586 -0.1510  0.1378
37427W        W46227   8.639   1.574   4.986 -0.1342 -0.3363 -0.1918
37428W        W46228   5.119   3.501  24.953 -0.1216 -0.0117  0.0242
37429W        W46229   4.032   5.625  21.003 -0.0875 -0.0967 -0.2235
37430W        W46230  11.665   2.846  16.359 -0.1857 -0.0597 -0.1473
37431W        W46231   2.727   4.447   9.390  0.0780  0.0634 -0.1281
37432W        W46232  17.186   0.087   6.889 -0.1116  0.0085  0.0588
37433W        W46233  29.773   5.031  17.176 -0.3995  0.1136 -0.2390
37434W        W46234  30.728   4.516   8.595 -0.2770  0.0203 -0.0943
37435W        W46235  13.326   4.017   1.582 -0.1191 -0.3803  0.0900
37436W        W46236  26.970   4.756  25.751  0.0681 -0.1442  0.0670
37437W        W46237   9.230   1.425  17.105  0.0105 -0.1506  0.1494
37438W        W46238   7.068   0.172  15.878 -0.0063 -0.1687 -0.3119
37439W        W46239  23.615   3.900  22.936 -0.3468 -0.1881 -0.0004
37440W        W46240  20.083   3.702  17.695  0.0302  0.0476  0.2378
37441W        W46241   0.644   7.014   9.597  0.1514 -0.0086 -0.2810
37442W        W46242   1.430   6.812   2.567  0.2090 -0.0666 -0.0690
37443W        W46243  21.265   1.437  23.057  0.1247  0.1566  0.2857
37444W        W46244  29.324   7.825  19.358 -0.4108 -0.0532 -0.3764
37445W        W46245  24.321   4.454   1.778 -0.2953 -0.1368 -0.3381
37446W        W46246  23.553   2.188   0.770 -0.1502  0.2006 -0.1388
37447W        W46247  11.991   1.588  19.434  0.0267  0.0364  0.2112
37448W        W46248  10.179   3.675  21.237 -0.0147 -0.0794  0.0272
37449W        W46249  30.839   5.456   2.085 -0.0775  0.2578  0.0665
37450W        W46250   0.305   2.493   1.928 -0.2096  0.0068  0.4070
37451W        W46251  14.598   5.771  19.563  0.3403 -0.0655  0.1178
37452W        W46252  27.391   1.037   1.902 -0.1809 -0.1512 -0.0808
37453W        W46253  25.660   2.277   1.144  0.4894  0.0383  0.0693
37454W        W46254   7.412   3.948  21.307  0.0074  0.1229 -0.1363
37455W        W46255   4.850   1.308  21.686 -0.2897 -0.0918 -0.0257
37456W        W46256   8.081   2.026   9.194 -0.1457  0.0262  0.3469
37457W        W46257  10.822   6.810   4.089  0.1107  0.0368 -0.4721
37458W        W46258  17.220   0.083  20.222  0.3909  0.1076  0.3891
37459W        W46259  16.256   0.834  15.098 -0.0102 -0.1075  0.4402
37460W        W46260   6.894   0.780   8.408  0.0234 -0.1138 -0.2803
37461W        W46261  18.191   4.099   3.302 -0.2513 -0.0894  0.1773
37462W        W46262  29.342   2.730   5.744 -0.3184 -0.1371  0.3427
37463W        W46263  11.537   7.302  18.587 -0.1335 -0.1566 -0.0541
37464W        W46264  24.312   6.339   5.359  0.0016 -0.1778 -0.1202
37465W        W46265  12.675   2.340  18.388  0.1139 -0.1504 -0.0637
37466W        W46266   0.191   7.784   9.397  0.2179  0.0700  0.1044
37467W        W46267   8.325   1.414   1.654 -0.0291  0.0558 -0.0111
37468W        W46268   2.452   3.312  21.712  0.1381  0.2255  0.2686
37469W        W46269  23.617   7.582   6.680  0.2807 -0.0176  0.1067
37470W        W46270  22.994   5.102  23.901 -0.1972 -0.0284  0.1295
37471W        W46271  28.652   1.716  21.337 -0.1553 -0.0655  0.1442
37472W        W46272  18.634   5.437   7.317 -0.1639  0.2561  0.0239
37473W        W46273  25.018   3.853   1.960 -0.0932  0.0306 -0.0102
37474W        W46274  20.084   2.997   9.298  0.0145  0.3156  0.5617
37475W        W46275  21.780   4.890  25.919 -0.3009 -0.1408  0.1878
37476W        W46276  27.600   5.518  23.903 -0.0630  0.0345 -0.0671
37477W        W46277  10.526   3.630   7.288 -0.2071 -0.2807 -0.0164
37478W        W46278   8.612   4.570  20.168 -0.2425 -0.0662 -0.1711
37479W        W46279  23.400   0.652  24.887 -0.2737  0.1070  0.1116
37480W        W46280  11.152   1.203  18.103 -0.1238 -0.2905 -0.0678
37481W        W46281  17.900   1.478  21.714 -0.2548 -0.0391  0.0440
37482W        W46282  30.117   5.533  24.220 -0.0391 -0.0691  0.4659
37483W        W46283   2.781   5.664  22.889 -0.2146 -0.1058 -0.0715
37484W        W46284  26.288   7.839   7.531 -0.0380 -0.0227 -0.0576
37485W        W46285   3.393   0.239  24.800  0.2508 -0.3287  0.3119
37486W        W46286   7.025   3.170   4.460  0.0648  0.0332  0.0554
37487W        W46287  16.354   7.484  10.478 -0.1411  0.1293 -0.1206
37488W        W46288  30.288   6.999  18.248  0.0174 -0.0012 -0.0467
37489W        W46289  24.472   5.900   1.293  0.0632  0.1572  0.2066
37490W        W46290  18.209   7.083  11.727  0.1469 -0.3339  0.3671
37491W        W46291   9.757   3.092  23.709 -0.1465 -0.3474 -0.1402
37492W        W46292  22.634   5.424  18.552  0.0243  0.0143  0.0050
37493W        W46293  10.219   1.671  18.784  0.2636  0.1521 -0.0489
37494W        W46294  20.256   1.281  23.224 -0.2289 -0.1484  0.1583
37495W        W46295   1.866   4.204  16.702  0.2291 -0.0407 -0.2902
37496W        W46296   3.357   0.600   8.442 -0.1963  0.0698  0.2426
37497W        W46297   1.961   7.203   4.268 -0.0095  0.0698  0.2047
37498W        W46298   0.551   3.767   8.250  0.0095 -0.0001 -0.0142
37499W        W46299  18.114   6.681  23.054  0.0836  0.3916 -0.0005
37500W        W46300   7.593   4.444   7.790  0.4390  0.2968  0.0721
37501W        W46301  12.090   6.427   9.316 -0.1175 -0.0361 -0.1023
37502W        W46302  27.727   2.434   3.411  0.0668 -0.0711  0.2606
37503W        W46303  27.058   3.680   5.918  0.2643  0.0566  0.0672
37504W        W46304  15.784   6.130  18.901  0.0212  0.2205  0.1101
37505W        W46305  12.875   7.513  18.751 -0.2720 -0.0212 -0.0442
37506W        W46306   6.082   4.145  17.991  0.1097 -0.1490 -0.0403
37507W        W46307  29.851   5.512   0.876  0.1899 -0.2019 -0.1219
37508W        W46308   5.588   7.484  18.508 -0.1054  0.0767 -0.3085
37509W        W46309  29.478   7.536   1.605 -0.2518  0.0361 -0.2757
37510W        W46310  28.565   7.642   5.559  0.1627 -0.0615  0.2429
37511W        W46311   5.391   5.286   5.202 -0.0011 -0.2193  0.0290
37512W        W46312  19.841   6.851  24.254 -0.0245  0.2216 -0.1787
37513W        W46313   3.624   6.451   3.185 -0.1884 -0.1890  0.3155
37514W        W46314  30.644   4.155  14.962 -0.2495 -0.2070 -0.2121
37515W        W46315  27.445   6.150  17.620 -0.1326 -0.0819 -0.1837
37516W        W46316  20.225   2.469  17.835 -0.0048  0.0707 -0.1284
37517W        W46317  22.286   1.540   8.763  0.1194 -0.0874 -0.1319
37518W        W46318  18.995   2.666  20.046 -0.0040 -0.1045  0.2860
37519W        W46319  31.054   3.377  18.506  0.0146  0.2162  0.3546
37520W        W46320  24.770   5.237  10.348 -0.1447 -0.0973 -0.1506
37521W        W46321  24.398   2.263   6.021 -0.0937 -0.2741 -0.1716
37522W        W46322   8.677   1.030  22.545  0.0215  0.0200 -0.0622
37523W        W46323   3.449   1.567   2.199  0.0859  0.1714 -0.1621
37524W        W46324   5.040   2.287  15.753 -0.1359 -0.2463 -0.0417
37525W        W46325  10.102   5.249  16.601 -0.0893  0.1450  0.0407
37526W        W46326  29.217   2.777  25.033 -0.2219  0.0327  0.2523
37527W        W46327  12.335   3.583   1.715 -0.0854 -0.0555  0.2314
37528W        W46328   8.905   0.242  25.277 -0.2793  0.0297  0.0761
37529W        W46329  10.505   5.686  18.176  0.0628  0.1127 -0.2575
37530W        W46330  28.416   0.313   6.210  0.2120  0.0106  0.2930
37531W        W46331  24.848   6.321  18.689  0.2124  0.1803 -0.2747
37532W        W46332  28.304   7.266  16.803 -0.0250  0.0844  0.0294
37533W        W46333  25.647   2.053   9.190 -0.0056 -0.3735  0.1543
37534W        W46334  21.400   0.167   6.240  0.2856 -0.0455  0.1607
37535W        W46335   8.714   0.358  15.459 -0.0967 -0.0782 -0.5360
37536W        W46336   0.487   1.701  16.293  0.0354  0.0053  0.1896
37537W        W46337   3.466   6.092   7.693 -0.0227  0.2599 -0.2307
37538W        W46338   4.335   1.761  24.860 -0.0616  0.0869 -0.0311
37539W        W46339  11.260   2.775  19.015 -0.0561 -0.2083  0.2179
37540W        W46340  26.582   1.188   8.598 -0.0327 -0.2404 -0.2888
37541W        W46341   6.855   0.537   9.982 -0.0185 -0.1110  0.0600
37542W        W46342  19.581   2.877   7.497 -0.2057  0.1089 -0.0867
37543W        W46343  24.521   1.355  15.847  0.0857  0.3793 -0.1331
37544W        W46344  11.901   3.785  10.731  0.1498 -0.0341  0.2613
37545W        W46345   5.498   2.549  10.342 -0.2830  0.1402  0.0508
37546W        W46346  18.779   6.638   0.428  0.0713  0.0890 -0.2307
37547W        W46347  14.702   2.025  19.857 -0.1500  0.0730  0.0836
37548W        W46348  25.551   1.998  25.814 -0.1005  0.0998  0.0582
37549W        W46349  18.347   1.538  21.987 -0.1365  0.3004 -0.0924
37550W        W46350   1.286   6.973   3.700  0.1685 -0.0985 -0.0945
37551W        W46351  22.870   0.067   2.043 -0.0022  0.0748 -0.2084
37552W        W46352  17.570   5.824   3.153 -0.0235  0.1014  0.3676
37553W        W46353  11.533   0.351  25.881  0.1694  0.0521  0.0221
37554W        W46354  19.270   2.068   4.359  0.1676 -0.4005  0.3089
37555W        W46355   6.464   2.800   7.138 -0.1565 -0.0133 -0.0110
37556W        W46356  10.358   4.717   6.047  0.1683 -0.0704  0.1236
37557W        W46357  22.973   3.049  24.404  0.0306  0.0684  0.0788
37558W        W46358  16.109   6.548  21.028  0.1963  0.0489 -0.0569
37559W        W46359   9.141   0.965   9.194  0.4818 -0.4853 -0.2288
37560W        W46360   2.665   6.238  16.144 -0.1918  0.5686 -0.0841
37561W        W46361  21.130   7.259  19.606  0.0647  0.2318 -0.0707
37562W        W46362  17.588   3.773   4.024 -0.0646 -0.1594  0.1696
37563W        W46363  13.203   4.718  19.430 -0.1818 -0.0877  0.2825
37564W        W46364  22.053   7.015   4.088  0.1159 -0.3434  0.0060
37565W        W46365  14.146   0.375   9.136  0.0957  0.1873 -0.0372
37566W        W46366  15.537   4.625  24.515  0.0970 -0.0583 -0.4302
37567W        W46367   9.911   2.625   1.642  0.2020  0.0898 -0.0724
37568W        W46368  14.742   5.512   0.409  0.1008  0.0188 -0.1167
37569W        W46369   8.973   0.071  21.026 -0.3299 -0.0887 -0.4118
37570W        W46370  24.795   2.109  16.069 -0.0643  0.0417  0.0608
37571W        W46371  15.728   0.846  19.707  0.2997  0.0551  0.1048
37572W        W46372  30.174   7.167   8.652  0.2345 -0.1096 -0.2021
37573W        W46373  10.619   0.248  17.288 -0.2549  0.1144 -0.3397
37574W        W46374   8.680   6.702  10.384 -0.0134  0.0241 -0.1653
37575W        W46375  29.162   2.991  19.950  0.2386  0.1245 -0.2382
37576W        W46376  11.645   6.734  17.162 -0.0642  0.0567  0.3359
37577W        W46377   1.091   2.267  15.759  0.0550  0.3753 -0.0255
37578W        W46378   1.967   5.092   1.374  0.0410  0.0970 -0.2338
37579W        W46379  25.528   6.668  24.682 -0.1347  0.1764  0.2937
37580W        W46380  28.318   2.643   4.044 -0.2763  0.0416 -0.0393
37581W        W46381  17.581   7.562  25.485 -0.0031 -0.2923  0.1625
37582W        W46382  13.948   2.089  25.663  0.1713 -0.1338 -0.0924
37583W        W46383  19.269   3.465   4.683 -0.0443 -0.0649 -0.0356
37584W        W46384   2.980   5.264  15.020  0.3856 -0.1427  0.3368
37585W        W46385  27.064   6.072   7.790 -0.2511  0.0380 -0.2033
37586W        W46386  12.088   1.969  10.038  0.1444 -0.1392  0.1567
37587W        W46387  16.206   4.424  15.631 -0.1062 -0.0719 -0.1679
37588W        W46388   0.631   4.382   4.779 -0.1363 -0.0228  0.0140
37589W        W46389   4.587   2.112  25.116 -0.2770  0.0036  0.0592
37590W        W46390  29.218   3.828  20.301  0.0918  0.0717  0.0616
37591W        W46391   6.550   2.100  17.786 -0.0961 -0.1529  0.1121
37592W        W46392   8.274   1.146  24.425 -0.0081 -0.1049  0.0848
37593W        W46393  16.086   7.300  17.513 -0.2293  0.1733 -0.3853
37594W        W46394   8.778   7.299  18.061  0.0527 -0.1886 -0.0571
37595W        W46395  23.491   0.733  15.400 -0.0632  0.0494  0.0946
37596W        W46396  23.005   2.272   0.152  0.0670  0.1758  0.1835
37597W        W46397   6.567   2.247  19.260 -0.2688 -0.0115 -0.1567
37598W        W46398  21.485   0.382   4.373  0.1478 -0.2479 -0.0612
37599W        W46399  31.278   1.260  20.236  0.1289  0.1781  0.2361
37600W        W46400  20.343   4.502  21.693  0.0782  0.1449 -0.0640
37601W        W46401  20.421   0.832   8.873 -0.2240 -0.1761 -0.3229
37602W        W46402   9.536   7.777  22.777  0.3877  0.0974  0.2575
37603W        W46403  24.579   3.347   0.674  0.4313 -0.0290 -0.1769
37604W        W46404  16.605   0.583   7.539  0.0371 -0.0682  0.0972
37605W        W46405  13.646   6.582  19.656  0.0172 -0.0815 -0.0106
37606W        W46406   6.527   4.292  24.954  0.0403 -0.1102  0.1036
37607W        W46407   5.646   4.015   8.725 -0.1246  0.1960 -0.2728
37608W        W46408  25.568   2.495   9.374 -0.0066 -0.1800  0.0387
37609W        W46409   8.471   0.960   1.385 -0.0522  0.3242  0.1643
37610W        W46410   7.151   5.665  22.013 -0.1189 -0.2818  0.0373
37611W        W46411  24.732   1.685  24.918  0.1511 -0.1849 -0.2047
37612W        W46412  24.415   5.931  24.669 -0.0510  0.0700  0.0809
37613W        W46413  26.922   4.951   7.125 -0.1815 -0.1470 -0.1895
37614W        W46414  23.128   3.441   2.430 -0.1292  0.0554 -0.0757
37615W        W46415  28.628   3.067  23.094 -0.0541  0.1173 -0.2776
37616W        W46416  23.865   7.661  25.211 -0.2080 -0.1512  0.0276
37617W        W46417  19.161   0.090  10.246 -0.0497  0.0728 -0.1587
37618W        W46418  19.616   1.725   5.752  0.1987  0.1478 -0.1586
37619W        W46419  29.758   2.658  25.011 -0.2919  0.2955  0.0933
37620W        W46420  18.446   5.529  22.276 -0.2769  0.0401  0.3982
37621W        W46421  17.132   0.230  16.262  0.0095 -0.1047  0.1891
37622W        W46422   0.351   1.946  20.293 -0.1282  0.1337 -0.1194
37623W        W46423  25.564   1.475  18.850  0.3160 -0.1016 -0.0952
37624W        W46424  29.043   7.734  21.859  0.1799 -0.0198 -0.1161
37625W        W46425   7.091   7.044  17.270 -0.3136  0.0050  0.1855
37626W        W46426  24.622   3.061  23.688 -0.0372 -0.2023 -0.2549
37627W        W46427  17.891   4.772  19.515 -0.1250  0.1869  0.1077
37628W        W46428   8.045   1.305   7.686  0.1147  0.1869 -0.0489
37629W        W46429  13.848   4.422  20.126 -0.2651 -0.3081  0.1148
37630W        W46430   6.121   7.634   3.179  0.0379 -0.1915  0.1964
37631W        W46431  15.095   2.065   9.682 -0.2236 -0.2352 -0.0643
37632W        W46432   5.944   3.869  23.226 -0.1104 -0.1539  0.0543
37633W        W46433  16.862   3.577   7.072 -0.0356 -0.0574 -0.2179
37634W        W46434   7.715   5.810   8.731  0.1140  0.0899 -0.0924
37635W        W46435   8.999   4.325   6.062  0.1853 -0.1433 -0.0886
37636W        W46436  19.592   0.760   0.081 -0.2676 -0.1019 -0.0097
37637W        W46437  24.772   5.954  25.014 -0.2333 -0.0333  0.0506
37638W        W46438  25.024   5.245   4.096  0.1195 -0.2000  0.0539
37639W        W46439  11.857   3.813  16.264 -0.0178 -0.1647  0.1770
37640W        W46440  21.913   2.186  16.235 -0.1514  0.1721 -0.1900
37641W        W46441  31.344   0.844  20.521  0.1421  0.0420  0.0693
37642W        W46442   2.217   4.688  19.202  0.0877 -0.1201  0.1431
37643W        W46443   6.684   1.793   2.712 -0.0280 -0.0555  0.0507
37644W        W46444   0.100   3.681   6.994  0.0515 -0.1305 -0.0828
37645W        W46445   6.886   6.834   8.438 -0.3338 -0.3105  0.2017
37646W        W46446   0.018   6.240   9.348  0.0822  0.1428 -0.0529
37647W        W46447  22.630   4.335   7.091  0.2582  0.1050  0.0833
37648W        W46448   3.139   0.822   3.629  0.0289 -0.1468 -0.2076
37649W        W46449   1.322   5.886  24.071  0.0131 -0.0575 -0.1386
37650W        W46450   9.149   3.034   1.582 -0.0773  0.0444 -0.0773
37651W        W46451   8.787   2.334   7.773 -0.1541 -0.1667  0.1818
37652W        W46452   7.969   3.723  18.301 -0.0376 -0.1362 -0.1475
37653W        W46453  15.451   6.178  18.357  0.3265  0.1419  0.1792
37654W        W46454  12.594   1.952  22.856 -0.0457 -0.0947  0.0618
37655W        W46455  21.258   3.166   2.214 -0.0245 -0.2131  0.1352
37656W        W46456  24.278   3.534  18.167  0.2222  0.4438  0.1260
37657W        W46457  21.234   6.894   8.388 -0.0437  0.1763 -0.1633
37658W        W46458  27.452   3.132   3.858 -0.0430 -0.0670 -0.2307
37659W        W46459   8.929   1.475   8.233  0.0518 -0.1725 -0.2388
37660W        W46460  15.961   7.657  17.238  0.0736 -0.1120  0.1601
37661W        W46461  10.722   7.177  23.166 -0.4127 -0.1377 -0.1054
37662W        W46462  19.406   0.504   7.824 -0.0010 -0.1126  0.1019
37663W        W46463   1.822   2.771   6.134  0.0001 -0.0098 -0.1474
37664W        W46464  26.305   2.253  15.749 -0.1363  0.0753 -0.0768
37665W        W46465  17.123   6.324   4.015 -0.0298  0.1780 -0.1277
37666W        W46466   9.547   2.679  20.742 -0.0926  0.4093  0.0694
37667W        W46467  22.734   4.356  25.078 -0.0960  0.1877  0.0048
37668W        W46468  10.950   3.130   4.313 -0.2068 -0.0851  0.1698
37669W        W46469  24.584   3.501  10.225 -0.2695 -0.4411 -0.2052
37670W        W46470   2.290   4.201  16.054  0.1335  0.0167 -0.4329
37671W        W46471  16.322   2.324   8.857 -0.2444 -0.0701 -0.0652
37672W        W46472  28.523   0.516   0.316 -0.1868 -0.2013  0.0760
37673W        W46473   3.935   3.929  21.298 -0.2855  0.1264  0.1525
37674W        W46474   9.568   5.023  10.240 -0.0772  0.3238  0.4983
37675W        W46475  17.564   3.392  16.839 -0.3714 -0.3824 -0.0427
37676W        W46476   3.581   6.838   2.668 -0.0398  0.2506  0.0312
37677W        W46477   6.566   3.800  25.587  0.1223 -0.1976 -0.1125
37678W        W46478  20.238   3.380  16.720 -0.1144 -0.1355 -0.0021
37679W        W46479  26.790   7.449  18.454  0.1852 -0.0759  0.1217
37680W        W46480  26.332   7.664   0.701 -0.0252 -0.0503  0.1355
37681W        W46481  22.489   0.886  20.945  0.0878 -0.2128 -0.0000
37682W        W46482  14.961   0.922  10.424 -0.2076  0.0518  0.1033
37683W        W46483  31.015   2.882  18.658  0.0243  0.0393  0.1519
37684W        W46484  22.186   4.990  25.516 -0.1814  0.0008 -0.0886
37685W        W46485  19.941   5.032   1.468  0.1568 -0.4286 -0.1351
37686W        W46486  20.222   2.133  23.836 -0.0346 -0.0956 -0.1260
37687W        W46487   0.876   3.766  17.708 -0.0074 -0.2186  0.2870
37688W        W46488  25.884   2.566  11.027  0.1962  0.0549  0.2160
37689W        W46489  20.981   3.953   2.642 -0.3950  0.0245  0.0064
37690W        W46490  12.790   0.163   1.087 -0.1494 -0.0879  0.2669
37691W        W46491   5.990   1.845   6.235  0.1848 -0.0789 -0.0300
37692W        W46492   7.312   1.922  19.454  0.3466 -0.0619 -0.0619
37693W        W46493  20.355   1.276   1.263  0.1030  0.0940 -0.1561
37694W        W46494  26.157   1.970  16.545  0.0496 -0.1771  0.0017
37695W        W46495  14.141   5.881   3.151 -0.0237 -0.2834  0.0931
37696W        W46496  19.342   3.398  15.998  0.2506 -0.1010 -0.1443
37697W        W46497  22.307   6.868  11.022 -0.0352  0.0844  0.2354
37698W        W46498  23.343   4.532  22.915  0.0691  0.0319 -0.1185
37699W        W46499  13.909   7.124   9.717 -0.1693 -0.2066 -0.0343
37700W        W46500  21.176   2.145   9.826  0.0758  0.0847  0.1189
37701W        W46501   0.899   0.138  25.364 -0.0901  0.1886  0.3090
37702W        W46502  28.670   4.162  22.460 -0.4460  0.2403 -0.2850
37703W        W46503  31.022   3.158   1.686 -0.0364 -0.0727  0.2161
37704W        W46504  30.340   7.766  18.380  0.0182  0.3591  0.3437
37705W        W46505   0.652   6.154  14.952  0.1948  0.2769  0.1288
37706W        W46506  30.062   3.503  17.860  0.1515 -0.2307 -0.1989
37707W        W46507  26.636   1.253  24.183 -0.1660  0.2059  0.3011
37708W        W46508   4.189   6.586  20.430  0.0646 -0.0004  0.0518
37709W        W46509   9.939   3.945  24.536 -0.1818  0.0794  0.0540
37710W        W46510  17.003   1.764   7.264 -0.0317  0.0411  0.1019
37711W        W46511  30.588   7.105   8.984  0.0238  0.0391  0.0150
37712W        W46512   4.642   2.436   1.660 -0.1406  0.1330 -0.2052
37713W        W46513  27.317   0.512   9.626 -0.0329 -0.0235  0.1477
37714W        W46514  30.892   7.614   5.044 -0.2666  0.0287  0.1209
37715W        W46515  27.217   3.579  25.425  0.1954  0.0869  0.1876
37716W        W46516   9.912   0.280   9.065 -0.1558 -0.0597 -0.1480
37717W        W46517  31.145   7.396  21.573  0.2011  0.2750  0.0558
37718W        W46518   4.805   6.302  10.373  0.2060 -0.0378  0.1070
37719W        W46519  13.417   1.392  16.255  0.3063 -0.1369  0.2205
37720W        W46520  15.867   0.539  25.871 -0.2495 -0.0101  0.0187
37721W        W46521  30.620   1.111   5.614 -0.1195  0.0130 -0.0113
37722W        W46522   6.762   4.161  25.940  0.0928 -0.0039 -0.0646
37723W        W46523  28.843   3.566   9.634  0.2193  0.0094 -0.0143
37724W        W46524  30.594   4.401   7.996  0.1164  0.1419 -0.1219
37725W        W46525   4.501   3.399  24.812  0.0539  0.1829  0.0519
37726W        W46526  25.874   0.290  22.842  0.0302  0.1826 -0.0885
37727W        W46527   1.729   4.494  22.183  0.1627  0.2382 -0.2580
37728W        W46528   9.375   1.881  20.148  0.3079  0.0123 -0.1085
37729W        W46529  16.775   4.033   6.693 -0.2289  0.1368  0.0700
37730W        W46530   4.342   2.238   2.419  0.0235 -0.0340  0.0416
37731W        W46531   3.709   5.624  22.470  0.2985 -0.1144  0.2061
37732W        W46532  11.299   3.607   2.028 -0.1683 -0.1315 -0.0425
37733W        W46533  10.471   1.230  18.695  0.1234 -0.0115 -0.2159
37734W        W46534  18.248   4.434  18.329  0.0105  0.1843 -0.0790
37735W        W46535   9.738   1.230  25.341  0.1423 -0.3097  0.0496
37736W        W46536   8.008   4.347   1.937  0.1738 -0.1950 -0.0220
37737W        W46537   2.683   4.731  19.454  0.3719  0.1009 -0.0133
37738W        W46538  10.192   0.713  22.189  0.0645  0.0966  0.1528
37739W        W46539  11.749   4.463   1.056 -0.0803 -0.0956  0.1213
37740W        W46540   7.885   5.294  10.367  0.1939 -0.1333  0.0903
37741W        W46541  16.594   6.840  25.257 -0.2251  0.0543  0.0818
37742W        W46542   2.660   7.054  15.540 -0.0208  0.1930  0.2802
37743W        W46543   8.746   6.003  16.493  0.0621 -0.0212  0.0555
37744W        W46544  16.880   4.180   3.136 -0.0046  0.0779 -0.0926
37745W        W46545  21.648   3.666  15.685 -0.1526 -0.0601  0.0575
37746W        W46546   7.264   5.626  20.016  0.0628 -0.1572  0.0035
37747W        W46547  23.095   4.196  25.912 -0.0873  0.1596  0.0353
37748W        W46548   6.315   3.091  24.829  0.1714 -0.3452  0.2109
37749W        W46549  18.731   7.454  18.035 -0.0352  0.0932  0.0244
37750W        W46550  17.588   1.976   8.762 -0.0220  0.0926 -0.4851
37751W        W46551   3.390   2.054   2.751 -0.2028 -0.0740 -0.1750
37752W        W46552  26.454   5.052   4.542 -0.0278  0.0506 -0.2817
37753W        W46553   4.361   6.036   5.812  0.0452  0.1320 -0.0304
37754W        W46554   5.274   0.999  21.665  0.1560 -0.0307  0.0855
37755W        W46555  14.249   6.955  22.222 -0.0423  0.1506 -0.3268
37756W        W46556   0.860   3.580  19.758 -0.0025  0.3034  0.1492
37757W        W46557  10.041   2.497  15.484  0.0817 -0.1885 -0.0115
37758W        W46558   6.601   0.544  23.973  0.0656 -0.0396 -0.0679
37759W        W46559   0.858   6.248   9.216  0.1431  0.0893 -0.0275
37760W        W46560   7.200   4.588   4.197 -0.0228  0.0704 -0.3435
37761W        W46561   6.910   6.592  25.213  0.3465  0.0938 -0.1180
37762W        W46562  30.551   5.433  17.357 -0.1600 -0.2244 -0.1148
37763W        W46563  30.459   7.606  18.969  0.0419  0.1150  0.1959
37764W        W46564  25.924   6.892  15.533 -0.1200  0.0490  0.1877
37765W        W46565   3.919   7.379  19.496  0.3856 -0.0064  0.0983
37766W        W46566  11.962   5.106   0.853  0.1627 -0.1191  0.2749
37767W        W46567  29.870   1.272  20.269 -0.2905  0.0671 -0.1933
37768W        W46568  17.990   2.139  20.491  0.0568 -0.0109 -0.1321
37769W        W46569  30.615   0.292   2.708 -0.3041  0.1456  0.2216
37770W        W46570  25.131   1.153  23.355  0.2278 -0.2179 -0.0151
37771W        W46571   6.277   5.485   5.244 -0.2016  0.5157  0.0153
37772W        W46572   6.089   5.472   6.476 -0.1149  0.3853  0.0214
37773W        W46573  29.221   1.250   9.644 -0.0778 -0.0909  0.3771
37774W        W46574   9.447   7.226   3.890  0.1103 -0.3420 -0.1521
37775W        W46575  16.423   3.506   8.138  0.3398 -0.0621  0.2716
37776W        W46576  11.745   3.841   1.909 -0.2941 -0.1105 -0.3036
37777W        W46577  28.010   0.521   4.086  0.0010  0.1496  0.0048
37778W        W46578  29.670   1.989   7.377 -0.3013 -0.1833  0.1307
37779W        W46579  20.626   2.169  24.167 -0.0026 -0.1260 -0.0972
37780W        W46580  17.109   2.257   9.979  0.1708 -0.1570  0.4694
37781W        W46581  14.758   2.080  22.176 -0.1012  0.3122  0.0044
37782W        W46582  27.270   5.235   7.992  0.1481 -0.1972  0.2150
37783W        W46583   3.086   2.244  21.768  0.0544  0.0561 -0.3765
37784W        W46584  15.112   6.800   4.668  0.1070 -0.0759  0.4055
37785W        W46585  13.896   3.089  25.617 -0.1081  0.1386  0.0016
37786W        W46586  26.741   1.212  10.420  0.2415  0.0362  0.0645
37787W        W46587  26.103   5.564   3.940  0.1803 -0.1171 -0.1065
37788W        W46588  18.395   1.214  18.269  0.0243  0.1409  0.0624
37789W        W46589  10.067   6.449  22.705 -0.1202  0.1465  0.1917
37790W        W46590  21.605   4.155  18.308  0.0724  0.2868 -0.3706
37791W        W46591   4.449   3.660  16.448  0.0279  0.1147  0.0800
37792W        W46592  29.202   7.780   1.189  0.0026  0.1209 -0.1941
37793W        W46593   3.000   5.721  24.203  0.0181 -0.0485 -0.2489
37794W        W46594  17.280   2.869  24.831  0.0277  0.1922  0.0506
37795W        W46595  19.238   1.575   0.522  0.1368  0.4721 -0.1059
37796W        W46596   7.821   0.412  18.370 -0.3921 -0.0372  0.2833
37797W        W46597  21.303   0.558  24.668 -0.1095  0.1398  0.1389
37798W        W46598   4.115   6.089   9.193 -0.0829 -0.1115 -0.0892
37799W        W46599  17.644   5.601  10.332  0.1434  0.2029 -0.2020
37800W        W46600   9.022   0.494   7.297  0.0379 -0.1152  0.0929
37801W        W46601  29.430   4.162  19.443 -0.0396  0.1220 -0.0978
37802W        W46602   9.719   7.473  10.399  0.1571  0.0875  0.0151
37803W        W46603   6.515   4.549  16.842  0.0951 -0.3085  0.0937
37804W        W46604  14.353   6.418  22.696  0.2912 -0.1890 -0.1239
37805W        W46605   0.637   6.832   8.296  0.1948  0.1997  0.0174
37806W        W46606  21.424   3.666   1.552 -0.3362  0.2100  0.0500
37807W        W46607   3.304   2.648   5.141  0.2979 -0.2338  0.0402
37808W        W46608   9.536   6.851  17.199 -0.2663 -0.0432  0.1770
37809W        W46609  28.387   4.508  24.762 -0.1698 -0.1906 -0.0386
37810W        W46610  27.065   0.521   1.418  0.0994  0.2480 -0.2530
37811W        W46611  21.048   5.533   7.787  0.1152  0.0401  0.3567
37812W        W46612   6.096   5.820  25.322  0.1654  0.2004  0.1090
37813W        W46613  15.597   6.504   7.780  0.2490  0.1844  0.2268
37814W        W46614   9.706   1.745   0.539  0.1413  0.2799  0.2313
37815W        W46615   7.045   5.263   0.768 -0.3187 -0.3230  0.3429
37816W        W46616   8.101   7.398  21.729  0.2657 -0.0014 -0.0843
37817W        W46617  24.337   0.755  25.801 -0.0395  0.0948 -0.2041
37818W        W46618  14.968   2.093  25.667 -0.0331  0.4084 -0.0302
37819W        W46619  21.512   4.739   5.361  0.0213  0.3736 -0.2327
37820W        W46620  15.520   1.898  22.503  0.3908 -0.2138  0.3227
37821W        W46621  28.963   0.011  15.273  0.1394 -0.2168  0.3670
37822W        W46622  22.504   7.084  24.896  0.0253 -0.0505 -0.2192
37823W        W46623  12.021   4.016  23.470  0.1597  0.0538 -0.0846
37824W        W46624  11.604   6.145   3.654 -0.0883  0.0910 -0.1009
37825W        W46625  11.662   2.538   2.782  0.1141 -0.1769 -0.0275
37826W        W46626  18.578   4.015  19.026 -0.2327  0.1630  0.1761
37827W        W46627  13.504   6.851   9.531  0.0297 -0.1501 -0.3064
37828W        W46628  30.756   6.353  22.753 -0.1103  0.1340 -0.2396
37829W        W46629   8.107   2.413   5.041  0.0626  0.1359 -0.0684
37830W        W46630  11.764   3.233  19.664  0.1721 -0.1232  0.0417
37831W        W46631  23.675   5.867   8.036  0.0325 -0.0464 -0.3380
37832W        W46632  24.051   0.011   4.218  0.2207  0.0391  0.1984
37833W        W46633  20.917   6.292   9.723  0.1140  0.1449  0.0032
37834W        W46634   5.765   5.377  18.474  0.3547 -0.1172 -0.1925
37835W        W46635  11.424   6.125   8.457 -0.0573  0.0136  0.0090
37836W        W46636   2.138   0.954  18.968 -0.1978  0.1296  0.0953
37837W        W46637  14.600   1.788  21.750 -0.0052  0.1562  0.4445
37838W        W46638  24.425   6.093  22.375  0.0873  0.0241 -0.1556
37839W        W46639  21.118   7.582  22.307  0.2170  0.1347 -0.1405
37840W        W46640   3.725   1.538   8.304  0.0837  0.1475 -0.2745
37841W        W46641  25.530   4.372   0.151 -0.2578 -0.0556  0.2069
37842W        W46642  23.872   6.650  10.887 -0.2246 -0.0506  0.1265
37843W        W46643  20.141   4.254   6.518 -0.0295  0.1075  0.2168
37844W        W46644  28.983   1.276   0.338  0.0748  0.0910 -0.0473
37845W        W46645  21.221   2.795   6.940  0.0840 -0.0784  0.0795
37846W        W46646  28.911   1.595   9.073 -0.1697  0.1580 -0.1769
37847W        W46647  10.628   1.314  24.298 -0.1820  0.4010 -0.0661
37848W        W46648  31.395   3.474   8.657  0.1075 -0.2404 -0.1618
37849W        W46649   7.561   1.921  16.759  0.2105  0.0090 -0.1755
37850W        W46650   1.906   0.966  18.508 -0.0949 -0.1495 -0.0009
37851W        W46651  15.421   4.366   8.543  0.1258 -0.0413 -0.1665
37852W        W46652  11.421   6.023  19.411  0.0981 -0.0967  0.2383
37853W        W46653  13.917   6.523   1.972 -0.3159 -0.0860  0.0223
37854W        W46654  22.705   1.428   6.345  0.0178 -0.2799 -0.0074
37855W        W46655  22.484   0.415   3.745 -0.0193  0.0110 -0.0119
37856W        W46656  15.416   2.895   1.651  0.3327 -0.0603  0.0949
37857W        W46657  15.760   5.443   0.483  0.3578 -0.0380 -0.2670
37858W        W46658   3.550   6.506  16.622  0.2694 -0.0312 -0.1368
37859W        W46659   0.780   0.271  19.970  0.0532 -0.0114  0.1874
37860W        W46660   7.493   6.552   4.394  0.4665 -0.3230  0.1422
37861W        W46661  30.231   7.181  19.842 -0.1402 -0.2605 -0.0011
37862W        W46662   1.875   3.606   5.553  0.0990 -0.0756 -0.3293
37863W        W46663  20.000   6.216  24.714  0.0197 -0.2558 -0.0559
37864W        W46664  13.402   7.725   1.827  0.0882 -0.0113 -0.1632
37865W        W46665   8.563   6.378   9.340  0.0104  0.1952  0.2032
37866W        W46666  15.540   0.086  10.601 -0.1008 -0.1299 -0.0837
37867W        W46667  26.599   6.211   1.183  0.2358 -0.2147 -0.0404
37868W        W46668   2.059   6.510   0.957 -0.0286 -0.1318 -0.1615
37869W        W46669  17.447   3.391   8.579  0.3853  0.1091 -0.2814
37870W        W46670  19.772   7.036   0.863 -0.1310 -0.3032 -0.2002
37871W        W46671  16.421   4.018  10.382 -0.0307 -0.0007 -0.0740
37872W        W46672  29.712   3.576  15.272  0.1063 -0.4613  0.0902
37873W        W46673  17.461   1.560  22.672  0.2258  0.1260  0.1420
37874W        W46674  20.454   1.312   2.592  0.2356  0.0875 -0.0868
37875W        W46675  28.612   7.752  20.591  0.4815  0.0213  0.0706
37876W        W46676   8.934   0.040   3.803 -0.0127 -0.1414 -0.2564
37877W        W46677  21.465   5.101   5.788 -0.1331  0.0467 -0.0180
37878W        W46678  16.831   2.189  21.832  0.0032 -0.2961  0.0092
37879W        W46679  25.132   4.836  24.336  0.1693 -0.1114  0.0790
37880W        W46680  25.476   0.014   9.165 -0.2088  0.1172  0.2069
37881W        W46681  13.716   6.195  23.871 -0.0151  0.0891 -0.2266
37882W        W46682  30.137   1.338   4.973  0.2523  0.0192  0.2659
37883W        W46683  21.859   2.166   5.392 -0.1574 -0.1243  0.1385
37884W        W46684   3.991   4.569   0.948 -0.2018  0.0818 -0.1245
37885W        W46685   6.267   3.670  10.558  0.1325  0.2297 -0.2637
37886W        W46686  26.103   4.774   5.931 -0.0537  0.0544 -0.4642
37887W        W46687  15.841   4.937  23.008  0.1840  0.0951  0.2495
37888W        W46688  12.005   5.984  16.120  0.0033  0.1605 -0.3750
37889W        W46689  28.564   4.368   8.636  0.3123  0.0192  0.1215
37890W        W46690  21.815   5.915   8.606  0.2375  0.1461 -0.0583
37891W        W46691   4.408   3.193   8.002 -0.0083  0.2452  0.2161
37892W        W46692   6.666   7.110  17.048 -0.2986 -0.1738 -0.0996
37893W        W46693  27.233   3.873   1.402 -0.0292  0.2983 -0.0695
37894W        W46694   6.926   3.522   5.479  0.0333  0.1047 -0.2742
37895W        W46695  29.915   6.438  21.567 -0.2450 -0.0432 -0.1565
37896W        W46696  11.230   4.044  21.814 -0.1763 -0.1423 -0.1576
37897W        W46697  22.729   2.290  14.819 -0.0546  0.1370 -0.1583
37898W        W46698  10.020   0.814  18.190  0.2312 -0.5449  0.0058
37899W        W46699  26.115   6.443  21.906  0.0427 -0.2512  0.2798
37900W        W46700  11.873   2.377   3.817 -0.0009 -0.1229 -0.1029
37901W        W46701  15.090   6.314   2.261 -0.6760 -0.0457  0.2015
37902W        W46702  30.308   0.880   5.218  0.1035  0.1605 -0.0798
37903W        W46703  25.782   0.535   5.900  0.0994  0.0440 -0.0321
37904W        W46704   0.508   0.284  17.903 -0.1065 -0.0755 -0.1091
37905W        W46705   4.824   5.088  19.997  0.1326 -0.2494  0.0556
37906W        W46706  10.928   7.675   3.697 -0.1012 -0.1817 -0.1436
37907W        W46707  19.163   6.570  17.977 -0.0522 -0.0117 -0.0213
37908W        W46708   2.967   1.431   0.709 -0.1594  0.3088  0.2606
37909W        W46709  16.247   6.858  16.203  0.0851 -0.1929  0.1293
37910W        W46710  29.646   4.685  20.748 -0.4162 -0.3233 -0.1055
37911W        W46711  26.285   1.087   2.932  0.0821 -0.0684  0.0567
37912W        W46712  10.195   1.435  11.067 -0.0369 -0.4839  0.1399
37913W        W46713   8.275   6.338  23.263  0.2651 -0.0626  0.0452
37914W        W46714  15.943   2.702  10.202 -0.1817 -0.0534  0.3212
37915W        W46715   2.533   5.084   6.751 -0.3739 -0.2172  0.1979
37916W        W46716  16.146   5.657  25.374  0.0466 -0.3834 -0.0837
37917W        W46717  20.098   1.355   8.880 -0.1922  0.3110 -0.2796
37918W        W46718  14.072   4.187  20.477  0.1235  0.0360  0.0528
37919W        W46719  25.792   2.151  15.631 -0.0826 -0.1134 -0.2318
37920W        W46720  26.318   3.355  10.842 -0.0989 -0.0188 -0.2358
37921W        W46721   9.977   4.736  17.761  0.2312 -0.0047 -0.0240
37922W        W46722   6.418   7.700   7.592 -0.0816 -0.5073 -0.2461
37923W        W46723  30.717   7.047   6.760  0.2060  0.0084 -0.0897
37924W        W46724  10.285   0.722   4.951  0.0023 -0.0212  0.1269
37925W        W46725  24.402   1.820   3.312 -0.0545 -0.2169  0.0012
37926W        W46726  13.012   6.465   6.154 -0.2360 -0.1245 -0.1525
37927W        W46727  22.279   5.407   5.585 -0.2474  0.1670  0.1044
37928W        W46728   0.197   1.442   7.679  0.0195 -0.1955 -0.2876
37929W        W46729   7.916   5.461   6.930  0.2285 -0.2156  0.0963
37930W        W46730  30.992   4.425  22.982 -0.2201  0.1311  0.0769
37931W        W46731   1.439   4.542   9.737 -0.0676 -0.0907 -0.0751
37932W        W46732  14.803   7.854   5.719  0.2092  0.1423 -0.4038
37933W        W46733  16.877   5.751   4.387  0.1037  0.0160 -0.0028
37934W        W46734   8.977   4.515   2.242 -0.1070  0.0745  0.3808
37935W        W46735   2.515   1.855  16.590  0.0292  0.0635 -0.0712
37936W        W46736   2.459   2.005   5.406 -0.4612  0.3209 -0.0919
37937W        W46737   2.635   2.656   0.021 -0.3883  0.3806 -0.5866
37938W        W46738   0.415   0.300  18.787 -0.1819  0.3272  0.0408
37939W        W46739  17.124   4.784   1.503 -0.2068  0.0038  0.1848
37940W        W46740  31.077   3.882  17.081  0.1724  0.1422  0.0476
37941W        W46741   2.929   3.302   4.858  0.3202  0.2022 -0.0642
37942W        W46742   4.664   4.089  19.701  0.0004  0.3989 -0.1855
37943W        W46743  11.435   7.719  15.572  0.0074  0.0605  0.0526
37944W        W46744   6.971   4.518  16.616  0.1745 -0.0339 -0.0388
37945W        W46745   4.791   5.251  24.886 -0.2302 -0.0892 -0.0914
37946W        W46746  10.091   2.099  16.370 -0.1042  0.1204 -0.2346
37947W        W46747  27.404   4.182   2.119  0.0152 -0.0106 -0.2083
37948W        W46748   4.443   4.420  20.018 -0.1123 -0.3227 -0.1667
37949W        W46749  28.827   0.476   7.887 -0.0235  0.0726 -0.0243
37950W        W46750  23.393   5.411  21.332 -0.1228  0.0520  0.1147
37951W        W46751  30.893   6.719   4.242 -0.3488  0.3170  0.1482
37952W        W46752  29.206   0.481   8.274  0.3744 -0.2823 -0.2700
37953W        W46753   4.329   3.511   2.788 -0.1751  0.0659  0.4643
37954W        W46754  16.678   4.867   9.270  0.0726 -0.0141 -0.3369
37955W        W46755  26.293   4.826  21.532 -0.0176 -0.0317  0.1263
37956W        W46756   6.483   6.221  15.779 -0.2640 -0.2267  0.3107
37957W        W46757  28.029   3.994  22.957 -0.1975 -0.0510  0.2112
37958W        W46758  26.119   6.176   0.041 -0.3088 -0.4398  0.1782
37959W        W46759  29.091   6.223   6.964 -0.1100  0.0400 -0.3133
37960W        W46760  29.482   4.244   1.097  0.3805  0.1162 -0.1307
37961W        W46761  30.612   3.810  22.241 -0.0310 -0.1426 -0.1975
37962W        W46762  25.436   4.099   6.616 -0.1549 -0.1550  0.1064
37963W        W46763  25.999   1.716   4.772  0.0178  0.0221  0.0006
37964W        W46764  17.554   5.261  19.436  0.0471  0.1557 -0.0128
37965W        W46765   2.424   5.570  25.390  0.3462  0.0082  0.0662
37966W        W46766  27.353   5.863  24.177  0.0368  0.2038  0.1759
37967W        W46767  12.816   4.355   4.399 -0.2831 -0.1629  0.2232
37968W        W46768   9.731   4.749  20.437 -0.1215  0.0629 -0.0759
37969W        W46769   6.364   5.574  22.371 -0.0568 -0.0024  0.1692
37970W        W46770   5.672   1.929  23.606  0.0522 -0.0243  0.1232
37971W        W46771   9.443   6.990   0.180  0.0637  0.2633  0.0494
37972W        W46772  24.193   2.706  10.836  0.0651  0.0122  0.2409
37973W        W46773   5.431   3.123   6.870 -0.1810 -0.2148  0.0371
37974W        W46774  17.445   7.269  23.976 -0.1611  0.0862  0.3397
37975W        W46775   1.956   3.460  20.928 -0.1214 -0.2661 -0.0230
37976W        W46776   3.912   2.752   5.905  0.4957  0.0322 -0.0196
37977W        W46777  23.563   2.253  25.654  0.0600  0.2544  0.1786
37978W        W46778   1.717   6.771  10.848 -0.1265 -0.0743  0.0609
37979W        W46779  25.060   7.647  18.157 -0.0069 -0.1188 -0.0381
37980W        W46780  10.718   5.355  21.270 -0.1474  0.1230  0.1030
37981W        W46781  28.050   2.377   0.576  0.0478  0.1889  0.0708
37982W        W46782  20.759   2.480  19.718  0.2298 -0.0027 -0.3470
37983W        W46783  14.607   6.825  21.454 -0.1161 -0.3764  0.2606
37984W        W46784  13.476   5.633   2.032  0.2639 -0.1798 -0.0803
37985W        W46785  10.793   5.652  19.305 -0.1885  0.3424 -0.1849
37986W        W46786  24.719   5.897   8.589  0.0148 -0.1449  0.0633
37987W        W46787  19.427   0.464  23.758 -0.1756 -0.0242 -0.1695
37988W        W46788  18.401   5.166   6.866  0.1867 -0.1385 -0.2734
37989W        W46789  22.114   6.681   6.822  0.1259 -0.0605 -0.2243
37990W        W46790  24.858   5.704  10.171 -0.0193  0.2484 -0.1534
37991W        W46791  23.686   2.395   6.588  0.1656  0.1881  0.0552
37992W        W46792   2.654   6.770   8.202  0.1618 -0.0758  0.1964
37993W        W46793   2.755   0.588  21.812 -0.0596 -0.0240  0.3901
37994W        W46794  26.129   5.546   1.792 -0.0004  0.1947 -0.0201
37995W        W46795   2.812   0.528   3.923 -0.2212  0.4157 -0.4161
37996W        W46796  24.535   0.544  10.736  0.0531 -0.3835  0.1153
37997W        W46797  23.982   6.966  10.530  0.1359  0.0012  0.0061
37998W        W46798  20.013   7.455   0.807  0.0079 -0.1327 -0.1096
37999W        W46799  12.567   0.763   6.270  0.2821 -0.1657  0.2560
38000W        W46800   3.359   2.540  24.917 -0.1833  0.1330 -0.0207
38001W        W46801  30.016   1.880  20.105  0.2433 -0.3468 -0.0827
38002W        W46802  11.874   5.779   0.449 -0.2554  0.0173  0.0117
38003W        W46803  28.319   1.345  24.709  0.3667  0.2057 -0.2090
38004W        W46804  11.532   2.582   4.572 -0.2625 -0.0190 -0.1768
38005W        W46805   6.387   3.350   9.660  0.0744 -0.0922 -0.0553
38006W        W46806  12.355   2.847  17.674  0.2035  0.2353 -0.0837
38007W        W46807  18.363   1.869  18.902  0.0368 -0.0867  0.1334
38008W        W46808  25.199   0.723  19.591 -0.0554  0.2603  0.1455
38009W        W46809   8.486   0.063  20.150  0.0419  0.1533 -0.0925
38010W        W46810  26.210   6.120  20.122 -0.0574  0.3109  0.3428
38011W        W46811  12.550   0.416  19.609  0.1591  0.1418  0.2327
38012W        W46812  12.515   4.182  20.047  0.1621 -0.0078  0.0769
38013W        W46813  17.172   5.665  18.111  0.0436 -0.4192  0.0991
38014W        W46814  27.468   5.904   6.132 -0.1078  0.2415  0.1096
38015W        W46815  12.553   4.012   6.189  0.4759  0.1929  0.0418
38016W        W46816   8.806   4.567  23.172  0.0440 -0.2368  0.3002
38017W        W46817  25.698   2.706  19.290  0.3906 -0.1426 -0.0551
38018W        W46818  28.979   3.569  16.478 -0.0312 -0.1746 -0.2468
38019W        W46819   9.407   5.910   5.120  0.1045 -0.0749  0.0086
38020W        W46820  26.667   6.388  11.091  0.0487  0.0157 -0.1636
38021W        W46821  29.565   3.767   0.279 -0.0498  0.1395 -0.0301
38022W        W46822  25.708   0.299   3.893 -0.2308  0.2671  0.1432
38023W        W46823  24.281   7.213   9.134 -0.1999 -0.0057 -0.1089
38024W        W46824  22.966   1.408  17.918  0.0047  0.1293 -0.1302
38025W        W46825  26.013   3.924   1.610 -0.5116 -0.1911  0.3285
38026W        W46826  28.519   3.455  25.821 -0.1896  0.0894  0.0016
38027W        W46827  15.365   2.189  21.328 -0.3130 -0.1316 -0.2013
38028W        W46828  20.671   5.329   1.088 -0.0119  0.0154  0.1017
38029W        W46829   4.638   4.217   6.386 -0.2545  0.0013  0.0008
38030W        W46830  18.275   7.666   1.683  0.0717  0.1668  0.1849
38031W        W46831  16.036   2.001  17.845  0.0681  0.3790 -0.0222
38032W        W46832   7.705   6.712  22.656 -0.0966  0.2761 -0.0215
38033W        W46833  15.781   2.228  10.374 -0.1734  0.1270 -0.0628
38034W        W46834  10.432   2.147   5.028 -0.1215  0.0659  0.0389
38035W        W46835  26.089   4.816  16.038 -0.1130  0.0905 -0.1980
38036W        W46836  30.405   5.435   5.355 -0.1746  0.4937 -0.1127
38037W        W46837   2.093   5.140  23.659 -0.1346 -0.1244  0.2929
38038W        W46838   6.718   4.941   5.477  0.0324 -0.3875 -0.1195
38039W        W46839   3.568   5.195  16.224  0.0448 -0.0251  0.3721
38040W        W46840  12.705   6.189  21.052 -0.0052  0.2068  0.1110
38041W        W46841  25.213   4.467   4.748 -0.0964 -0.1735  0.0589
38042W        W46842   2.124   5.607   0.703 -0.1748  0.0202 -0.2195
38043W        W46843   4.518   5.911   3.877 -0.0480  0.0369  0.3905
38044W        W46844   8.592   5.530   4.638  0.1419  0.2941  0.0507
38045W        W46845  12.565   3.215   5.398 -0.1488  0.2355 -0.0733
38046W        W46846  14.559   5.862   6.938 -0.0554 -0.2195  0.0934
38047W        W46847  12.296   6.593   7.685 -0.1041  0.0115  0.1752
38048W        W46848  20.549   3.447  20.921 -0.0060 -0.0585  0.1945
38049W        W46849  28.993   4.674  16.473 -0.4243  0.1528 -0.2973
38050W        W46850  20.420   2.549  16.512  0.0384  0.0632  0.2599
38051W        W46851   2.114   6.340   7.442 -0.0110  0.0535 -0.0496
38052W        W46852  19.524   7.745  16.806 -0.0804 -0.0875 -0.1198
38053W        W46853   7.067   5.587   9.923  0.1236  0.0278 -0.3235
38054W        W46854  12.842   2.385   8.699 -0.0475  0.0130 -0.1060
38055W        W46855   9.487   6.649  19.699 -0.2543 -0.0154  0.0369
38056W        W46856  29.215   1.319   6.152  0.1984  0.1052 -0.1745
38057W        W46857  20.857   0.137  22.513 -0.0443 -0.1214  0.1021
38058W        W46858  22.389   2.606  26.039 -0.1295 -0.2444  0.2273
38059W        W46859   1.738   6.762  20.747 -0.1234  0.1591 -0.1633
38060W        W46860  30.091   6.369   4.724 -0.0455 -0.1094 -0.1048
38061W        W46861  24.193   1.834  23.507  0.1566 -0.0305  0.0653
38062W        W46862  12.978   5.668  22.328 -0.0205  0.2414 -0.0041
38063W        W46863  28.928   2.382   5.643  0.0228 -0.1017 -0.0649
38064W        W46864  24.432   3.916  10.436  0.0440 -0.2550 -0.2061
38065W        W46865  14.575   3.108  18.232  0.0145  0.1878  0.1857
38066W        W46866   0.848   7.835  20.722  0.1613 -0.1547 -0.2759
38067W        W46867  11.415   4.083  23.563  0.1985  0.0745 -0.1922
38068W        W46868   3.271   6.269  20.129 -0.0884 -0.0880  0.1246
38069W        W46869  15.071   2.795  24.950 -0.0435 -0.0214 -0.2088
38070W        W46870  10.237   1.306   2.936  0.0878  0.0777 -0.1186
38071W        W46871  19.300   3.755  20.989 -0.0947 -0.0620 -0.2251
38072W        W46872  21.757   6.022  17.690 -0.1541  0.0500 -0.3895
38073W        W46873  23.866   1.281  17.945  0.0795 -0.3581  0.1118
38074W        W46874  16.999   4.857  23.390  0.0317 -0.1536 -0.1627
38075W        W46875  26.740   1.828  23.395  0.3533  0.0476  0.3379
38076W        W46876  11.938   1.689  18.452  0.1482  0.1325 -0.0626
38077W        W46877   8.987   5.828   9.247 -0.1778 -0.0325 -0.2143
38078W        W46878  18.885   7.058  17.163  0.1148  0.0710  0.0551
38079W        W46879  13.330   4.173  24.728 -0.1162 -0.4107  0.2133
38080W        W46880   5.342   0.664   9.072  0.1908 -0.2307 -0.0022
38081W        W46881  24.347   5.579   0.885  0.1524  0.2162  0.5968
38082W        W46882  15.476   0.469   9.635 -0.0021 -0.0948 -0.0190
38083W        W46883  13.332   3.315  22.756  0.0411 -0.2489 -0.1148
38084W        W46884   7.371   1.510   3.291  0.0778 -0.1566 -0.1745
38085W        W46885  19.971   2.866  17.785 -0.1887 -0.0850 -0.0010
38086W        W46886  16.660   1.133   1.153  0.4566 -0.2713  0.1014
38087W        W46887  24.364   1.834  15.995  0.2283 -0.2496 -0.3103
38088W        W46888  16.367   0.138   4.330 -0.0230 -0.1842  0.1060
38089W        W46889  25.559   5.105   6.644 -0.2119 -0.0436 -0.0962
38090W        W46890  31.337   1.126  26.027 -0.0520  0.1484  0.4148
38091W        W46891  20.820   1.972   5.832 -0.0741 -0.2571 -0.1657
38092W        W46892  24.955   3.401  16.710 -0.1283  0.1092  0.0888
38093W        W46893  29.391   4.245   8.659  0.1098  0.0309 -0.1067
38094W        W46894  21.237   1.088  23.865 -0.0667 -0.1784 -0.1393
38095W        W46895  14.167   3.666  20.665 -0.0449  0.1632  0.3823
38096W        W46896   9.406   7.391  20.728 -0.1263  0.1578  0.3115
38097W        W46897  14.285   0.986   1.561  0.0347  0.1906  0.0097
38098W        W46898   7.790   0.465  21.305 -0.1810  0.2135  0.0842
38099W        W46899  14.089   3.606  10.470  0.2326  0.1564 -0.0807
38100W        W46900  10.978   0.302  21.731  0.0949  0.0449  0.0906
38101W        W46901  23.846   1.576   4.633 -0.3992  0.0340 -0.0177
38102W        W46902  28.036   7.723  24.405 -0.1516  0.1258  0.1552
38103W        W46903  11.848   2.344   9.233 -0.0868 -0.0624  0.0873
38104W        W46904  13.302   6.164   5.627  0.1665  0.2039  0.4785
38105W        W46905   1.568   1.425  24.950 -0.1045  0.0343  0.0396
38106W        W46906   8.692   5.182  25.385  0.2384 -0.0455 -0.1470
38107W        W46907  30.791   3.254  19.440  0.3771  0.2847 -0.0281
38108W        W46908   1.090   6.853  21.643  0.0795 -0.2627  0.2907
38109W        W46909  12.485   7.314  24.738 -0.0997  0.0866  0.0415
38110W        W46910  14.409   1.140   9.011  0.0072 -0.5620  0.0069
38111W        W46911  19.743   0.090  22.883 -0.0491  0.1983  0.1455
38112W        W46912  24.177   1.843  22.846  0.0315  0.0156  0.0015
38113W        W46913   5.493   7.498   5.186 -0.0212 -0.0353  0.0216
38114W        W46914  22.937   7.044   2.020 -0.2406  0.1086 -0.0915
38115W        W46915   3.599   3.624  24.338  0.0119  0.0052  0.1693
38116W        W46916  15.920   6.160  16.605 -0.3818  0.1026 -0.0216
38117W        W46917  27.414   4.098   2.644 -0.1300 -0.0066 -0.2916
38118W        W46918   8.139   2.123   7.505  0.0602  0.0863  0.2283
38119W        W46919   2.973   6.201  18.480 -0.0752  0.0853 -0.1010
38120W        W46920  21.802   5.803  16.266  0.1437 -0.0592 -0.3476
38121W        W46921  26.121   0.047   6.335  0.0199  0.0803 -0.0827
38122W        W46922  13.248   5.697   8.400 -0.0640  0.0358 -0.0895
38123W        W46923  24.001   2.450   2.716 -0.2044  0.2322 -0.1593
38124W        W46924  19.999   1.020  19.275 -0.0641  0.3829 -0.0096
38125W        W46925  14.427   2.483  15.973  0.0107  0.0350 -0.0653
38126W        W46926  27.807   5.686   3.806  0.1076 -0.0603  0.1189
38127W        W46927   3.218   1.814  17.887  0.2158  0.0194  0.2122
38128W        W46928  21.189   6.462  20.216  0.0380 -0.0871 -0.0378
38129W        W46929  26.680   3.689  23.381 -0.2891 -0.2459  0.0748
38130W        W46930   2.902   0.127   7.510  0.0494  0.0354 -0.0689
38131W        W46931   2.542   0.077  15.766 -0.3526  0.0508 -0.1360
38132W        W46932  19.680   2.312   6.141 -0.3380  0.0221 -0.2429
38133W        W46933   9.811   2.170  23.361 -0.1883  0.2832 -0.0178
38134W        W46934  30.198   4.888   5.609 -0.0313 -0.0475  0.1544
38135W        W46935  21.312   4.076  15.710 -0.2565 -0.0918  0.0238
38136W        W46936  11.889   1.152   1.156  0.0530  0.0767  0.0150
38137W        W46937   0.846   1.711  21.344  0.0468 -0.2282 -0.0532
38138W        W46938   8.180   2.623   5.542  0.0205 -0.0483 -0.0540
38139W        W46939   6.122   3.512  24.576  0.1270 -0.1933  0.2147
38140W        W46940  21.089   5.859   9.297  0.2439  0.2219  0.1702
38141W        W46941   3.672   3.166   6.704  0.1541 -0.3320 -0.0219
38142W        W46942   4.644   5.966  16.900 -0.3395 -0.1795  0.2199
38143W        W46943  18.738   4.790   8.868  0.1273  0.0621 -0.0606
38144W        W46944   1.114   2.879  21.321  0.1036  0.1520  0.0125
38145W        W46945   0.105   2.994  19.386  0.0523  0.1353  0.1854
38146W        W46946  18.317   4.674  24.621  0.0052 -0.2215  0.1413
38147W        W46947   6.631   0.648   3.963  0.0453 -0.0908  0.0292
38148W        W46948   9.306   1.029  15.633  0.1313  0.0062 -0.3025
38149W        W46949   6.111   7.567  24.999  0.0856 -0.1661 -0.2394
38150W        W46950  22.428   4.467  17.290  0.0511  0.0444  0.0596
38151W        W46951  29.721   1.282  20.853 -0.1445 -0.0793  0.3067
38152W        W46952   0.032   7.446   8.927 -0.0448 -0.0503  0.0981
38153W        W46953  25.861   0.815  11.204  0.4129 -0.2883 -0.2071
38154W        W46954  28.425   3.837   9.793 -0.0648 -0.2720 -0.0594
38155W        W46955  19.107   1.829   2.453  0.1806  0.2211 -0.0831
38156W        W46956   6.497   1.598  24.106 -0.0271  0.0218  0.1916
38157W        W46957   6.818   0.863   5.032  0.0360  0.1008 -0.0529
38158W        W46958   4.955   6.773   3.383 -0.0104 -0.1338  0.0191
38159W        W46959  26.037   0.892   5.210 -0.1796 -0.0781 -0.4485
38160W        W46960  18.214   1.499   2.740  0.0137  0.2105  0.3181
38161W        W46961   1.522   7.816   3.544 -0.1801  0.1648 -0.2571
38162W        W46962  15.272   6.056  21.290 -0.1424  0.1811 -0.0859
38163W        W46963   8.789   1.000  20.028 -0.2931 -0.1470  0.3776
38164W        W46964  13.866   6.165  21.257 -0.2202 -0.1067 -0.1774
38165W        W46965   9.073   6.869  20.674  0.2692 -0.0564  0.3289
38166W        W46966   9.776   5.587   8.177 -0.2603 -0.0673  0.2581
38167W        W46967   6.988   3.661  24.009  0.0277 -0.0015  0.0599
38168W        W46968   3.655   6.288  14.687 -0.0378 -0.1536 -0.1912
38169W        W46969   9.131   0.031  15.776 -0.0048  0.2124  0.1776
38170W        W46970   1.066   0.632   8.006  0.0152 -0.0426 -0.3243
38171W        W46971  19.208   2.287   0.011 -0.2800 -0.0381  0.0888
38172W        W46972   4.205   6.711   6.116 -0.0367  0.1139  0.1197
38173W        W46973  30.955   3.155  25.514 -0.0498  0.0195 -0.1673
38174W        W46974   2.180   2.408   8.246 -0.2033  0.0090 -0.1005
38175W        W46975   2.128   4.675  17.924 -0.2055  0.1036 -0.0433
38176W        W46976   8.244   7.795   5.859 -0.3147  0.1415  0.1241
38177W        W46977   6.782   6.635  21.678  0.0130 -0.0516  0.1247
38178W        W46978   3.754   5.639  21.775  0.1893 -0.3302  0.1442
38179W        W46979   6.868   5.073  15.627  0.1206  0.0042  0.1364
38180W        W46980   0.470   7.015  17.247  0.0518  0.1582  0.0573
38181W        W46981   0.440   4.461  25.059  0.1073 -0.3589  0.7377
38182W        W46982  30.047   3.365  17.296 -0.0218  0.1000 -0.1816
38183W        W46983   3.708   3.885  23.120 -0.1439 -0.1908 -0.3380
38184W        W46984   7.744   2.053   6.175 -0.2287 -0.1037 -0.0416
38185W        W46985   9.592   7.467  16.840 -0.1504 -0.2501 -0.1991
38186W        W46986   9.470   6.130  19.643  0.2498 -0.0665  0.0689
38187W        W46987  29.850   4.351   5.490 -0.0236 -0.0115 -0.0151
38188W        W46988  14.963   7.100   5.042  0.1536 -0.1870  0.1205
38189W        W46989  12.318   0.776  24.339 -0.1746 -0.0484 -0.1277
38190W        W46990  20.914   0.373  17.067  0.1567  0.0245  0.1103
38191W        W46991  14.301   1.926  16.676  0.1833 -0.0398  0.0135
38192W        W46992   6.722   2.970   5.913 -0.0270 -0.0977 -0.0381
38193W        W46993   3.408   4.439  17.302 -0.0635 -0.0406  0.2242
38194W        W46994  14.237   2.983  21.948  0.0530  0.4258 -0.3145
38195W        W46995   3.840   0.097  22.778 -0.1712 -0.0828  0.0350
38196W        W46996  29.354   6.594  15.044  0.2183 -0.2680 -0.0497
38197W        W46997  21.974   5.355  17.035  0.0690 -0.2782 -0.0312
38198W        W46998  13.418   5.243  10.301 -0.4109  0.1336  0.1957
38199W        W46999   6.150   0.418  24.563 -0.3552  0.0234 -0.0690
38200W        W47000  21.079   2.333  21.515  0.0840 -0.2693  0.0929
38201W        W47001  22.329   0.734   8.047  0.1179  0.2040  0.0939
38202W        W47002  14.306   2.924  22.864  0.1386  0.3179  0.3904
38203W        W47003   6.523   0.812  14.786 -0.0262  0.1476  0.2140
38204W        W47004  20.505   3.100  19.966 -0.0294  0.1145 -0.0398
38205W        W47005  25.858   5.993   9.122 -0.0970  0.0099  0.0744
38206W        W47006   5.881   5.015  23.264  0.0061  0.0917 -0.1056
38207W        W47007  24.787   4.817  23.446 -0.1635 -0.3127 -0.2602
38208W        W47008  13.874   2.564  19.024 -0.1563  0.4947  0.1253
38209W        W47009   4.619   3.957  23.054  0.5904 -0.0328  0.1615
38210W        W47010  13.775   1.957   4.781  0.0228 -0.1892 -0.3531
38211W        W47011  30.493   1.818  24.555 -0.2402 -0.0275  0.1808
38212W        W47012  14.925   0.063  19.644 -0.1181  0.3231  0.0077
38213W        W47013  12.795   3.790  22.323 -0.0997  0.1201 -0.1340
38214W        W47014  18.001   1.828  20.963 -0.1242 -0.0070 -0.2250
38215W        W47015  19.262   3.298  19.687  0.0388 -0.2674  0.0413
38216W        W47016  19.305   3.145   3.539 -0.0416  0.0468  0.1686
38217W        W47017  11.921   3.457  19.099 -0.0491 -0.3302 -0.1802
38218W        W47018  23.879   0.504  24.068 -0.0275 -0.0111 -0.1251
38219W        W47019   0.724   2.433  10.539  0.3397 -0.2215  0.1694
38220W        W47020  21.503   7.603  19.715  0.0542  0.1190 -0.3575
38221W        W47021  30.981   3.204   4.324 -0.1724  0.0791 -0.1290
38222W        W47022  14.077   4.479   5.165 -0.0926 -0.2084  0.0025
38223W        W47023  19.096   1.234   8.756  0.2572  0.1542 -0.0267
38224W        W47024  13.757   1.667  15.947  0.1691 -0.0680 -0.2824
38225W        W47025  14.157   7.601  15.822 -0.2594 -0.1344 -0.2636
38226W        W47026  23.325   5.364   3.831  0.0962  0.1742 -0.1226
38227W        W47027  29.068   0.859   4.907  0.1613  0.0253 -0.1899
38228W        W47028   3.033   3.419  19.543 -0.2685  0.0190 -0.0341
38229W        W47029   4.010   3.891   2.911  0.2324 -0.1488  0.1769
38230W        W47030  24.969   7.294  24.951 -0.0078  0.2728 -0.0980
38231W        W47031  13.735   1.980  23.370 -0.0974 -0.1134  0.0575
38232W        W47032   5.585   1.007   1.309 -0.1538 -0.0167  0.1933
38233W        W47033  19.620   6.694  23.850  0.2425 -0.2216  0.2489
38234W        W47034  20.136   6.845   7.273  0.2455 -0.0003  0.2177
38235W        W47035  31.381   0.907  23.462  0.2247  0.1141 -0.1799
38236W        W47036   5.820   2.234   2.464  0.1296 -0.0595  0.1292
38237W        W47037   7.528   4.636   1.961 -0.1125 -0.0702  0.0107
38238W        W47038   0.037   6.683  16.174  0.2213  0.0445  0.0994
38239W        W47039  11.525   3.621  11.099 -0.1421  0.1158  0.1912
38240W        W47040  27.369   7.247  23.294 -0.2077  0.3863  0.2290
38241W        W47041  22.643   5.030  18.860 -0.0989  0.0756 -0.2177
38242W        W47042   8.109   5.305   1.482 -0.1896 -0.0250 -0.0715
38243W        W47043  14.514   2.886   4.174 -0.1911 -0.1605 -0.3409
38244W        W47044  24.759   5.671   2.652  0.1548 -0.1843  0.0702
38245W        W47045  20.158   3.336   8.890 -0.2625  0.3600 -0.0437
38246W        W47046   6.827   3.871   3.588 -0.0944 -0.1940  0.1698
38247W        W47047  25.066   2.409  23.801  0.0739  0.0294  0.1350
38248W        W47048   8.929   3.887  20.652 -0.0344 -0.1696  0.0797
38249W        W47049   5.400   7.144   8.375  0.0531 -0.1155  0.1701
38250W        W47050  19.720   4.493  25.933 -0.0715  0.1433 -0.1557
38251W        W47051   9.872   6.068   8.240 -0.0713 -0.0815 -0.1964
38252W        W47052   8.452   0.026   7.951 -0.1094 -0.0657  0.1268
38253W        W47053   6.721   7.469   5.096 -0.0146  0.1123 -0.0705
38254W        W47054  18.064   3.797   1.167 -0.2159 -0.2342 -0.0613
38255W        W47055  28.934   3.637   5.150  0.0377  0.0954 -0.1321
38256W        W47056   9.808   5.543  23.652 -0.2851 -0.1056  0.1784
38257W        W47057   5.818   5.317  10.081 -0.0389 -0.1223 -0.0087
38258W        W47058  22.658   3.194   6.171 -0.2155  0.1748  0.0124
38259W        W47059   9.037   7.684  16.779  0.1163 -0.0921  0.1101
38260W        W47060   0.292   2.316  21.263  0.1049 -0.0646  0.0174
38261W        W47061  13.808   1.413  20.673  0.0651  0.1463 -0.2309
38262W        W47062  17.775   1.383  20.780 -0.1106  0.1803  0.2914
38263W        W47063  27.893   7.422   2.564 -0.0791  0.2528 -0.3318
38264W        W47064  30.972   6.869   0.777  0.5233  0.0746 -0.0438
38265W        W47065  16.528   4.530  22.328  0.0875 -0.0026  0.2687
38266W        W47066  31.435   6.335  25.798  0.1529 -0.0124 -0.2321
38267W        W47067   8.513   2.407   4.531  0.0420 -0.0348  0.1006
38268W        W47068  22.425   0.138  11.302 -0.0935  0.3284 -0.3709
38269W        W47069   2.045   0.203   0.489  0.0516  0.0757  0.3465
38270W        W47070  23.703   4.546   1.534 -0.1482 -0.4264  0.0068
38271W        W47071  14.992   2.217  17.005  0.1584  0.1067 -0.0831
38272W        W47072  17.247   1.987   8.282  0.1784  0.0529  0.2197
38273W        W47073   9.561   5.576  11.136  0.0065  0.0079 -0.2132
38274W        W47074  24.429   5.944  18.481 -0.3081  0.0136  0.2986
38275W        W47075  14.856   4.524  15.701  0.0245  0.3094  0.1957
38276W        W47076  16.679   1.792  17.258 -0.0379 -0.1781  0.0559
38277W        W47077   9.203   2.799  20.291  0.0370 -0.2303  0.1966
38278W        W47078   1.418   2.435  15.371 -0.2706 -0.2516 -0.0844
38279W        W47079  26.885   0.084  19.632 -0.2092  0.1825  0.1689
38280W        W47080  30.685   6.159  20.634  0.0359 -0.0717 -0.0353
38281W        W47081   1.975   0.629  24.026 -0.3055  0.1805  0.0570
38282W        W47082  18.237   3.445   1.497 -0.0248 -0.0780  0.1498
38283W        W47083  19.557   3.028  19.427 -0.1637 -0.2892  0.1118
38284W        W47084  10.105   7.619  15.607 -0.0572  0.1582 -0.0373
38285W        W47085  20.205   3.191   4.473 -0.0202 -0.0204  0.3014
38286W        W47086  29.064   7.198   8.386  0.0392 -0.0741 -0.0265
38287W        W47087  20.368   3.766  23.645  0.0721 -0.0409  0.1339
38288W        W47088   6.337   0.662  17.994 -0.0016  0.0153  0.4253
38289W        W47089  11.564   6.694  20.632  0.2408  0.1634  0.2400
38290W        W47090  13.876   0.937   7.345 -0.1025  0.0650 -0.2691
38291W        W47091  18.877   1.387  17.499 -0.2434  0.1028  0.0393
38292W        W47092  14.266   3.354   6.781  0.1712  0.3726 -0.1247
38293W        W47093   9.992   2.601  16.956  0.1810 -0.3545 -0.0764
38294W        W47094  20.900   2.710   8.389  0.2438 -0.0914 -0.3999
38295W        W47095   3.379   3.664   7.440 -0.1247 -0.0299 -0.0662
38296W        W47096  13.270   0.911   5.014 -0.1521  0.0559 -0.0205
38297W        W47097  17.061   4.784  20.215 -0.1787  0.0848  0.4166
38298W        W47098   3.232   7.530   5.617  0.2308 -0.0230 -0.2494
38299W        W47099   3.994   0.059  24.586  0.0368  0.0619  0.0837
38300W        W47100  10.733   2.155   3.953 -0.0190 -0.1807 -0.0987
38301W        W47101   3.305   0.939   6.830  0.0080 -0.0227  0.0303
38302W        W47102   3.491   6.091   3.830  0.1836 -0.2258  0.0697
38303W        W47103  30.468   3.041   6.509 -0.0524 -0.3531  0.0589
38304W        W47104  17.838   0.933  21.075  0.0789 -0.0017  0.0982
38305W        W47105   7.337   5.300  17.287 -0.0817  0.0217  0.0482
38306W        W47106  12.832   0.787  23.757 -0.1414 -0.1367  0.1164
38307W        W47107  25.406   0.318  16.030 -0.0362  0.3337 -0.2005
38308W        W47108  29.206   2.835   8.152 -0.1553  0.0891 -0.3047
38309W        W47109  21.763   6.754  24.548 -0.0233  0.2901  0.2273
38310W        W47110   0.173   4.700   8.258  0.0861 -0.0316  0.1617
38311W        W47111  18.676   1.366   7.171  0.0020  0.1018 -0.1757
38312W        W47112  16.854   5.282  17.903 -0.1089  0.0406 -0.1768
38313W        W47113   8.385   2.351   8.484  0.1873 -0.0032  0.4131
38314W        W47114   8.849   4.270   4.716 -0.1255  0.1526 -0.0184
38315W        W47115  26.451   2.952  25.591  0.0912  0.6271 -0.2100
38316W        W47116   1.782   0.466   8.859  0.1068 -0.0307  0.2219
38317W        W47117  19.456   1.254  16.709  0.2857 -0.1272  0.2754
38318W        W47118   8.902   0.626  11.243 -0.1941  0.0279  0.2247
38319W        W47119   8.230   6.543  15.175 -0.2578  0.0454 -0.0165
38320W        W47120  12.568   1.170   5.948  0.1553  0.1250 -0.1975
38321W        W47121  30.174   5.756   1.648  0.1478  0.1681  0.1841
38322W        W47122  14.072   4.507   1.123  0.0406  0.1116  0.2848
38323W        W47123  27.879   6.314   9.632  0.1129  0.0589 -0.0947
38324W        W47124  17.215   4.308   2.300 -0.0423 -0.1050  0.0817
38325W        W47125   4.852   0.505  17.910 -0.0549  0.2742 -0.0040
38326W        W47126   1.562   0.267  15.794 -0.1827 -0.0443  0.2263
38327W        W47127  23.399   5.467  17.048  0.0907 -0.1171  0.0384
38328W        W47128  17.184   6.355  18.952 -0.1983 -0.2126 -0.0148
38329W        W47129  21.836   3.530  19.175 -0.2286 -0.4321  0.2787
38330W        W47130  28.647   2.487   3.659  0.2244  0.1643  0.0275
38331W        W47131   7.466   1.222  25.065  0.0266 -0.1468  0.2834
38332W        W47132  22.586   2.875  25.209 -0.3236  0.2551 -0.0553
38333W        W47133  31.030   6.032   5.950 -0.0836 -0.2500  0.1174
38334W        W47134   1.655   3.155  16.693  0.1988 -0.1911 -0.1252
38335W        W47135  11.152   2.312   1.827  0.1427 -0.1736 -0.1645
38336W        W47136  12.972   6.127   4.696 -0.1079  0.2669  0.2717
38337W        W47137  26.256   4.257   5.865 -0.1214  0.0094  0.1411
38338W        W47138  12.212   0.418  22.451 -0.0939  0.0193 -0.0506
38339W        W47139  24.510   3.778  15.982 -0.1291  0.0875 -0.1387
38340W        W47140  15.807   4.425   9.229 -0.0430  0.5410  0.0298
38341W        W47141  29.834   1.777  18.298 -0.1160  0.2331 -0.0717
38342W        W47142   4.579   2.713   7.886  0.0586 -0.2689  0.1400
38343W        W47143   9.894   6.244   6.528  0.1701  0.2708 -0.2490
38344W        W47144  17.533   2.854  22.185 -0.0947 -0.2503  0.1132
38345W        W47145   2.181   4.268  24.326 -0.1034 -0.1016 -0.2269
38346W        W47146  21.435   0.862   9.801 -0.1864  0.1369 -0.1998
38347W        W47147  16.535   5.167  14.855 -0.0206  0.4808 -0.0012
38348W        W47148   6.448   2.667  16.925 -0.0192 -0.1143 -0.2750
38349W        W47149  28.300   5.822  15.817 -0.1932 -0.3180  0.0505
38350W        W47150   7.475   0.792   3.197 -0.3532 -0.0790 -0.0522
38351W        W47151   2.480   0.665  20.939 -0.1803 -0.0464  0.1450
38352W        W47152  10.179   7.820   2.446  0.3395  0.1505  0.0992
38353W        W47153  18.128   7.250   1.524  0.1769  0.0678  0.2639
38354W        W47154  21.438   2.223   0.338 -0.0553 -0.0952  0.0755
38355W        W47155   4.051   1.578   0.868 -0.4789  0.0774  0.1829
38356W        W47156   5.461   6.678  16.398  0.0875  0.1932 -0.1193
38357W        W47157   9.893   4.911  24.788 -0.2499 -0.3433  0.2300
38358W        W47158  27.269   3.162  25.785  0.0333 -0.3349 -0.0472
38359W        W47159   1.680   4.386  10.485  0.5046 -0.1628  0.1244
38360W        W47160  24.029   2.891  10.406  0.0323  0.0722 -0.0787
38361W        W47161  11.744   3.377   0.494 -0.1019  0.0997 -0.1698
38362W        W47162  24.400   6.158   3.032 -0.1347 -0.2389  0.1373
38363W        W47163   6.958   5.153  24.703 -0.1647  0.1757 -0.0866
38364W        W47164  14.728   1.086   4.973 -0.3150 -0.1642 -0.1629
38365W        W47165  28.481   5.965  23.764  0.1863  0.0123 -0.0559
38366W        W47166  15.038   5.525   7.104 -0.2577  0.0199  0.1766
38367W        W47167   2.553   3.352  20.448  0.2580 -0.0821 -0.1111
38368W        W47168   2.267   6.726  18.539 -0.1527 -0.0022  0.0710
38369W        W47169   5.998   6.990   8.221  0.0307 -0.1117  0.1349
38370W        W47170  28.272   1.152   4.208 -0.2195  0.0720 -0.1409
38371W        W47171  29.168   0.135  18.088  0.4439  0.1011  0.1760
38372W        W47172  26.639   4.785  16.511  0.2815  0.1597 -0.3287
38373W        W47173  15.249   3.169  22.876 -0.0453 -0.0072 -0.1797
38374W        W47174   7.889   4.438  23.430 -0.1370  0.2920  0.1867
38375W        W47175  20.150   2.818  24.603 -0.1496 -0.0584 -0.3324
38376W        W47176   9.499   5.475   4.519 -0.0167  0.1959  0.2227
38377W        W47177  30.382   0.699  20.812 -0.0818 -0.0993 -0.0453
38378W        W47178  18.916   1.624   1.400  0.1204  0.1442  0.1821
38379W        W47179  19.626   7.734  24.664  0.1096  0.1843  0.2266
38380W        W47180  14.738   6.196  25.137  0.0979  0.2625  0.0531
38381W        W47181  21.532   5.335   6.868  0.1423  0.0393 -0.0770
38382W        W47182  22.897   5.282  10.001  0.2089 -0.0138  0.0974
38383W        W47183  17.202   2.691   9.274 -0.3303 -0.0426 -0.4349
38384W        W47184  29.325   0.603   5.485  0.0441 -0.3092  0.0302
38385W        W47185  25.572   4.817  10.000  0.2583 -0.0339  0.0635
38386W        W47186  30.194   0.538   9.251  0.1055 -0.0646 -0.0057
38387W        W47187  21.734   6.630  18.531  0.2380 -0.3264 -0.4453
38388W        W47188   2.705   5.354  18.152 -0.0505  0.2288  0.2125
38389W        W47189   4.146   1.586  23.522 -0.1283 -0.0455 -0.0498
38390W        W47190   2.189   0.967  20.597  0.2274  0.0774 -0.0052
38391W        W47191   1.872   0.083  10.601  0.0726 -0.1392  0.0900
38392W        W47192   2.720   7.249  25.127 -0.1010 -0.0495 -0.0864
38393W        W47193  10.762   7.068   0.176 -0.2463  0.1872 -0.0872
38394W        W47194  13.437   3.565   0.630 -0.0253  0.0253  0.0246
38395W        W47195  19.696   5.085  21.874  0.1829  0.3048 -0.0148
38396W        W47196  25.560   7.860   8.642 -0.0350 -0.1709  0.4143
38397W        W47197   8.504   3.892  19.140 -0.2257  0.0234 -0.0646
38398W        W47198  24.530   6.788  14.923 -0.0663  0.0484 -0.1771
38399W        W47199  16.471   4.926   0.878 -0.1536  0.0199  0.0369
38400W        W47200   9.895   6.823  15.679  0.3855  0.0893  0.1515
38401W        W47201  15.181   1.058   0.331 -0.0395  0.0331 -0.0408
38402W        W47202   4.344   6.867  14.695  0.1094  0.2137  0.0036
38403W        W47203  25.089   4.324  15.446 -0.0385 -0.1456 -0.0374
38404W        W47204  19.365   2.684   8.203 -0.1132 -0.2075 -0.1196
38405W        W47205   7.432   3.117   8.721  0.1589 -0.0811  0.0636
38406W        W47206  18.719   3.098   8.897  0.1194 -0.3657  0.1341
38407W        W47207   9.588   0.466   5.626 -0.3174  0.1438  0.0510
38408W        W47208  11.345   3.519   3.137 -0.0350 -0.2322 -0.1341
38409W        W47209  25.100   3.397  23.439  0.0300 -0.4149 -0.0220
38410W        W47210  28.382   7.454  14.559 -0.0897 -0.1776 -0.0226
38411W        W47211  19.667   7.419  22.874  0.0214 -0.0231  0.3344
38412W        W47212  16.386   3.267  19.600 -0.2718  0.1587  0.0480
38413W        W47213  26.861   3.260   2.724  0.1542  0.0320  0.0831
38414W        W47214   0.668   7.478   0.750 -0.1749  0.2023 -0.4069
38415W        W47215  23.362   2.989  23.641  0.2285 -0.0613 -0.0358
38416W        W47216  17.963   4.605   0.604 -0.0508  0.0510 -0.3044
38417W        W47217  24.393   0.482   2.615  0.0758  0.2175 -0.0903
38418W        W47218  21.307   6.734  19.822  0.1076  0.2022 -0.1725
38419W        W47219   3.362   7.038  22.981  0.3633  0.0282 -0.0929
38420W        W47220  24.844   7.146   2.201  0.0960  0.0156  0.1408
38421W        W47221  21.053   6.118   3.910  0.0084 -0.3578  0.2571
38422W        W47222  11.304   1.343  20.087  0.0154  0.0590 -0.0286
38423W        W47223  14.530   2.403  17.889 -0.2037  0.2476 -0.3580
38424W        W47224   0.620   6.755  24.167  0.1183 -0.1720 -0.0881
38425W        W47225  26.854   2.263   4.875 -0.3370 -0.1905 -0.1580
38426W        W47226  24.811   2.248   2.090 -0.1446 -0.1016 -0.0894
38427W        W47227  23.815   3.929  23.590  0.0848  0.1027 -0.1242
38428W        W47228  26.408   0.339  10.561 -0.1052  0.3569  0.1994
38429W        W47229  19.118   2.981  16.815 -0.0075 -0.0081  0.0908
38430W        W47230   6.776   1.582  24.697  0.0097 -0.0763  0.0387
38431W        W47231  20.603   2.541  25.055 -0.0412  0.2002 -0.0499
38432W        W47232   3.997   6.035  17.739  0.0299  0.2445 -0.0235
38433W        W47233  15.418   7.688   8.411  0.2420 -0.1568  0.0259
38434W        W47234  20.011   3.306   0.264 -0.0347 -0.0084 -0.2087
38435W        W47235   3.093   1.046   8.578  0.0637 -0.1579 -0.0606
38436W        W47236  24.518   1.887  21.909  0.2358 -0.0171 -0.0127
38437W        W47237  26.868   7.625   9.432 -0.0863 -0.0903 -0.0982
38438W        W47238  20.760   6.523   2.286  0.0420 -0.1851 -0.0793
38439W        W47239  22.299   1.760   1.636  0.1001  0.2009  0.0837
38440W        W47240  15.547   2.361   9.499  0.2504  0.2394 -0.1179
38441W        W47241  17.110   5.764  10.351 -0.0166 -0.0616 -0.2194
38442W        W47242   6.735   2.932  26.045  0.1849  0.0064  0.0132
38443W        W47243  30.009   1.679   9.241 -0.1310  0.0930 -0.0666
38444W        W47244  23.742   2.333  22.126 -0.3798 -0.0538 -0.0056
38445W        W47245  29.964   3.115   8.727  0.0077 -0.1217  0.1277
38446W        W47246  13.816   4.716   2.469  0.2364  0.3034 -0.3664
38447W        W47247  13.829   4.669  15.517 -0.1167 -0.2445  0.2323
38448W        W47248  28.907   1.651  22.316  0.2263  0.1852 -0.1984
38449W        W47249  19.386   3.715  24.660 -0.0485 -0.1864  0.1104
38450W        W47250   7.906   6.899   5.624  0.0212  0.0754 -0.0347
38451W        W47251   3.218   2.139   3.225 -0.5299  0.2905  0.0014
38452W        W47252  10.618   7.477   6.814  0.1181 -0.0085  0.1486
38453W        W47253  19.227   1.239  20.415  0.0893  0.0037 -0.2301
38454W        W47254  24.999   2.224   0.339  0.1140 -0.0897  0.2547
38455W        W47255  25.734   4.591  10.553 -0.0491  0.0223  0.0982
38456W        W47256  19.234   3.432  18.726  0.0610 -0.1981  0.0415
38457W        W47257  12.593   4.966   2.870 -0.0941  0.0574 -0.0340
38458W        W47258   7.019   7.433   0.082  0.1114  0.0895 -0.1105
38459W        W47259  19.998   6.326  22.770  0.0189 -0.2027  0.1259
38460W        W47260  16.709   5.797   8.624  0.3631 -0.0435 -0.0189
38461W        W47261  12.214   4.338  25.490  0.0526 -0.4322 -0.0505
38462W        W47262  20.440   5.187  25.719 -0.0419  0.1220  0.2804
38463W        W47263  11.067   7.707  22.846 -0.1281  0.0812  0.0294
38464W        W47264  19.077   4.638  15.908  0.0398 -0.2058 -0.1394
38465W        W47265  12.674   3.521  20.885  0.2340  0.0133 -0.2770
38466W        W47266  29.398   0.949  18.575 -0.1414  0.0916 -0.0383
38467W        W47267   6.040   1.122   2.108  0.1446 -0.0321  0.1028
38468W        W47268   0.902   4.220  17.441  0.1615  0.2201 -0.3306
38469W        W47269   6.688   6.367   5.883 -0.0176 -0.0781 -0.0793
38470W        W47270  13.524   0.366  17.606 -0.3856  0.2547  0.1834
38471W        W47271   5.227   5.434  25.189 -0.0277  0.1162  0.0338
38472W        W47272  13.336   2.200  24.962 -0.2348  0.1355 -0.0520
38473W        W47273  30.557   6.318  23.679 -0.0420  0.2334 -0.0522
38474W        W47274  16.653   2.807  22.702  0.0828 -0.0407  0.1354
38475W        W47275   9.601   5.636  19.846  0.0477 -0.4022  0.0680
38476W        W47276  12.763   3.346  19.374  0.1828  0.1711 -0.0415
38477W        W47277  27.850   3.718  22.024 -0.2138 -0.3012  0.1537
38478W        W47278  10.193   5.835  19.078 -0.3273  0.1369  0.1816
38479W        W47279   1.126   1.616  19.740  0.1097 -0.1074  0.0867
38480W        W47280  27.842   6.958  16.614 -0.1746  0.1750 -0.0054
38481W        W47281   0.703   1.016   4.926  0.0319 -0.0261  0.2715
38482W        W47282  28.625   4.331  24.157 -0.5835 -0.4756 -0.0011
38483W        W47283  13.916   2.507   3.661  0.0226 -0.0979 -0.0877
38484W        W47284   7.425   2.428  15.938 -0.2567 -0.4110 -0.2417
38485W        W47285  18.720   0.008   7.532 -0.2329  0.5889 -0.2221
38486W        W47286  18.592   0.222   1.929 -0.3884  0.2732  0.0539
38487W        W47287  25.261   5.428   6.974 -0.0397 -0.0685 -0.1200
38488W        W47288   4.513   0.182  16.457 -0.1334  0.1356  0.0560
38489W        W47289  30.890   5.963   2.913  0.0915 -0.1109  0.2133
38490W        W47290  25.150   0.138  25.687  0.0513 -0.0596  0.1724
38491W        W47291  27.331   7.127  15.344 -0.0120 -0.0309 -0.1546
38492W        W47292  16.082   5.896  22.386  0.0696  0.0152 -0.1866
38493W        W47293  21.483   3.028  10.594  0.0487 -0.0073  0.0314
38494W        W47294   6.223   2.521  21.453 -0.2444 -0.0113  0.1526
38495W        W47295   4.763   1.620  25.893 -0.1798  0.1592  0.1515
38496W        W47296  12.414   4.421  19.467  0.2767 -0.0452 -0.1683
38497W        W47297  17.979   4.811  10.420  0.0075  0.1704  0.1444
38498W        W47298  26.762   6.043  21.146  0.0803  0.0955  0.2375
38499W        W47299   8.447   5.628  16.252  0.0738 -0.1923  0.1165
38500W        W47300  20.290   3.792  22.721 -0.0588  0.1731  0.3488
38501W        W47301   6.537   7.426  24.639 -0.0841  0.0873 -0.1926
38502W        W47302  18.283   5.628  19.788 -0.0320 -0.2900  0.2203
38503W        W47303  29.568   5.721  19.342 -0.0150  0.0930 -0.1086
38504W        W47304  24.154   0.804   2.068  0.1258  0.0340 -0.2682
38505W        W47305  17.936   2.575  18.105 -0.3271  0.1326  0.1172
38506W        W47306  24.838   5.579  22.883  0.1214 -0.1782  0.1151
38507W        W47307  28.045   4.041   7.685  0.1231  0.0057  0.1041
38508W        W47308  30.633   6.141  19.513  0.1713 -0.1647 -0.1054
38509W        W47309   8.822   4.424   5.581 -0.1216 -0.1473 -0.0570
38510W        W47310  19.260   0.960   7.756  0.1305  0.0486  0.1650
38511W        W47311  26.743   0.150   4.710  0.1199 -0.1842 -0.0270
38512W        W47312  17.420   4.532   9.601 -0.0165 -0.1019  0.0271
38513W        W47313  15.107   3.554  15.663  0.1244  0.1533 -0.0004
38514W        W47314  15.804   6.914  19.376 -0.3708  0.0858  0.0267
38515W        W47315  26.073   2.359  19.701 -0.0690  0.0629 -0.0298
38516W        W47316  25.749   5.542   4.983  0.1305 -0.1651  0.1106
38517W        W47317  18.336   7.722   5.173  0.0409  0.3231 -0.1957
38518W        W47318   6.352   1.597   7.912 -0.2960 -0.2441  0.2235
38519W        W47319   3.329   6.104   3.370 -0.3781 -0.1113 -0.0702
38520W        W47320  14.022   4.127   8.702 -0.1774  0.2268  0.0160
38521W        W47321   9.621   6.252  16.435 -0.1557  0.1613  0.3410
38522W        W47322   7.457   3.127  18.139  0.2607  0.0395 -0.0508
38523W        W47323   5.986   0.748   7.509  0.0144 -0.0602 -0.0340
38524W        W47324   6.010   6.572   4.877  0.2631 -0.0025  0.0437
38525W        W47325  27.342   7.086   6.184  0.3438 -0.1026  0.0335
38526W        W47326  14.254   6.151  19.529 -0.1166  0.0316  0.2312
38527W        W47327  25.601   6.975   7.717 -0.3362  0.1335 -0.2337
38528W        W47328  17.904   0.391  21.897 -0.3474 -0.0270 -0.3154
38529W        W47329  19.424   6.191   7.419 -0.1155  0.2144  0.2246
38530W        W47330   2.361   7.148  10.464 -0.0892  0.1508  0.0097
38531W        W47331  14.935   5.242  24.099  0.0772  0.0284 -0.1378
38532W        W47332  22.473   4.476   0.407  0.1318 -0.0989  0.4004
38533W        W47333   4.273   2.444   6.154 -0.2331  0.0186 -0.1792
38534W        W47334   0.722   5.341   2.688 -0.1907  0.3618 -0.1895
38535W        W47335   2.955   6.057   1.109 -0.1629  0.0972  0.0850
38536W        W47336   8.088   0.477  22.081 -0.0281  0.0364  0.1446
38537W        W47337  15.020   2.305   0.093  0.0672  0.1748 -0.1683
38538W        W47338   1.463   1.369  24.252  0.2028 -0.1341 -0.2613
38539W        W47339  14.903   1.617  22.261 -0.0706  0.1126  0.1961
38540W        W47340  30.146   0.745  22.980  0.0411  0.1888 -0.1113
38541W        W47341  31.312   0.025  21.558  0.1664  0.0277 -0.3554
38542W        W47342  24.837   6.992  17.576 -0.1425  0.0568 -0.0862
38543W        W47343  31.009   4.990   6.004 -0.0433 -0.2512 -0.0524
38544W        W47344   1.175   2.102  21.965 -0.2529  0.0156  0.3840
38545W        W47345  28.812   5.362  23.197 -0.0689  0.2107  0.2689
38546W        W47346  29.469   4.620   0.740 -0.0005 -0.3546 -0.5397
38547W        W47347  17.352   1.536  16.533  0.2094  0.3772 -0.1461
38548W        W47348   7.297   6.660   3.626  0.0105 -0.1656  0.2279
38549W        W47349   7.787   1.358  25.457 -0.1060 -0.0527  0.1023
38550W        W47350  23.934   2.482   6.111  0.2631 -0.0395  0.1250
38551W        W47351   6.526   2.471   2.691  0.1603  0.0660  0.2463
38552W        W47352  28.285   2.791  15.149 -0.0047  0.0164  0.1493
38553W        W47353  14.252   2.998   1.175 -0.1323  0.3228 -0.1007
38554W        W47354  22.329   5.261  19.618 -0.2972  0.1067 -0.0639
38555W        W47355  13.596   1.852  15.483 -0.2486  0.3353  0.1691
38556W        W47356   8.112   6.742   7.527  0.0003 -0.1477  0.0175
38557W        W47357   7.160   7.047  21.969 -0.1427  0.2108  0.1320
38558W        W47358   9.824   5.190   0.789  0.1025 -0.0896  0.0456
38559W        W47359   0.496   6.355   3.285  0.2336 -0.2181  0.0946
38560W        W47360  24.456   0.149   4.447 -0.2895 -0.0822 -0.1415
38561W        W47361  16.886   1.336   5.833  0.4259 -0.0629  0.1677
38562W        W47362   2.691   2.435  19.340 -0.0402 -0.2661  0.0761
38563W        W47363   5.225   4.014  23.554  0.1069  0.0126 -0.1210
38564W        W47364  13.362   4.306  23.741 -0.0089  0.0812  0.0174
38565W        W47365  30.283   5.453  19.859 -0.1568  0.2374 -0.2540
38566W        W47366   6.506   0.987   8.662 -0.2002 -0.5217  0.1076
38567W        W47367  25.081   2.730   3.176 -0.0590  0.1100  0.1316
38568W        W47368  21.807   6.477  20.743  0.0035 -0.3474  0.2196
38569W        W47369  29.125   7.459   0.234  0.0923  0.3090 -0.1355
38570W        W47370  30.538   7.788  23.996  0.0373  0.0560 -0.0635
38571W        W47371   1.043   1.849   9.740  0.1644 -0.0509 -0.2545
38572W        W47372   0.331   1.748  15.810 -0.1281  0.1007 -0.1978
38573W        W47373  21.823   7.849   0.085 -0.1480  0.0592  0.1032
38574W        W47374   4.504   6.895   8.756 -0.0662 -0.0719  0.1189
38575W        W47375  11.861   4.682  21.370  0.3524 -0.0012  0.0279
38576W        W47376   8.807   7.126   5.625 -0.0547 -0.3195  0.2722
38577W        W47377  19.298   2.020   6.078 -0.1396  0.2257 -0.1638
38578W        W47378  13.917   5.941  15.694 -0.2287  0.2393 -0.3055
38579W        W47379  15.282   7.040  16.172 -0.0611  0.0481 -0.0142
38580W        W47380  10.162   2.240   1.938  0.1748  0.1586  0.0537
38581W        W47381  23.090   4.734   5.985 -0.1752 -0.2778 -0.3249
38582W        W47382  25.250   1.993   7.031 -0.1239 -0.1051  0.2978
38583W        W47383  30.326   7.548   5.270  0.0054  0.1009 -0.0024
38584W        W47384  15.370   3.696   7.078 -0.2050  0.1621  0.3619
38585W        W47385   2.127   6.236   9.471  0.2336  0.1043 -0.0722
38586W        W47386  27.998   2.219  22.045 -0.1076  0.2604 -0.0124
38587W        W47387  27.421   2.918  24.767 -0.1945 -0.0925 -0.2028
38588W        W47388  15.872   1.581   5.167  0.0082 -0.0279 -0.0120
38589W        W47389   7.739   6.260  10.384 -0.1929  0.1178  0.1324
38590W        W47390  12.520   1.834   6.714 -0.0581  0.0873 -0.0973
38591W        W47391  16.835   3.144  10.076  0.0316  0.3771  0.3517
38592W        W47392  31.053   2.801   7.504  0.0322 -0.2827  0.2237
38593W        W47393  29.202   4.989   4.494  0.1031 -0.0117 -0.0687
38594W        W47394  22.762   2.130   9.263  0.0068 -0.4341  0.1270
38595W        W47395  25.178   4.500  25.368  0.0280  0.0330  0.1298
38596W        W47396  24.624   2.259  24.912 -0.2979  0.0339  0.0227
38597W        W47397  30.430   5.342  20.340  0.2039  0.2021  0.1424
38598W        W47398  28.830   3.937  16.860 -0.1333  0.0461  0.1913
38599W        W47399  10.693   7.132  10.706 -0.0937  0.0895  0.1889
38600W        W47400  15.853   5.644   2.857  0.0838 -0.0038  0.1151
38601W        W47401   1.005   6.787  22.411  0.2271 -0.2270 -0.0788
38602W        W47402  28.914   3.633  14.294 -0.0896  0.1131 -0.0498
38603W        W47403  16.642   3.135   2.229 -0.1918  0.2594 -0.2974
38604W        W47404   7.194   4.631  10.858 -0.3194 -0.0748 -0.1766
38605W        W47405   5.046   0.963   3.270  0.1366  0.1536  0.0050
38606W        W47406  22.103   7.595   7.050  0.1407  0.3530 -0.2932
38607W        W47407  17.703   0.134   8.328  0.0677  0.0184  0.1701
38608W        W47408  23.177   7.321   2.318  0.1724  0.0221 -0.0922
38609W        W47409  21.616   3.522   8.144  0.0181 -0.2843  0.1698
38610W        W47410  25.547   7.599  19.856 -0.0531  0.0272 -0.0760
38611W        W47411  10.994   0.086  20.061 -0.2071 -0.0525 -0.1790
38612W        W47412  24.829   3.277   1.297  0.1386  0.0738 -0.2624
38613W        W47413   9.666   0.746  24.818  0.0703 -0.2830  0.1577
38614W        W47414  15.545   7.363  10.372  0.2311  0.0811 -0.0813
38615W        W47415  25.069   6.997   7.717 -0.2776  0.1296 -0.0319
38616W        W47416   9.104   4.085   1.533  0.0531 -0.2423  0.1303
38617W        W47417  18.508   0.401   2.375 -0.0083 -0.1250  0.0528
38618W        W47418  13.560   3.637   4.951 -0.0755  0.0580 -0.1061
38619W        W47419   6.120   1.201  24.937  0.2544 -0.3749  0.1683
38620W        W47420  18.338   4.927   9.150 -0.0686 -0.0938  0.0711
38621W        W47421  12.572   0.944  19.779  0.0867 -0.0793 -0.0360
38622W        W47422  13.965   3.890  22.963 -0.0543 -0.1698 -0.2228
38623W        W47423  22.216   6.389   3.366 -0.1767  0.0356 -0.1851
38624W        W47424  16.625   5.470  18.300  0.1438 -0.1220 -0.0426
38625W        W47425   6.928   1.114   2.256 -0.0663 -0.1436  0.1858
38626W        W47426  13.235   3.150   7.523 -0.0146 -0.0074 -0.0475
38627W        W47427  16.424   4.853  10.316  0.0665  0.0395  0.0980
38628W        W47428  21.156   5.749  17.145  0.2312 -0.0240 -0.1620
38629W        W47429  25.428   0.305  17.695  0.1885 -0.0369  0.2499
38630W        W47430   6.953   6.254   5.320 -0.0519 -0.1933 -0.1961
38631W        W47431  15.699   7.823  21.221  0.0330 -0.0086  0.1649
38632W        W47432  25.307   4.925  18.126  0.1539 -0.2072 -0.0759
38633W        W47433   1.209   0.188  16.143 -0.0133 -0.2541  0.4153
38634W        W47434  12.970   1.268  20.620  0.1564  0.1550  0.0032
38635W        W47435  11.731   4.897  26.031 -0.0515 -0.0141 -0.0243
38636W        W47436   0.358   5.686   2.360 -0.2678  0.5798 -0.1176
38637W        W47437  15.455   3.282  15.941  0.1762 -0.3806 -0.0818
38638W        W47438  30.995   1.223   0.770  0.0191  0.2228  0.3239
38639W        W47439  13.572   0.393   2.442 -0.1374 -0.0044 -0.0777
38640W        W47440  13.478   5.929   2.456  0.1692 -0.2222 -0.2069
38641W        W47441  28.196   7.646   5.186 -0.0746  0.0422 -0.2331
38642W        W47442  20.633   0.287   2.304 -0.1019  0.3280  0.0032
38643W        W47443   8.445   5.226  19.765  0.0107 -0.1575  0.4615
38644W        W47444  13.837   6.789  17.810 -0.0157 -0.2667 -0.1485
38645W        W47445  11.908   7.714  25.899 -0.1317  0.1914 -0.2060
38646W        W47446  22.595   4.066   8.800 -0.0158  0.1334  0.1643
38647W        W47447  14.715   1.861  22.639 -0.0019  0.2052  0.0881
38648W        W47448   4.563   1.068  24.077  0.2392  0.1120  0.4031
38649W        W47449   4.376   5.272   8.124 -0.1390 -0.0242  0.0393
38650W        W47450  19.122   0.098   3.870 -0.1143  0.2101  0.1206
38651W        W47451  30.346   1.755   5.141  0.1622  0.3246 -0.2484
38652W        W47452   6.010   3.617   8.603 -0.0533 -0.1150 -0.2143
38653W        W47453  14.151   5.503   8.324  0.0180 -0.1796  0.1267
38654W        W47454  22.072   1.523   1.217  0.1404 -0.0921 -0.1347
38655W        W47455   6.168   0.947   0.616 -0.0103 -0.1554  0.1708
38656W        W47456  15.189   3.110   9.278 -0.0519 -0.0057  0.2590
38657W        W47457  14.272   6.240  10.828  0.0714 -0.0288 -0.0948
38658W        W47458   9.168   2.918   9.196 -0.0221  0.1647 -0.0135
38659W        W47459   6.958   2.734  17.189 -0.0412 -0.1984 -0.0803
38660W        W47460  26.397   1.553  25.855 -0.0649 -0.1503  0.0775
38661W        W47461  17.294   0.631  17.737 -0.2315  0.1843  0.1149
38662W        W47462   4.646   7.257   2.309  0.0848  0.1259 -0.0146
38663W        W47463  13.785   1.391  17.277  0.0461  0.1943 -0.2703
38664W        W47464  15.635   0.927  17.640  0.0924  0.0094 -0.2075
38665W        W47465  18.958   7.497  25.943 -0.0640  0.2431 -0.0200
38666W        W47466  23.104   5.577  23.720 -0.2115  0.0256 -0.0409
38667W        W47467   1.290   0.870  16.385  0.2430 -0.3852  0.2856
38668W        W47468  15.859   4.859  21.740 -0.2635 -0.0847  0.1088
38669W        W47469  30.790   1.828   4.289 -0.1951  0.2213  0.2533
38670W        W47470  22.102   6.700  22.607  0.0490  0.2897 -0.1539
38671W        W47471   8.296   5.782  21.247 -0.0685  0.1663  0.2220
38672W        W47472  10.161   6.050  21.804  0.0322  0.1594 -0.0081
38673W        W47473  10.171   6.796  25.083  0.0310 -0.0009  0.1583
38674W        W47474   8.460   7.435   6.755  0.1306 -0.3401  0.2902
38675W        W47475   8.587   4.310  25.731 -0.1614  0.1729  0.0220
38676W        W47476  25.989   6.280   5.018  0.3058  0.1775 -0.0643
38677W        W47477   3.509   2.242  20.445  0.1204 -0.1950 -0.0962
38678W        W47478  30.872   3.774   7.431 -0.0790  0.0263  0.1924
38679W        W47479   6.725   3.542   4.471 -0.0333 -0.1495 -0.3140
38680W        W47480   0.953   6.419  10.860 -0.0403 -0.0143  0.3193
38681W        W47481   7.763   1.455  22.433  0.1954 -0.2029 -0.3210
38682W        W47482   1.517   3.558   5.106  0.1922 -0.0313  0.1724
38683W        W47483  23.591   3.947  18.972 -0.1308 -0.1951  0.3983
38684W        W47484   8.074   4.656  24.544  0.4565 -0.1972  0.0113
38685W        W47485   0.856   6.892   0.946 -0.0145 -0.0800 -0.1805
38686W        W47486  27.835   3.356  10.295  0.0422  0.0784 -0.5257
38687W        W47487  18.772   7.355  16.729 -0.2409  0.1339 -0.0787
38688W        W47488   3.844   7.474  16.379  0.2170 -0.0138 -0.1342
38689W        W47489  17.648   5.014  23.290  0.1734 -0.0175  0.5381
38690W        W47490   8.772   0.796   5.743 -0.2488  0.2565 -0.0355
38691W        W47491  11.410   3.296  20.393  0.1089 -0.1731  0.3407
38692W        W47492  12.884   2.286  17.531 -0.2638 -0.0231  0.2007
38693W        W47493  19.354   2.705   0.639 -0.1009  0.2067 -0.0643
38694W        W47494  28.393   5.384   4.773 -0.1262 -0.1790  0.1933
38695W        W47495   7.277   6.761   0.911 -0.0723 -0.0855 -0.2667
38696W        W47496  12.630   5.422   2.568 -0.0373  0.1488 -0.1815
38697W        W47497  31.161   0.679   0.699 -0.3397 -0.0219  0.1017
38698W        W47498  19.379   0.657  22.170  0.0547 -0.4340 -0.0400
38699W        W47499   2.508   4.039  24.650 -0.2708 -0.0487  0.0405
38700W        W47500   5.642   3.396  19.825  0.0410 -0.3567  0.1583
38701W        W47501   1.728   6.707  17.732 -0.2105  0.2031  0.2546
38702W        W47502   2.820   6.726  15.129  0.1589 -0.1373  0.2106
38703W        W47503  30.573   4.036   7.131 -0.3008 -0.0539  0.0525
38704W        W47504   8.708   7.529  21.288  0.2620 -0.0243  0.1152
38705W        W47505   8.646   5.553   5.987  0.0104 -0.1530  0.0578
38706W        W47506  12.294   3.953  26.034  0.0016 -0.1269  0.1109
38707W        W47507  10.694   0.939   0.712 -0.0045  0.0758 -0.1161
38708W        W47508   6.678   3.995   4.338  0.0144  0.0990  0.1666
38709W        W47509  23.203   7.612  21.990  0.2006  0.0759  0.0187
38710W        W47510  12.978   0.337   7.422 -0.0399 -0.1189  0.0243
38711W        W47511   2.694   0.460   1.186  0.3293  0.0016 -0.2334
38712W        W47512  20.670   7.493  21.747  0.0043  0.2249  0.1690
38713W        W47513   4.229   2.666  22.473 -0.1499  0.1558  0.1366
38714W        W47514  27.131   5.572   7.614 -0.2574  0.1933 -0.4022
38715W        W47515   8.379   4.981  23.135 -0.1717  0.1419 -0.3626
38716W        W47516   3.639   4.650   0.416  0.2113 -0.0159  0.0920
38717W        W47517  14.729   0.923  16.734  0.0438 -0.1842  0.1259
38718W        W47518   2.188   3.054   3.506  0.0905 -0.0852 -0.1251
38719W        W47519  20.601   7.462  19.546  0.2209 -0.1972 -0.0592
38720W        W47520  30.683   6.053   9.779  0.0336  0.1535 -0.1790
38721W        W47521   4.159   2.527  25.637  0.2324 -0.0861  0.1029
38722W        W47522   2.130   6.048  20.974  0.1145  0.0968  0.0692
38723W        W47523  24.404   4.699   9.705  0.3676 -0.1305  0.2029
38724W        W47524  25.502   4.725   1.681 -0.3160  0.2654 -0.0808
38725W        W47525   6.400   6.424  23.358  0.0295 -0.0432  0.4384
38726W        W47526  31.275   4.156  20.630  0.1439 -0.3107  0.1385
38727W        W47527  31.178   5.707   8.454 -0.0016  0.4883 -0.0931
38728W        W47528  10.867   5.944  20.588  0.3470 -0.2329  0.3805
38729W        W47529  17.341   3.205   4.074  0.0931 -0.0162  0.1451
38730W        W47530  19.753   6.622   8.950 -0.0884  0.0916  0.1456
38731W        W47531   8.950   4.691  10.464 -0.2679 -0.0230 -0.0326
38732W        W47532  13.058   7.141   6.293  0.0297  0.3401 -0.0705
38733W        W47533  13.691   6.164   2.866 -0.0971  0.2394 -0.1236
38734W        W47534  20.645   5.837  18.461 -0.1113  0.0511  0.1541
38735W        W47535  24.695   0.317  17.398  0.1650 -0.0902 -0.1093
38736W        W47536  28.470   2.964  20.727 -0.1068  0.0060  0.0468
38737W        W47537   9.513   2.372   2.622 -0.0602 -0.2835 -0.1348
38738W        W47538   5.678   7.156  24.037 -0.0311 -0.0083 -0.2178
38739W        W47539  16.006   6.695   7.521  0.2715  0.1201 -0.2112
38740W        W47540   7.654   7.006  20.890 -0.0396 -0.3215  0.2591
38741W        W47541  28.620   3.102  10.792 -0.0238 -0.0291 -0.1014
38742W        W47542   0.562   7.268   7.848  0.1986  0.1648 -0.3229
38743W        W47543  22.839   0.334   6.764  0.0418  0.1903  0.1655
38744W        W47544   9.039   1.962   9.148  0.4473  0.2523  0.0290
38745W        W47545   3.144   3.002   0.804 -0.1480 -0.2919 -0.1030
38746W        W47546   0.977   1.928  25.376  0.1693  0.0888 -0.0741
38747W        W47547  23.805   3.257  17.215 -0.1388 -0.3248  0.3924
38748W        W47548  28.098   5.881   7.745  0.1128  0.0210 -0.2672
38749W        W47549  23.693   0.483  21.379  0.1874 -0.0671 -0.5189
38750W        W47550   8.141   5.449  20.099  0.0762 -0.4304  0.1113
38751W        W47551  28.059   2.365   7.631  0.1041 -0.2247  0.0385
38752W        W47552  12.249   0.610   6.686 -0.0292  0.1871 -0.1236
38753W        W47553  10.581   3.233  17.715  0.1431  0.1408  0.3724
38754W        W47554   3.138   0.876  20.039 -0.0872 -0.2379 -0.0885
38755W        W47555  18.626   5.792   4.220  0.0614  0.0646  0.0801
38756W        W47556  10.554   5.283   4.074  0.0063 -0.1365 -0.0630
38757W        W47557  20.984   7.514  18.585  0.0726 -0.0845  0.0972
38758W        W47558   0.381   2.872   5.988 -0.4308 -0.3827  0.0515
38759W        W47559   8.796   6.128  22.525 -0.0424  0.0276 -0.0810
38760W        W47560   4.812   1.141  16.991  0.0609  0.1108 -0.1527
38761W        W47561  23.363   3.452  18.958  0.3841  0.3112  0.1216
38762W        W47562   7.563   1.280   6.631  0.1994  0.2224 -0.2220
38763W        W47563  23.875   2.730   8.027 -0.1092 -0.1950 -0.1309
38764W        W47564  22.228   4.498  21.360  0.0394 -0.2894  0.1412
38765W        W47565  10.541   5.696  10.410 -0.1169 -0.0804 -0.0316
38766W        W47566   3.053   5.059   6.888 -0.0567 -0.2008  0.0600
38767W        W47567   8.925   1.605   0.907 -0.0929 -0.2363 -0.2643
38768W        W47568  14.517   6.042  18.498  0.2584  0.1604  0.3461
38769W        W47569  24.533   0.549   0.222 -0.1118  0.0566 -0.0279
38770W        W47570   6.003   3.107  23.321 -0.0746 -0.2047  0.2962
38771W        W47571  15.400   1.790  25.861 -0.0619 -0.0297 -0.3422
38772W        W47572  10.545   0.154   8.435  0.1196  0.2191 -0.0367
38773W        W47573  11.129   5.155  22.692  0.1428  0.1314  0.1534
38774W        W47574   2.043   5.324   3.224  0.1388  0.1813 -0.0891
38775W        W47575  30.977   2.280  20.274 -0.0910  0.1207 -0.0183
38776W        W47576  10.199   2.675  25.375 -0.0560  0.0119  0.0914
38777W        W47577  16.929   5.076   4.513 -0.0768  0.2906  0.0303
38778W        W47578  23.116   5.731  18.523 -0.2625  0.2095 -0.1107
38779W        W47579   5.671   1.851  25.790 -0.2751  0.1646  0.0014
38780W        W47580  21.999   2.376  24.807  0.3737 -0.4233 -0.2766
38781W        W47581  17.220   0.334   1.683 -0.1929  0.0201  0.0462
38782W        W47582  29.325   4.629  17.369  0.2456  0.1785 -0.1246
38783W        W47583  14.410   6.235   7.208  0.0233 -0.2722 -0.1830
38784W        W47584  24.644   4.466  25.932  0.1009 -0.0186  0.1628
38785W        W47585  29.109   2.906  19.393 -0.0434  0.2201  0.0660
38786W        W47586  19.087   6.181   9.020  0.0588  0.0543  0.0033
38787W        W47587  21.167   4.170  20.748  0.0440  0.2938  0.1630
38788W        W47588   4.513   0.819   1.492  0.1890 -0.3121 -0.0179
38789W        W47589  26.212   0.753   0.251  0.1057 -0.3547 -0.3251
38790W        W47590  13.669   2.553   8.795  0.0373 -0.1943 -0.2739
38791W        W47591   1.034   2.368  20.745  0.1013 -0.1301 -0.0718
38792W        W47592   3.610   3.270   7.219  0.1527  0.0587  0.0485
38793W        W47593  27.476   4.610  16.311  0.2061  0.2919 -0.0855
38794W        W47594   1.552   1.663   1.617 -0.0828 -0.3673  0.1535
38795W        W47595  26.667   2.582  18.335  0.0467  0.3188  0.0990
38796W        W47596  15.566   3.849   9.632  0.1371  0.3783  0.0290
38797W        W47597  11.666   3.959   1.174  0.0087  0.0445 -0.3240
38798W        W47598  18.151   3.289  18.660 -0.0059 -0.0102  0.0283
38799W        W47599  30.210   6.546  25.373  0.1591  0.0991 -0.2518
38800W        W47600   9.938   4.957   6.229  0.2196  0.1760 -0.2123
38801W        W47601  20.929   6.658   1.439  0.1010 -0.2194  0.1358
38802W        W47602  22.047   0.918   9.988 -0.1207 -0.1769 -0.3672
38803W        W47603  25.788   2.521   0.417  0.1099 -0.4092 -0.0781
38804W        W47604   4.230   4.880   0.065 -0.0143 -0.1073  0.2448
38805W        W47605  16.396   5.088   5.838  0.0653  0.0782  0.1682
38806W        W47606  14.062   1.835  17.163 -0.1815 -0.0128  0.2015
38807W        W47607  23.995   3.948   2.205  0.2723  0.2450 -0.2551
38808W        W47608   1.510   0.818  17.968 -0.3170 -0.0729  0.0347
38809W        W47609  24.314   0.199  24.057 -0.4037  0.2248  0.3356
38810W        W47610  13.002   7.655   4.212  0.0837 -0.3408 -0.0720
38811W        W47611  25.831   6.467  20.452 -0.1172  0.2829  0.0467
38812W        W47612  18.446   1.532  17.265 -0.0816  0.0676  0.2527
38813W        W47613   6.900   7.645   3.907  0.0528 -0.0584 -0.2825
38814W        W47614  28.110   6.416   3.798  0.1147  0.0774 -0.1465
38815W        W47615  19.411   5.732  23.128 -0.0846  0.0181 -0.3299
38816W        W47616  24.349   5.511  16.817 -0.0426  0.0265 -0.2064
38817W        W47617   4.457   3.042  16.118 -0.3311 -0.0777  0.0137
38818W        W47618  15.514   6.586  18.035  0.3329  0.0170 -0.1740
38819W        W47619  13.438   5.900  16.649  0.1441 -0.1090 -0.1024
38820W        W47620  12.994   2.414   0.685 -0.1717  0.1334  0.0962
38821W        W47621  29.685   5.768  23.042 -0.1435  0.2650  0.2436
38822W        W47622  28.959   3.222   8.338 -0.2775 -0.0915  0.0088
38823W        W47623  19.960   4.238   8.960 -0.1887 -0.1310  0.0441
38824W        W47624  28.107   0.852  25.095 -0.0719  0.1147  0.0599
38825W        W47625  30.182   0.484   1.277 -0.2426  0.0766 -0.1169
38826W        W47626  18.575   2.063   9.246  0.1436  0.1753  0.2266
38827W        W47627  12.562   1.165  16.545 -0.0521  0.2101 -0.0823
38828W        W47628   4.193   5.632  24.086  0.1318  0.1625  0.1593
38829W        W47629   5.134   7.771  23.515  0.0166 -0.4015  0.1021
38830W        W47630  20.827   1.781  24.462  0.1176 -0.4394  0.2885
38831W        W47631  16.906   1.404   9.077 -0.0844  0.2466  0.0207
38832W        W47632  23.855   0.708   5.134 -0.1047  0.2369  0.1533
38833W        W47633   7.727   0.715  20.808 -0.1332  0.0343  0.1181
38834W        W47634  28.494   7.718  16.507  0.4558  0.0752  0.0103
38835W        W47635  30.776   6.468   1.782  0.0298 -0.1892 -0.3744
38836W        W47636   9.828   1.893  21.580 -0.0059  0.1364 -0.0196
38837W        W47637   5.240   2.475  16.218  0.1416  0.3061 -0.0678
38838W        W47638  16.295   7.381  11.016  0.0532  0.2294  0.2942
38839W        W47639   3.352   7.034  24.245  0.0438  0.3905 -0.1462
38840W        W47640   8.671   1.097   9.963 -0.1230 -0.0196  0.0080
38841W        W47641   6.870   2.747   2.902 -0.3864 -0.0470  0.2675
38842W        W47642  21.493   1.022  15.472  0.0922  0.1294 -0.0425
38843W        W47643   0.307   7.805  22.836 -0.0353  0.1407  0.0656
38844W        W47644  14.301   6.572   4.417 -0.0233  0.0820  0.0099
38845W        W47645   9.792   6.172   1.824 -0.1986 -0.1005 -0.1623
38846W        W47646   6.331   7.117   5.070 -0.0610  0.0626  0.2055
38847W        W47647   0.447   4.181  20.245  0.2989 -0.4175  0.1194
38848W        W47648   7.290   7.381  17.715 -0.4290  0.0736 -0.0803
38849W        W47649  27.108   0.315  19.155 -0.2181  0.4070  0.1283
38850W        W47650  15.615   1.072   0.569 -0.0829 -0.0902 -0.0962
38851W        W47651  13.986   5.734  19.378 -0.2682  0.1816  0.0500
38852W        W47652  17.700   4.792   6.698 -0.0688 -0.0674 -0.0312
38853W        W47653   9.917   5.257  17.062  0.0569 -0.3926  0.2834
38854W        W47654  26.454   6.116  25.784 -0.0777  0.1188  0.3542
38855W        W47655   4.213   3.913  19.615 -0.0509 -0.1042  0.1218
38856W        W47656  30.763   7.126  18.006 -0.0501 -0.1836 -0.2698
38857W        W47657  10.067   7.049  16.734 -0.3312 -0.1093 -0.2269
38858W        W47658  22.799   4.802   9.775  0.0482 -0.1706  0.0062
38859W        W47659  16.946   4.843   8.816 -0.0331  0.1909  0.0489
38860W        W47660   5.979   5.919   8.312 -0.1755  0.0238  0.0306
38861W        W47661  23.129   4.570  23.866  0.0646 -0.3807 -0.0355
38862W        W47662  30.075   2.205   9.753  0.0789  0.0008 -0.1467
38863W        W47663   2.241   1.634   4.081  0.0201 -0.0004  0.2880
38864W        W47664  27.787   1.689   8.201  0.0023  0.2436 -0.2536
38865W        W47665  28.618   5.406  22.650 -0.3333  0.3389 -0.2735
38866W        W47666  26.562   0.216  25.109  0.0332  0.1398 -0.0720
38867W        W47667  11.851   7.084  21.527  0.3153  0.1135 -0.1816
38868W        W47668   2.675   6.951  16.300  0.4242 -0.2674  0.0545
38869W        W47669   2.414   0.986   7.698  0.1868  0.1252 -0.1172
38870W        W47670   9.737   5.904   2.311  0.2457  0.0616  0.2920
38871W        W47671  20.912   4.064   8.034 -0.0830  0.0527  0.1018
38872W        W47672   1.396   3.363   7.813 -0.0084  0.0988  0.0589
38873W        W47673  25.087   3.174  19.341  0.0502  0.0637 -0.0546
38874W        W47674   4.282   1.575  20.546  0.1582  0.0297 -0.0385
38875W        W47675  13.126   3.640  23.119  0.1550  0.1063 -0.0977
38876W        W47676  24.819   1.268   1.388 -0.0222 -0.0660  0.2019
38877W        W47677  13.229   6.297  15.130 -0.2196 -0.1212  0.1277
38878W        W47678  11.092   4.878  23.568 -0.4163  0.0106 -0.2899
38879W        W47679  15.843   7.192  22.931 -0.1328  0.2390 -0.0205
38880W        W47680  11.364   1.852  15.755  0.1753 -0.2419  0.0346
38881W        W47681   7.218   5.053   2.050 -0.1054 -0.1701  0.0417
38882W        W47682  14.430   3.152   1.936 -0.2346 -0.0119  0.1079
38883W        W47683  24.103   0.191   5.705  0.0061  0.2099  0.0504
38884W        W47684   9.517   5.325  25.929 -0.0324  0.0364  0.0787
38885W        W47685  13.596   6.420   6.585 -0.0056  0.0859 -0.3201
38886W        W47686  13.965   2.171  15.720  0.1391 -0.0607  0.0373
38887W        W47687  14.132   6.037   1.686  0.0863  0.2409  0.1031
38888W        W47688  20.415   6.119   8.895 -0.2313 -0.0505 -0.1872
38889W        W47689  27.048   5.186  25.981 -0.1852  0.1851 -0.3205
38890W        W47690   0.648   6.686  20.034 -0.2062 -0.2311 -0.0840
38891W        W47691   2.738   3.355   5.762  0.0203 -0.1621  0.1521
38892W        W47692   1.198   0.136  21.070  0.1432  0.0956 -0.1185
38893W        W47693  27.815   7.036  20.816  0.1713  0.1282 -0.3449
38894W        W47694  30.919   5.579   9.596 -0.1353 -0.3651 -0.3702
38895W        W47695   2.578   0.893  15.996 -0.1342  0.0363 -0.1253
38896W        W47696  29.275   7.234   1.288  0.2922 -0.0414  0.0200
38897W        W47697  20.034   0.039  22.388  0.2438  0.0776 -0.1582
38898W        W47698  28.778   0.183   7.105 -0.2340 -0.1021 -0.1174
38899W        W47699  28.828   4.647   7.618  0.0599 -0.0034  0.1189
38900W        W47700   2.601   0.374  18.602  0.0573 -0.0117  0.1696
38901W        W47701   3.666   6.369  17.987 -0.0795  0.2240 -0.1119
38902W        W47702  18.492   1.200  10.292  0.1476  0.0113  0.1944
38903W        W47703  22.628   3.402   7.466  0.1243  0.4177 -0.1427
38904W        W47704  22.175   7.514  20.201 -0.0851 -0.1312 -0.0964
38905W        W47705   8.629   5.920   7.629 -0.1204  0.2225 -0.1075
38906W        W47706  21.328   7.508  25.608 -0.1016 -0.2723  0.1814
38907W        W47707   9.227   6.673   2.952 -0.5177 -0.1027  0.2548
38908W        W47708  30.301   5.252   8.269 -0.0569 -0.1996  0.2332
38909W        W47709  11.745   6.220   4.239 -0.5950  0.1457  0.2016
38910W        W47710  27.958   6.500  10.151 -0.0593 -0.2966  0.0529
38911W        W47711   5.646   5.217   9.585  0.0051 -0.1967  0.2764
38912W        W47712   4.997   4.696  20.937 -0.1158 -0.0475  0.1309
38913W        W47713  19.355   1.318  26.044  0.1957 -0.1333  0.1392
38914W        W47714  18.505   2.985   0.861 -0.0688  0.2426 -0.0727
38915W        W47715  10.155   0.218  10.295  0.0334  0.0586 -0.0153
38916W        W47716  29.262   0.172  17.517 -0.0460 -0.1951 -0.0790
38917W        W47717  24.309   5.421   6.025 -0.1662  0.0321 -0.1977
38918W        W47718   8.742   2.698   8.790 -0.1381  0.1985  0.2045
38919W        W47719  17.251   2.882  21.147  0.0090 -0.0752  0.0568
38920W        W47720  10.950   0.634   4.354 -0.0183  0.1398  0.2933
38921W        W47721   3.047   3.684  22.285  0.0033  0.2695 -0.0092
38922W        W47722   6.324   6.015  24.543  0.1144 -0.1197  0.0355
38923W        W47723  12.229   5.740  17.085 -0.0685  0.0353 -0.0915
38924W        W47724  13.566   2.822   7.736 -0.1887  0.0387  0.2881
38925W        W47725  12.819   1.877   0.390 -0.0362 -0.1379  0.1937
38926W        W47726  26.928   6.073  17.365  0.0857 -0.0038 -0.1211
38927W        W47727   3.142   0.139   4.127 -0.3989 -0.2136  0.2228
38928W        W47728  27.683   2.984  20.125 -0.0817  0.0403  0.2453
38929W        W47729  20.056   5.163  20.530  0.2889 -0.0271 -0.0119
38930W        W47730  10.090   0.627   9.459  0.1408  0.2951 -0.0410
38931W        W47731   2.796   3.786  24.965  0.0611 -0.4140  0.0082
38932W        W47732   5.175   2.256  17.033  0.0039 -0.0112 -0.0666
38933W        W47733   7.500   2.003  21.022 -0.3468 -0.2809  0.1876
38934W        W47734  12.006   4.034  22.157 -0.0499  0.0192 -0.1210
38935W        W47735   9.180   4.667   7.245  0.1002  0.1956 -0.2044
38936W        W47736   6.916   1.870  19.137  0.0559 -0.0358 -0.0535
38937W        W47737  11.427   3.164   9.655  0.2339 -0.0215  0.1089
38938W        W47738  17.813   5.275  16.094  0.1976 -0.0693 -0.0216
38939W        W47739  30.188   4.544   8.260 -0.2099 -0.3143  0.0517
38940W        W47740  19.513   6.576   0.766  0.0363 -0.1306 -0.0232
38941W        W47741  28.795   5.628   6.620 -0.0541  0.3139  0.3198
38942W        W47742  23.167   7.807  22.871  0.2199  0.4598  0.1305
38943W        W47743  14.460   1.490   9.411 -0.2675 -0.0387  0.2232
38944W        W47744  28.266   7.573  21.483 -0.1365 -0.0219  0.1881
38945W        W47745  20.282   3.247  11.015 -0.2444  0.0743 -0.1635
38946W        W47746   6.296   3.977   9.537 -0.4915 -0.0263  0.1121
38947W        W47747  27.573   4.593  24.381  0.1905 -0.0278  0.3395
38948W        W47748  27.750   1.688  17.561  0.0245 -0.2202 -0.2589
38949W        W47749   0.348   5.557  15.823  0.0530 -0.0494  0.2945
38950W        W47750   4.685   4.047  15.533  0.0512 -0.0702 -0.0865
38951W        W47751  27.531   3.501  17.962 -0.1160 -0.2188  0.1024
38952W        W47752  15.212   6.188  16.558 -0.0455  0.1134  0.1810
38953W        W47753  21.068   3.902   4.657  0.3103  0.2240  0.0319
38954W        W47754   5.808   0.983  25.901 -0.1203  0.2068 -0.1032
38955W        W47755  18.953   1.025   5.965 -0.2046  0.2280 -0.1043
38956W        W47756  30.284   7.645  19.427  0.1654 -0.1054  0.0006
38957W        W47757  25.168   3.986   0.521  0.0203  0.0320 -0.1951
38958W        W47758  18.400   7.808  23.500  0.1269  0.1326 -0.0287
38959W        W47759   0.782   6.471  22.812  0.2235  0.0351 -0.1520
38960W        W47760   2.948   7.757   3.323  0.1309 -0.1480 -0.1650
38961W        W47761  20.454   5.598  16.542  0.0083 -0.0827  0.2915
38962W        W47762  27.383   2.509   7.118  0.0510 -0.1360  0.0840
38963W        W47763   5.909   1.777   0.637  0.1596 -0.0462 -0.3785
38964W        W47764   3.755   2.417   6.470  0.1208 -0.0306  0.2163
38965W        W47765  24.394   0.873   8.751 -0.0260  0.0474  0.0660
38966W        W47766  19.205   5.967   1.006  0.2646  0.1013 -0.1632
38967W        W47767  16.809   7.389  22.161 -0.1188  0.1638 -0.0614
38968W        W47768  22.956   7.249  10.403 -0.0933 -0.0266  0.1004
38969W        W47769  14.095   4.382   9.296  0.1388  0.1168 -0.0508
38970W        W47770   8.280   2.974   6.441  0.1026  0.2246  0.2468
38971W        W47771  24.182   3.996  24.985  0.1287  0.0357 -0.1168
38972W        W47772  22.997   2.002   8.532 -0.4262 -0.2254  0.1044
38973W        W47773  26.576   4.520   3.488 -0.1333 -0.0510  0.0518
38974W        W47774  13.865   0.567  25.393  0.0913  0.0795 -0.1538
38975W        W47775  20.518   4.050   4.932 -0.1331  0.1280  0.2505
38976W        W47776  26.278   0.033  17.091  0.1081 -0.2906 -0.0318
38977W        W47777   6.026   3.028  19.075  0.1286  0.0728  0.1487
38978W        W47778   9.727   7.261  15.452  0.3855 -0.1873 -0.1543
38979W        W47779  14.000   7.608   9.908 -0.0870 -0.0366  0.0715
38980W        W47780  23.360   5.388  21.879 -0.0155  0.1041  0.1185
38981W        W47781  13.887   5.626   3.756  0.0605 -0.2118  0.0205
38982W        W47782  23.307   0.617   3.676  0.0691 -0.3982 -0.4017
38983W        W47783   6.704   3.555   0.569  0.2257 -0.1254 -0.0717
38984W        W47784   4.052   1.679   3.163 -0.0574 -0.1887  0.5279
38985W        W47785  20.537   2.402   3.290  0.1201 -0.1624  0.2740
38986W        W47786   8.262   6.499   0.518 -0.2952 -0.1804  0.1268
38987W        W47787  10.939   0.055  23.839  0.1536 -0.0462 -0.0949
38988W        W47788  29.474   0.874  25.729 -0.0117 -0.0038  0.0405
38989W        W47789   8.445   0.899   4.879  0.3566 -0.0524  0.2086
38990W        W47790  30.846   0.794  15.120  0.2822  0.3632  0.1887
38991W        W47791  12.320   5.289   2.153  0.0586  0.1105 -0.0250
38992W        W47792  19.476   2.100  10.471  0.0332  0.2094  0.0088
38993W        W47793  24.700   2.477   1.271 -0.2867  0.0107  0.1695
38994W        W47794   5.959   2.196   9.296 -0.1358 -0.1560  0.0183
38995W        W47795  31.126   1.361   2.173  0.4042  0.0932  0.1026
38996W        W47796   3.444   3.591  25.644 -0.0912  0.0146  0.0303
38997W        W47797  14.226   6.508  16.160 -0.0055 -0.1290  0.0125
38998W        W47798   2.260   4.990  18.258  0.1146 -0.2036 -0.2480
38999W        W47799  22.726   7.417  21.048  0.0463 -0.0541 -0.0431
39000W        W47800  10.343   5.042  25.762  0.1376  0.0318 -0.1244
39001W        W47801  19.425   0.712   2.313  0.2223  0.1183  0.0779
39002W        W47802   9.234   2.527   0.255  0.0715 -0.1497  0.1543
39003W        W47803   4.507   1.745  24.389  0.1280  0.1336  0.1736
39004W        W47804  22.546   4.677   5.385  0.1651  0.1107  0.1868
39005W        W47805  29.072   4.718  19.662  0.2633  0.1760  0.0461
39006W        W47806   4.253   1.980   4.652  0.0979 -0.3108 -0.2369
39007W        W47807  29.119   3.819  17.316 -0.1305 -0.0969  0.1107
39008W        W47808   0.312   0.161  21.001 -0.1087 -0.0331  0.1217
39009W        W47809  21.443   7.434   8.010  0.0106  0.2275  0.0105
39010W        W47810   7.246   0.735  22.212 -0.1899  0.1475  0.0748
39011W        W47811  31.067   3.311   6.191  0.1786  0.1310 -0.1355
39012W        W47812  23.670   4.963   8.467  0.1816  0.2477 -0.3158
39013W        W47813  19.951   3.069   3.489 -0.0311 -0.1603 -0.1086
39014W        W47814   0.169   3.810   0.645 -0.2111 -0.1050  0.3063
39015W        W47815   9.912   6.434   3.711 -0.1504 -0.0595 -0.0848
39016W        W47816   8.384   0.943  19.605 -0.1508 -0.1356  0.1041
39017W        W47817  19.719   5.976  22.388  0.0530 -0.0868 -0.1017
39018W        W47818  18.463   3.348   9.270 -0.0798 -0.0923 -0.1305
39019W        W47819  29.600   3.533  25.390  0.2174 -0.0248  0.2353
39020W        W47820   6.463   0.658   8.150 -0.1057  0.1898 -0.1360
39021W        W47821  10.156   2.032   4.205  0.3345 -0.2020  0.1110
39022W        W47822  10.858   6.954  21.065  0.3318 -0.1380  0.0695
39023W        W47823   4.785   4.760   0.105  0.0913  0.3759 -0.0865
39024W        W47824  23.758   5.121  22.567  0.2055  0.0186  0.0205
39025W        W47825   8.277   2.060  15.858  0.2426  0.2943  0.3382
39026W        W47826  23.780   2.974   5.458  0.0924 -0.1597  0.0129
39027W        W47827  27.970   2.285   1.902  0.3435 -0.0853  0.0922
39028W        W47828   6.250   7.326  17.267 -0.0158 -0.1106  0.1201
39029W        W47829   4.424   2.840  15.444  0.0401  0.1938 -0.0041
39030W        W47830  12.575   6.840   1.001 -0.2473 -0.1826  0.0035
39031W        W47831  27.725   7.487  19.021  0.1169 -0.0400 -0.0197
39032W        W47832  24.912   7.687   4.186 -0.2120  0.0507 -0.2476
39033W        W47833  25.208   5.783  16.664  0.0587 -0.1677 -0.2463
39034W        W47834  27.207   4.838  20.725  0.1711 -0.0242 -0.1003
39035W        W47835   1.304   4.256  17.853  0.0871  0.0625 -0.0144
39036W        W47836   6.941   2.381  20.400  0.0510  0.1043  0.0176
39037W        W47837  30.988   0.091   7.865  0.0050 -0.0297  0.0373
39038W        W47838   6.897   1.619  18.192  0.3053  0.3183 -0.0167
39039W        W47839  19.788   3.438  19.619  0.0419 -0.1952 -0.1905
39040W        W47840   2.642   2.342   3.750  0.0304 -0.0111 -0.0142
39041W        W47841  21.196   0.206  15.574  0.0872  0.1335  0.1634
39042W        W47842   2.454   1.963   5.935 -0.4438 -0.2212 -0.0776
39043W        W47843  23.865   5.969  17.490  0.3041  0.1304 -0.3633
39044W        W47844  13.775   1.078   5.219  0.0154 -0.1684 -0.1466
39045W        W47845  20.421   4.589   4.986 -0.0827  0.1904  0.0528
39046W        W47846  26.307   5.467   7.919 -0.2434  0.0030  0.1125
39047W        W47847  10.041   6.026  16.659 -0.2112 -0.1119 -0.1007
39048W        W47848  30.331   4.345   5.670  0.1667  0.1465 -0.0187
39049W        W47849  28.201   7.420   5.780  0.2352 -0.1906  0.1217
39050W        W47850  21.916   5.294   0.709 -0.1259 -0.1755  0.1928
39051W        W47851  11.075   0.511  10.261  0.0623  0.0871  0.0986
39052W        W47852   2.036   0.478  17.163 -0.1999 -0.1936  0.0195
39053W        W47853  20.250   2.914   5.228 -0.1048 -0.1809  0.1363
39054W        W47854  14.788   7.725  25.100  0.1686 -0.0271  0.0307
39055W        W47855  15.084   3.219  17.500 -0.2852 -0.2937 -0.0764
39056W        W47856   8.931   6.223   6.285 -0.1710  0.1382 -0.1401
39057W        W47857  29.609   1.280  19.206  0.1170  0.2564  0.2369
39058W        W47858  13.706   2.239   0.904  0.0284 -0.2404  0.0048
39059W        W47859  13.496   7.762  10.804 -0.0472 -0.0463 -0.1141
39060W        W47860  22.031   6.498  25.988  0.2820  0.1075 -0.1901
39061W        W47861  27.360   7.300  20.880 -0.0725 -0.0840  0.1522
39062W        W47862  30.164   6.699   5.108 -0.1376 -0.0840 -0.1612
39063W        W47863  23.498   0.750   5.526 -0.1100  0.1657  0.0661
39064W        W47864  17.645   2.032  21.275  0.1814 -0.2088  0.3163
39065W        W47865  13.209   5.139  23.154  0.0379  0.2424 -0.1367
39066W        W47866   0.952   2.451   3.869 -0.0616 -0.1290 -0.0229
39067W        W47867  20.075   5.736  25.769  0.2045 -0.0659 -0.0568
39068W        W47868  18.071   6.011   3.181  0.0392 -0.0068  0.1705
39069W        W47869  21.311   7.687  19.113 -0.2148  0.0280 -0.5333
39070W        W47870  16.329   6.200   3.727 -0.1009  0.3085 -0.1159
39071W        W47871   0.290   3.126   8.794 -0.3367 -0.5220 -0.1505
39072W        W47872  24.754   1.647  10.729  0.0232 -0.1555 -0.0677
39073W        W47873  22.760   2.159  15.693  0.1601  0.0802  0.1136
39074W        W47874   5.508   4.004   5.072 -0.1905 -0.0020 -0.0391
39075W        W47875  21.690   5.384  11.499 -0.1456  0.0946  0.1434
39076W        W47876  23.327   0.021   2.270  0.0192 -0.0649 -0.3813
39077W        W47877  14.863   1.833   9.235 -0.0132  0.2251 -0.1111
39078W        W47878  27.991   4.868  22.791  0.0338  0.1985 -0.0544
39079W        W47879  27.900   5.427  15.769  0.0520  0.1325 -0.1343
39080W        W47880  27.564   0.825  10.291 -0.0256 -0.1751  0.1870
39081W        W47881  13.682   3.581   3.069  0.4094  0.0923 -0.1798
39082W        W47882  30.057   1.257  17.093  0.1029  0.0386  0.0445
39083W        W47883  27.839   0.883  16.159  0.2031  0.0791  0.1098
39084W        W47884  14.421   0.836   3.476 -0.0591  0.2959  0.3374
39085W        W47885  22.228   0.521   8.829 -0.0416  0.0404 -0.1277
39086W        W47886  28.938   0.310  24.106  0.2002  0.0951 -0.0243
39087W        W47887  19.137   6.522  25.066  0.0462 -0.0762  0.2708
39088W        W47888  19.370   2.357  16.147  0.1567 -0.1162  0.0198
39089W        W47889   3.070   6.236  21.738  0.0196  0.1946  0.0358
39090W        W47890   9.462   7.691  16.370  0.0585  0.3820 -0.0479
39091W        W47891   6.323   2.864  18.695  0.1332  0.0571  0.0027
39092W        W47892   0.136   3.659   2.253  0.0729 -0.1864  0.0351
39093W        W47893  29.783   4.019   0.758 -0.1077  0.0866  0.1091
39094W        W47894  18.481   4.921  17.810 -0.0163 -0.1722 -0.0392
39095W        W47895  28.350   3.827  25.042 -0.2826  0.1276  0.1897
39096W        W47896  18.902   1.064   8.070 -0.0741  0.1003 -0.2154
39097W        W47897   2.444   2.291  20.904  0.1383 -0.1397  0.0978
39098W        W47898   0.359   1.931   0.965  0.1429  0.3261  0.1185
39099W        W47899   3.886   6.461   0.704 -0.0458  0.3586  0.1188
39100W        W47900  10.484   0.049  25.090  0.1000  0.1677  0.2357
39101W        W47901  10.372   2.942  16.091 -0.1646  0.3257 -0.0296
39102W        W47902  16.721   0.957   7.170  0.0022  0.2854  0.0972
39103W        W47903  17.102   1.315  15.545 -0.0577  0.0265  0.1189
39104W        W47904  27.332   3.460   0.463  0.2891 -0.1426 -0.0498
39105W        W47905  22.519   4.509  23.167  0.0630 -0.2070 -0.1236
39106W        W47906   3.441   5.867   5.799  0.0458  0.2487 -0.1450
39107W        W47907  19.896   2.317   5.063 -0.0253  0.2508 -0.1560
39108W        W47908  30.308   1.199  22.178  0.2232  0.0595  0.0630
39109W        W47909  16.953   4.993   7.812 -0.1577 -0.0697 -0.0625
39110W        W47910  14.453   5.281  25.209  0.0091 -0.0901  0.1206
39111W        W47911   3.562   4.417  26.036 -0.1669 -0.2176  0.1583
39112W        W47912  13.456   5.643  25.110 -0.2254  0.1311  0.0686
39113W        W47913  24.405   4.669  22.195 -0.1028  0.1732 -0.1240
39114W        W47914   7.934   0.598   3.566  0.0175  0.1582  0.0850
39115W        W47915  21.157   1.324   0.978 -0.1758 -0.0510 -0.1008
39116W        W47916  24.072   3.512   7.562  0.1230 -0.1073  0.1665
39117W        W47917  26.414   7.427  11.211 -0.2415 -0.3650 -0.0259
39118W        W47918  13.766   7.062  22.261 -0.0672 -0.2579  0.2337
39119W        W47919  17.921   7.238   6.933 -0.2811  0.0756  0.1066
39120W        W47920   3.859   0.830   0.284 -0.0466  0.2278 -0.1212
39121W        W47921   8.069   3.768  16.028  0.4299 -0.1280  0.0167
39122W        W47922   9.594   7.856  26.006  0.0235  0.0800 -0.0707
39123W        W47923  11.677   6.838  18.235  0.3314  0.0047 -0.1107
39124W        W47924   4.077   2.260  22.798  0.0510  0.1600  0.0573
39125W        W47925  30.436   7.506  17.049 -0.0722 -0.1021  0.3740
39126W        W47926  28.256   6.992   0.698  0.2532  0.2111  0.2947
39127W        W47927   0.308   5.916  25.679 -0.2300  0.2353  0.1332
39128W        W47928  24.069   5.476  25.551 -0.2509  0.0368 -0.0688
39129W        W47929  20.474   7.153   4.712  0.0387  0.3650 -0.0938
39130W        W47930  28.242   6.294  22.625 -0.2102 -0.0040 -0.1381
39131W        W47931  19.774   0.870   7.615 -0.0862 -0.0639 -0.0359
39132W        W47932   5.001   2.998  16.915 -0.0523 -0.0622 -0.5988
39133W        W47933  21.077   2.713  18.898 -0.1646 -0.2300  0.1999
39134W        W47934  29.862   0.714   2.815  0.3632 -0.0859  0.0636
39135W        W47935  27.307   3.654   8.481 -0.0218 -0.0434 -0.2907
39136W        W47936   9.933   1.851   4.664 -0.0906  0.1020 -0.1773
39137W        W47937  27.283   1.503   9.404 -0.0401  0.1732  0.0035
39138W        W47938  24.058   0.029  18.323 -0.2889 -0.0217  0.1100
39139W        W47939  25.767   1.755   2.555  0.2354  0.1227  0.0336
39140W        W47940  31.322   2.364   6.023  0.1058 -0.0847  0.0887
39141W        W47941  30.343   6.166   7.602  0.2286 -0.2272  0.1037
39142W        W47942  12.333   5.199   9.456 -0.0951 -0.0194 -0.1398
39143W        W47943  25.068   1.716   1.513 -0.1793 -0.3209 -0.0092
39144W        W47944   2.652   0.067   2.807 -0.0011  0.1259  0.1453
39145W        W47945   8.275   5.524   6.332 -0.0308  0.3188 -0.0256
39146W        W47946  24.750   4.740  10.563 -0.0009 -0.0044 -0.0304
39147W        W47947  14.020   7.725   8.184 -0.0411 -0.2215 -0.0099
39148W        W47948  13.417   1.433  20.998 -0.0680  0.0589  0.2426
39149W        W47949  27.473   3.930  22.802 -0.2336  0.1682  0.3515
39150W        W47950  16.164   3.352  22.290  0.0488  0.0869 -0.1662
39151W        W47951  24.369   5.934   2.445 -0.1406  0.0855 -0.0566
39152W        W47952  23.544   0.845  19.590 -0.1413  0.3506  0.0934
39153W        W47953  18.229   5.386  10.567 -0.1092  0.1995 -0.0395
39154W        W47954   8.500   0.698   0.457  0.0341 -0.2143 -0.0868
39155W        W47955  11.225   1.009  21.037 -0.2511 -0.0737 -0.2190
39156W        W47956  13.187   6.030  24.127 -0.2733 -0.2433  0.0124
39157W        W47957  26.470   2.449   1.498  0.2126  0.0944 -0.1368
39158W        W47958  13.546   7.781  19.701 -0.0994 -0.0780  0.0937
39159W        W47959   6.994   1.648   2.330 -0.2746  0.1175  0.0348
39160W        W47960  12.531   6.731  17.080  0.1191  0.0523  0.0917
39161W        W47961  20.023   7.245   8.695 -0.1408 -0.0804 -0.1172
39162W        W47962  17.000   5.684  25.658 -0.0500  0.1899 -0.0803
39163W        W47963  15.330   7.207  23.001 -0.0679  0.0173 -0.1087
39164W        W47964  11.701   1.969  23.707  0.1687 -0.0521  0.0285
39165W        W47965  30.871   4.681   9.515 -0.1053  0.1790 -0.2999
39166W        W47966  19.636   1.966  10.980 -0.0167  0.3054 -0.1479
39167W        W47967   9.680   7.299  19.194 -0.1233 -0.4374  0.0277
39168W        W47968  28.017   7.096   3.212  0.0191  0.1392 -0.2803
39169W        W47969  25.364   5.613   5.333 -0.1858 -0.1105 -0.6844
39170W        W47970  18.418   5.098   3.450  0.0534 -0.0024 -0.0854
39171W        W47971   4.153   2.947   1.042  0.0626  0.2955 -0.0013
39172W        W47972  23.906   2.013   3.115  0.1321 -0.1362 -0.3108
39173W        W47973  16.590   7.281  17.725  0.0929  0.0223  0.2599
39174W        W47974  17.020   7.622   9.188  0.2233 -0.3160 -0.2636
39175W        W47975  16.211   2.117   6.701  0.4165 -0.1126 -0.0773
39176W        W47976  18.478   5.677  18.483 -0.0035  0.2122  0.0686
39177W        W47977  24.471   4.537  20.783 -0.1045 -0.3547 -0.1540
39178W        W47978  21.000   6.048   6.475  0.0357 -0.1068  0.0707
39179W        W47979  30.454   3.398  16.324 -0.1892 -0.0872  0.0569
39180W        W47980  15.747   5.224   7.766 -0.1015  0.2678  0.0838
39181W        W47981   6.235   2.258   6.340  0.0289 -0.0043 -0.1889
39182W        W47982  14.690   2.571   6.853  0.2192  0.1647  0.1285
39183W        W47983  12.495   2.887   3.136 -0.1924 -0.0012 -0.2660
39184W        W47984  24.442   1.154   4.157 -0.1581  0.2119 -0.0012
39185W        W47985  20.897   1.942  16.055 -0.0242  0.3068  0.0834
39186W        W47986   3.589   0.572  23.933  0.2722  0.0946  0.3222
39187W        W47987  28.293   4.182  23.600 -0.0246 -0.0471 -0.1867
39188W        W47988  21.102   0.921  19.124 -0.1600 -0.0937 -0.0520
39189W        W47989  19.757   6.450  22.236  0.0888  0.2884  0.0281
39190W        W47990  24.012   5.929  23.130 -0.4593 -0.0493 -0.1363
39191W        W47991  10.290   2.036  20.604 -0.1365 -0.1608 -0.1817
39192W        W47992   9.920   4.717   4.517 -0.2699  0.1101  0.0842
39193W        W47993  28.594   3.755   3.182  0.1834  0.1988 -0.1390
39194W        W47994  25.556   1.249  23.085  0.0530 -0.3013 -0.0721
39195W        W47995   8.007   5.663   9.336  0.1860  0.1140 -0.2582
39196W        W47996  29.036   6.735   6.826 -0.1366  0.1384  0.0209
39197W        W47997  26.646   0.029   6.084  0.2819  0.0431  0.1038
39198W        W47998   0.292   0.551   7.792  0.0880  0.1616 -0.2519
39199W        W47999   2.570   4.789  22.543  0.2823 -0.3883  0.0336
39200W        W48000  24.400   3.487  24.386  0.0332  0.0789 -0.0270
39201W        W48001   8.709   1.648  20.656 -0.0531  0.0731 -0.1098
39202W        W48002  23.178   4.867   4.610  0.2451 -0.1421  0.2064
39203W        W48003   8.972   1.357  19.722  0.0586 -0.2198 -0.1629
39204W        W48004  17.915   3.517   6.541  0.1812  0.1139  0.0851
39205W        W48005   1.504   0.541   4.489 -0.2396 -0.2095  0.0034
39206W        W48006  21.703   3.148  22.604  0.0353  0.2142 -0.4162
39207W        W48007  21.980   7.172  24.951 -0.0477 -0.1431  0.3463
39208W        W48008  18.562   2.622  25.581 -0.1274 -0.0270 -0.1355
39209W        W48009   1.981   6.248  18.713 -0.1200  0.1285 -0.1768
39210W        W48010   7.310   2.876  17.682  0.2810  0.2327  0.0854
39211W        W48011  10.292   1.534  17.800  0.1564 -0.2704  0.1138
39212W        W48012   0.379   5.711  24.067 -0.1101  0.3581  0.1336
39213W        W48013   9.604   2.482  16.222  0.2384 -0.2855  0.1889
39214W        W48014   1.118   3.548  25.893  0.1716  0.1942  0.1316
39215W        W48015  29.157   5.654   3.480 -0.1970 -0.0403  0.3835
39216W        W48016  30.221   6.182   0.443  0.2623  0.2698 -0.0299
39217W        W48017  27.282   6.299   1.677 -0.2711  0.0193 -0.2336
39218W        W48018  22.694   4.900   0.261 -0.0359 -0.0684 -0.1290
39219W        W48019  28.866   2.657   4.767  0.0851 -0.0036  0.1556
39220W        W48020  30.162   3.924   1.294 -0.2381  0.0705  0.0890
39221W        W48021  17.381   1.719  11.086  0.2517  0.2011  0.2375
39222W        W48022   4.470   4.137   1.483 -0.2684  0.2464  0.1091
39223W        W48023   7.482   6.187   9.090  0.2467  0.3669 -0.0769
39224W        W48024  12.401   5.700  10.574  0.2210  0.0103  0.2252
39225W        W48025  24.962   6.253  18.022  0.0755  0.1785 -0.2649
39226W        W48026   4.154   5.334  19.083 -0.3587  0.3087  0.1399
39227W        W48027  20.912   3.710   4.263 -0.1643  0.1774 -0.1147
39228W        W48028  26.352   2.646   9.596  0.3315  0.1643 -0.1871
39229W        W48029  14.696   6.442   9.738 -0.1758  0.2652 -0.0488
39230W        W48030  13.450   7.833  23.057 -0.0519  0.1250 -0.0045
39231W        W48031  18.216   2.892   2.753 -0.2709 -0.2597 -0.1060
39232W        W48032  28.311   6.939  19.594  0.3851 -0.0468 -0.0915
39233W        W48033  27.582   3.337   7.469  0.1132  0.1586 -0.0370
39234W        W48034   0.200   1.126  24.300  0.0766 -0.1680 -0.0168
39235W        W48035   7.390   1.742  18.194  0.1388 -0.1599  0.0496
39236W        W48036  11.698   2.020  11.082 -0.2450 -0.1738  0.1985
39237W        W48037   5.170   0.471   7.141  0.1102 -0.0636  0.0649
39238W        W48038  27.051   2.132   1.255 -0.4140  0.0648  0.2534
39239W        W48039   7.991   5.286  22.886 -0.0544 -0.0000  0.1176
39240W        W48040   0.268   4.995   8.681 -0.0804 -0.1528 -0.1775
39241W        W48041   3.339   4.055   7.764 -0.2713  0.0472 -0.0862
39242W        W48042  17.201   7.752  23.986  0.1317 -0.0158 -0.0174
39243W        W48043  11.072   0.384   0.672  0.0843 -0.2741  0.3069
39244W        W48044  26.413   4.798   2.001 -0.1206  0.2502 -0.5167
39245W        W48045   4.811   0.782  23.692 -0.0991  0.0039  0.1916
39246W        W48046   3.273   0.096  18.733  0.2954  0.1717  0.2210
39247W        W48047  30.002   1.734  10.545  0.0661 -0.0861 -0.0783
39248W        W48048  22.163   5.201  18.620 -0.1124 -0.2941  0.1723
39249W        W48049  14.967   6.608   1.872  0.0644 -0.1252  0.2584
39250W        W48050  15.815   3.107  11.085 -0.1023 -0.2972  0.0404
39251W        W48051   0.533   6.514   9.500  0.1217  0.3609  0.0106
39252W        W48052  14.937   0.330  17.489 -0.0746  0.2383 -0.0057
39253W        W48053  22.207   3.577   9.245 -0.2789  0.0893  0.3454
39254W        W48054   1.944   7.407  24.069 -0.0981  0.2153 -0.0674
39255W        W48055   4.647   3.154   2.643  0.0704  0.2230  0.2053
39256W        W48056   1.731   3.355  21.675 -0.0437  0.0081  0.0576
39257W        W48057   1.072   3.082  19.831  0.2064  0.0465  0.2456
39258W        W48058   4.985   1.539   7.002 -0.0156  0.2598  0.1525
39259W        W48059  14.441   2.547   1.910  0.1873  0.3505 -0.2712
39260W        W48060  22.507   4.794  22.418  0.1467  0.1615  0.1989
39261W        W48061  28.894   5.708   1.329  0.2035  0.3540  0.0478
39262W        W48062   0.637   6.785  18.699  0.1078  0.0368  0.2487
39263W        W48063  19.883   5.412   9.686 -0.0957  0.0042 -0.2520
39264W        W48064  21.499   2.227  21.142 -0.1981 -0.1631  0.0631
39265W        W48065  13.053   5.043  17.554  0.1893 -0.0914 -0.0848
39266W        W48066   8.960   1.114  25.772 -0.0366 -0.2434  0.3342
39267W        W48067   7.642   0.264  24.200  0.1397  0.1953  0.3977
39268W        W48068  30.317   5.727   0.316 -0.1011 -0.0374 -0.2128
39269W        W48069  29.701   4.119   2.562 -0.1604  0.2167 -0.2267
39270W        W48070  29.920   6.394  24.733 -0.0218  0.4233  0.2712
39271W        W48071  16.608   5.419  22.157 -0.1082  0.0049  0.0519
39272W        W48072   9.900   2.876  24.131 -0.1293 -0.4241  0.1184
39273W        W48073  28.439   6.606   9.517  0.0508  0.0088  0.3226
39274W        W48074  27.142   6.193   2.917  0.0978  0.1554  0.1462
39275W        W48075   3.046   6.257   0.194  0.2968  0.0810 -0.0383
39276W        W48076   4.668   1.991  19.266 -0.0367  0.0765  0.0111
39277W        W48077   9.347   4.979  16.003  0.1391  0.1133 -0.0422
39278W        W48078  26.385   3.604  24.316 -0.1054 -0.0310  0.1405
39279W        W48079  10.535   1.993  17.629  0.1412 -0.2582 -0.0661
39280W        W48080  30.496   2.622  20.064 -0.2539 -0.1286 -0.1777
39281W        W48081  24.064   5.850   9.762  0.1422  0.2863  0.1071
39282W        W48082   9.973   5.710   4.671 -0.1189 -0.0662 -0.0455
39283W        W48083  28.410   2.480   2.413  0.1581 -0.0290 -0.1753
39284W        W48084  14.287   1.527   5.144 -0.1372  0.0733 -0.0158
39285W        W48085  18.362   5.141  19.682 -0.0367 -0.1644  0.1846
39286W        W48086   1.349   2.328  16.744  0.1693  0.1084 -0.5417
39287W        W48087  25.727   6.887   6.476 -0.3832  0.0734  0.1175
39288W        W48088   8.969   3.203  25.595  0.0406  0.0439 -0.1204
39289W        W48089  13.711   0.828  10.111 -0.0376  0.0038 -0.2727
39290W        W48090  12.066   0.502   8.648  0.1362  0.0265  0.2031
39291W        W48091  22.123   2.509   5.666  0.4233  0.2767 -0.0849
39292W        W48092  28.770   6.818   3.951  0.0625 -0.0937  0.3099
39293W        W48093  16.641   4.505  20.500  0.1259 -0.0598  0.0605
39294W        W48094   8.455   0.281   8.891  0.0344 -0.0769  0.1686
39295W        W48095  14.115   4.099  15.119  0.3130  0.0628 -0.1902
39296W        W48096  18.109   7.050  20.281 -0.1870 -0.1634 -0.0124
39297W        W48097  10.146   0.163  19.008  0.0623  0.1146  0.0522
39298W        W48098   8.100   5.377  23.844 -0.1406  0.4182 -0.2754
39299W        W48099  28.565   6.394  25.899 -0.3690  0.0553  0.1949
39300W        W48100  18.681   0.111  11.229  0.1259  0.4334 -0.0564
39301W        W48101  29.987   7.073  15.735 -0.0529  0.1860  0.1258
39302W        W48102  11.556   4.844   3.282 -0.1084  0.1215  0.1230
39303W        W48103  28.416   2.835   4.938 -0.5068  0.1120  0.0267
39304W        W48104   1.176   4.387  10.634  0.1756 -0.3081 -0.2623
39305W        W48105  16.989   0.310  25.787 -0.2178 -0.0141  0.0226
39306W        W48106  30.303   3.603   0.959  0.0191  0.0598 -0.1247
39307W        W48107  26.777   2.856   4.989  0.2133  0.0823  0.0740
39308W        W48108  19.988   0.425   3.294 -0.0847  0.1224 -0.4010
39309W        W48109  19.879   6.125  20.020 -0.2603 -0.0142  0.0006
39310W        W48110  26.670   4.347  25.737  0.1168 -0.2231  0.2148
39311W        W48111   2.546   0.914  21.471 -0.0563  0.3667 -0.0462
39312W        W48112   9.623   3.518   5.921  0.1771  0.0413 -0.0537
39313W        W48113   7.076   1.840  17.721 -0.0898  0.0254 -0.3441
39314W        W48114  22.016   4.999  11.531  0.0807  0.1456  0.3000
39315W        W48115  25.723   2.845   1.842  0.1731  0.0777  0.0528
39316W        W48116   2.706   4.238  19.215 -0.1155 -0.1952 -0.1844
39317W        W48117  26.970   6.147  15.339 -0.1273 -0.2250  0.0952
39318W        W48118   4.880   6.532   2.619  0.1178 -0.0405  0.0242
39319W        W48119   0.152   4.703  17.438  0.1218 -0.0641 -0.2751
39320W        W48120   3.934   2.889   0.497  0.1972  0.1459  0.3090
39321W        W48121  20.465   0.903  24.247  0.0612  0.0764 -0.0436
39322W        W48122   3.744   1.045  18.503 -0.0627  0.1585 -0.2511
39323W        W48123   7.976   5.389  25.079 -0.1055 -0.1022  0.1651
39324W        W48124  31.211   1.290  22.380 -0.1287 -0.0618 -0.3123
39325W        W48125  11.104   4.546   5.193 -0.2828 -0.0006 -0.1395
39326W        W48126  23.876   3.282   7.075 -0.3043  0.0962  0.1130
39327W        W48127  17.381   5.872   1.006 -0.1355 -0.2004 -0.0030
39328W        W48128   4.790   6.064  17.394  0.0313 -0.1200  0.2274
39329W        W48129  19.320   0.968   0.867 -0.0452  0.1218  0.2725
39330W        W48130  16.890   1.175  20.604 -0.1455 -0.1700  0.0390
39331W        W48131  14.178   3.501  25.932 -0.2195 -0.1329 -0.0301
39332W        W48132   8.581   3.442   9.154  0.0307  0.2282  0.3162
39333W        W48133  26.788   5.371  20.519  0.0484 -0.1394  0.0538
39334W        W48134   6.413   4.694  18.371 -0.2813 -0.1665  0.1937
39335W        W48135  18.169   6.208  18.027  0.0610 -0.1721 -0.0505
39336W        W48136  22.177   5.540  21.375 -0.1268 -0.2941 -0.3917
39337W        W48137  10.958   1.816  19.427  0.0052  0.2280  0.2151
39338W        W48138   8.996   6.799   0.964  0.0708 -0.0516 -0.2565
39339W        W48139   9.545   7.474   4.811 -0.0797 -0.0388 -0.0850
39340W        W48140   5.201   5.269  10.779 -0.1520  0.1869 -0.1319
39341W        W48141   9.353   0.998  19.784 -0.1053 -0.1676 -0.0978
39342W        W48142  18.803   6.096   0.312 -0.1446 -0.1567  0.2026
39343W        W48143  16.724   6.158  10.272 -0.2339 -0.1433 -0.1783
39344W        W48144  13.476   0.337   1.208  0.1638 -0.1707 -0.1266
39345W        W48145  25.155   2.453  17.674  0.0196 -0.3538 -0.2022
39346W        W48146  12.339   5.530  25.852 -0.1614 -0.1529 -0.1711
39347W        W48147  15.447   4.461  25.252  0.1779  0.0440 -0.2007
39348W        W48148  11.468   6.037   3.156  0.1184  0.1276  0.2241
39349W        W48149  13.830   2.332   5.609 -0.0661  0.1239 -0.0742
39350W        W48150  26.390   5.313   3.590 -0.0857  0.1346 -0.0522
39351W        W48151  23.153   5.427   5.023 -0.1326  0.0369  0.2262
39352W        W48152   2.930   7.222   2.074  0.0567  0.0070  0.2868
39353W        W48153  10.599   7.600  23.603  0.3590  0.2852 -0.3912
39354W        W48154  22.398   4.317   2.651 -0.2330  0.0148 -0.0226
39355W        W48155   4.785   4.608   1.111 -0.3717 -0.0927  0.0033
39356W        W48156   8.127   5.129  10.793  0.3872  0.0912  0.0784
39357W        W48157  24.255   2.243  10.953 -0.1769 -0.1139 -0.1269
39358W        W48158  12.387   4.640  23.321 -0.0859  0.0433 -0.2688
39359W        W48159  26.337   1.515  22.775 -0.0924 -0.1015 -0.2574
39360W        W48160   9.395   7.509  20.011  0.1141  0.0737 -0.0249
39361W        W48161  18.788   0.248   8.353  0.2349  0.2049 -0.1388
39362W        W48162   2.703   4.837  25.927 -0.3032  0.2541 -0.1948
39363W        W48163   6.698   4.128   6.916 -0.2474 -0.0598 -0.1482
39364W        W48164  30.687   6.649   7.516  0.1470  0.1187 -0.1083
39365W        W48165  10.294   0.482  25.446  0.1292 -0.1331  0.0948
39366W        W48166   0.221   4.607  20.097  0.0314  0.0023  0.0476
39367W        W48167  14.830   2.537   7.805  0.0817  0.0926  0.0560
39368W        W48168   5.552   7.089  16.674  0.3486 -0.0213 -0.0279
39369W        W48169   0.195   3.740   2.805 -0.2499 -0.0880 -0.2078
39370W        W48170   3.672   4.372  20.478  0.0613 -0.3040 -0.2643
39371W        W48171   5.604   6.625   7.900  0.2844 -0.1963  0.2857
39372W        W48172   2.763   1.649   7.433  0.0688  0.2195 -0.3695
39373W        W48173  12.301   0.996  20.906  0.0873  0.2850  0.0434
39374W        W48174   5.097   3.974   0.133  0.0395  0.1228  0.0212
39375W        W48175   6.390   2.115   1.494 -0.2176  0.1913 -0.2505
39376W        W48176  20.489   6.062   7.441 -0.2245  0.0746  0.0028
39377W        W48177  24.166   2.895   5.045  0.1295  0.1722 -0.0645
39378W        W48178  13.006   4.967  21.598  0.0341 -0.0503 -0.0138
39379W        W48179  12.195   7.453   3.841 -0.1920 -0.5275 -0.2704
39380W        W48180   7.763   2.025  15.638  0.1411  0.0458  0.0282
39381W        W48181  29.897   5.574  20.411  0.2964  0.0667  0.0654
39382W        W48182   7.642   3.536   5.885 -0.1180  0.1406  0.2990
39383W        W48183  11.560   7.231  17.933 -0.0285 -0.2067  0.0886
39384W        W48184  14.409   6.965   6.086 -0.1789 -0.0491 -0.2280
39385W        W48185  24.303   0.928   9.280  0.1083  0.0062 -0.0756
39386W        W48186  29.703   0.210  18.075 -0.0900 -0.0799 -0.1497
39387W        W48187   8.543   6.593  23.559 -0.1290 -0.1095 -0.0133
39388W        W48188  11.716   2.953  24.543  0.2398  0.0649 -0.0378
39389W        W48189  19.433   1.240  17.256  0.1481  0.2198 -0.1533
39390W        W48190   7.841   7.814  19.487 -0.0161  0.3764 -0.3579
39391W        W48191  22.504   1.926   7.149  0.1908 -0.0552  0.0195
39392W        W48192  19.557   1.610   9.549 -0.3005 -0.0898  0.2254
39393W        W48193  27.799   3.355   4.104  0.0697 -0.0410  0.0379
39394W        W48194   3.582   2.652   8.470 -0.0290 -0.2475  0.0550
39395W        W48195   4.530   7.318   6.951  0.2065 -0.0045  0.2389
39396W        W48196   5.147   1.483  16.870  0.1632 -0.0018  0.0795
39397W        W48197   9.185   1.931   1.646 -0.0574 -0.1908 -0.1011
39398W        W48198  13.939   7.206  23.608 -0.1083 -0.0666 -0.0203
39399W        W48199  29.409   0.891   1.215 -0.0162 -0.2529  0.2005
39400W        W48200  12.845   2.702  24.197 -0.0159  0.3755  0.0213
39401W        W48201   9.548   0.090   4.721  0.0593 -0.3133 -0.0583
39402W        W48202  11.157   6.661  23.581  0.0283 -0.1039  0.3598
39403W        W48203  24.319   0.614  19.840 -0.1212 -0.0305  0.0545
39404W        W48204  24.803   3.362   1.797  0.1398 -0.0494  0.0262
39405W        W48205  12.464   1.650   4.204 -0.0225  0.0009 -0.0001
39406W        W48206   4.173   5.614   3.082  0.0813 -0.0746 -0.3343
39407W        W48207   6.595   6.463  18.177  0.2443  0.1843  0.1846
39408W        W48208  31.350   6.366   3.009  0.1219  0.0891  0.0568
39409W        W48209  14.495   7.316  16.576  0.1243 -0.1753  0.2804
39410W        W48210  22.138   7.235  17.007 -0.1652  0.5348 -0.0611
39411W        W48211  15.044   6.232  23.974  0.0526  0.2961 -0.0617
39412W        W48212  26.514   1.003   5.207 -0.0053 -0.2082 -0.0365
39413W        W48213  22.927   5.243   4.188  0.2520 -0.0703  0.3251
39414W        W48214   9.288   3.895   6.053  0.2575 -0.0184  0.1655
39415W        W48215  14.951   2.468   7.307 -0.2942  0.2380 -0.2356
39416W        W48216  13.031   7.799   0.364 -0.0017 -0.0032 -0.2864
39417W        W48217  23.004   7.016  21.271  0.2834  0.3798 -0.1212
39418W        W48218   7.234   6.444   6.799  0.1135 -0.2065  0.0413
39419W        W48219  25.202   1.089  18.891 -0.0961 -0.1155 -0.2302
39420W        W48220  10.086   6.008   6.918  0.0633 -0.0910  0.0021
39421W        W48221  18.559   0.509  20.647  0.1022  0.0002 -0.0307
39422W        W48222   6.859   4.620  20.669  0.0225 -0.1906 -0.0118
39423W        W48223  21.343   3.684  16.135  0.0557 -0.2247 -0.0488
39424W        W48224   6.606   4.535  23.346  0.2213  0.1582 -0.1186
39425W        W48225  26.244   2.008  20.166 -0.0553  0.2748 -0.1380
39426W        W48226   4.032   1.830  22.559 -0.0221  0.1747 -0.3754
39427W        W48227  19.377   5.717   3.910 -0.1057  0.2428 -0.1172
39428W        W48228  13.292   1.905  16.278  0.0036 -0.0405 -0.0479
39429W        W48229   3.293   0.950   9.706 -0.1596  0.0783  0.1527
39430W        W48230  15.544   1.800  21.644 -0.1197  0.0101  0.5731
39431W        W48231   2.447   1.850   1.133 -0.1618  0.3469  0.1264
39432W        W48232  23.750   2.949  10.969  0.2277  0.0712 -0.3677
39433W        W48233   9.648   3.605  23.588 -0.1575  0.0203 -0.1803
39434W        W48234  27.041   0.153  18.499  0.2367  0.1561 -0.3240
39435W        W48235   5.479   6.163   3.711 -0.2135 -0.1865  0.0611
39436W        W48236  25.916   0.088   1.599  0.2473  0.0682 -0.1011
39437W        W48237  28.450   6.571  15.722  0.0438 -0.1632 -0.1924
39438W        W48238  25.996   2.963   5.330 -0.0002 -0.1417  0.0585
39439W        W48239  22.782   7.328  24.432  0.1690  0.2867  0.0480
39440W        W48240  14.505   0.848  22.128  0.2127  0.2689 -0.2204
39441W        W48241  13.289   3.765  21.447 -0.0063 -0.3321 -0.3211
39442W        W48242  24.796   5.896   1.631 -0.0747  0.1742 -0.1118
39443W        W48243  14.532   7.542  11.431  0.0607  0.0053  0.0894
39444W        W48244  23.873   1.209   8.704  0.0145 -0.0877  0.0427
39445W        W48245   3.434   1.904  15.937 -0.1723 -0.0675  0.1917
39446W        W48246   6.913   5.438   3.936 -0.0573 -0.0435  0.1095
39447W        W48247  10.579   0.088  24.218 -0.1676 -0.3106  0.0709
39448W        W48248  13.545   5.483   6.747  0.0074  0.1368  0.3399
39449W        W48249   4.128   0.497  25.825 -0.1178  0.1044  0.1086
39450W        W48250  17.870   1.151  17.705 -0.0382  0.1014 -0.2563
39451W        W48251  16.267   5.945  20.574 -0.0113 -0.1448  0.1413
39452W        W48252  29.271   7.782   8.340 -0.1247  0.0179 -0.0119
39453W        W48253  29.542   5.996   7.215 -0.1752  0.0021  0.4407
39454W        W48254   3.805   0.764   7.617  0.0162  0.1502  0.0680
39455W        W48255  20.822   4.431   0.458  0.1495 -0.1067  0.0309
39456W        W48256  27.369   5.002   6.545 -0.2376 -0.1584 -0.1394
39457W        W48257  12.376   0.169  17.136  0.1289 -0.0367 -0.2687
39458W        W48258  11.526   4.674   7.729  0.1145  0.1621  0.3466
39459W        W48259  27.598   1.382   6.088  0.3585  0.0051 -0.1152
39460W        W48260  14.867   4.062  16.543 -0.2193  0.2674  0.0140
39461W        W48261   1.664   2.361   6.418 -0.0472 -0.0497  0.1205
39462W        W48262  25.056   1.764  22.420  0.1067  0.0409  0.0317
39463W        W48263  12.559   4.290  25.183  0.0364 -0.0141  0.2620
39464W        W48264   0.897   1.007   0.911  0.2040  0.2578  0.1401
39465W        W48265   7.038   5.861   6.900  0.1553  0.2141 -0.2534
39466W        W48266  21.856   0.139  16.575 -0.1770  0.2466 -0.1075
39467W        W48267  19.774   3.334   2.346  0.1740  0.1904  0.2455
39468W        W48268   4.495   7.582   8.956 -0.1486 -0.0506  0.1884
39469W        W48269  23.016   7.119  18.761  0.6176 -0.3673  0.2484
39470W        W48270  29.453   5.752  16.734  0.0271  0.1302 -0.3337
39471W        W48271  14.938   3.077  21.551 -0.2145  0.1968 -0.0286
39472W        W48272   5.277   7.175  15.587  0.0880  0.0528 -0.1293
39473W        W48273   3.467   1.396   2.653  0.2255  0.1075  0.1937
39474W        W48274  11.001   5.459  25.067  0.0091 -0.1233  0.2333
39475W        W48275  16.258   2.148   2.908  0.0458  0.2694 -0.0141
39476W        W48276   9.386   7.805  18.366 -0.1656  0.0801 -0.1894
39477W        W48277   1.203   4.059   9.012 -0.0768  0.0664 -0.3700
39478W        W48278   9.260   0.249  21.794  0.1942 -0.0033 -0.1598
39479W        W48279  22.923   0.420  22.327 -0.1535  0.0002  0.1562
39480W        W48280  25.146   1.054  25.539 -0.1345 -0.2193 -0.1208
39481W        W48281   7.145   4.233  22.783 -0.0191  0.2070  0.2718
39482W        W48282  29.897   3.144   3.455  0.1301  0.0261 -0.1265
39483W        W48283  19.378   0.623  20.357  0.0758 -0.4373 -0.1846
39484W        W48284  11.940   5.097  24.431  0.0608 -0.0168  0.0367
39485W        W48285   4.638   2.543   6.622  0.2154 -0.2049  0.0728
39486W        W48286   3.242   5.433   5.976 -0.1139  0.3373  0.0348
39487W        W48287   0.242   3.879   4.056  0.1638  0.0312 -0.1109
39488W        W48288  17.014   1.072   8.705  0.0593 -0.0293  0.2221
39489W        W48289   1.994   3.347   3.084 -0.0987  0.0888 -0.1450
39490W        W48290  22.338   5.608   0.748  0.0821 -0.2445  0.2538
39491W        W48291  28.851   4.648  24.994  0.0584  0.2162 -0.0031
39492W        W48292   1.730   2.551  22.654 -0.2678  0.2227 -0.0972
39493W        W48293  29.664   6.315   2.101  0.1804 -0.1854 -0.1793
39494W        W48294   7.524   5.441   0.823 -0.1063  0.3115 -0.0568
39495W        W48295  13.462   1.344  24.350 -0.1890  0.2169  0.0545
39496W        W48296  25.708   2.988   6.802 -0.1201 -0.2765  0.1795
39497W        W48297   4.607   4.548   1.786 -0.2099 -0.4376 -0.1020
39498W        W48298   9.745   3.581  22.072  0.1378  0.0740 -0.0027
39499W        W48299  27.396   4.285   3.166 -0.0890  0.0664 -0.1219
39500W        W48300  18.986   6.296  19.578  0.2472 -0.0010  0.0697
39501W        W48301  22.423   5.274   6.156  0.1693  0.1015 -0.0743
39502W        W48302   6.394   7.575  10.269 -0.1252 -0.1110 -0.0919
39503W        W48303   4.395   3.042  24.041  0.2547  0.1554  0.0169
39504W        W48304  29.431   3.953  21.897  0.0814  0.3722 -0.1388
39505W        W48305  28.199   5.830  10.793 -0.0202 -0.1060  0.2573
39506W        W48306  16.832   4.877   5.676 -0.0101 -0.1640  0.1193
39507W        W48307  27.741   3.455  19.087  0.1749  0.0731 -0.0191
39508W        W48308   6.394   0.463  15.211  0.0486  0.2881  0.1973
39509W        W48309  29.459   3.695  14.404  0.0867  0.2957  0.0316
39510W        W48310  23.272   2.218  20.049 -0.0205  0.2685 -0.0814
39511W        W48311   8.192   7.085  22.908 -0.0052  0.1457 -0.1411
39512W        W48312   9.358   3.703   8.012  0.2849 -0.2135  0.1592
39513W        W48313  12.323   0.779   5.308  0.3052 -0.1397 -0.0600
39514W        W48314  22.701   7.777  15.685 -0.0731 -0.0773  0.1759
39515W        W48315  16.372   0.519  10.799  0.2143  0.1910  0.3788
39516W        W48316  10.244   3.966   9.410 -0.0270 -0.0412  0.0617
39517W        W48317   8.332   2.361   2.148 -0.2472 -0.2928 -0.3939
39518W        W48318   3.350   2.806  23.332  0.1413  0.3985  0.0767
39519W        W48319  20.555   6.022  17.304 -0.0669  0.3031 -0.1720
39520W        W48320  21.928   7.028   7.143  0.0011 -0.1513 -0.2217
39521W        W48321  13.934   4.848   6.970  0.2998  0.1831  0.1172
39522W        W48322  18.326   6.906   5.709  0.2337  0.0052  0.2543
39523W        W48323  30.691   6.109   3.885 -0.0276  0.0781  0.1486
39524W        W48324  26.171   1.984   2.775 -0.1765  0.4335  0.5621
39525W        W48325  22.190   3.530  25.972  0.0510  0.1056 -0.0540
39526W        W48326   4.936   6.908  17.309  0.2303 -0.0879  0.0369
39527W        W48327  23.672   0.105  10.722 -0.2378  0.3871 -0.0661
39528W        W48328  10.420   3.770  18.670 -0.0318 -0.0729  0.1551
39529W        W48329  10.711   6.460  24.781  0.0643  0.1829  0.0557
39530W        W48330  10.576   4.166  18.081  0.2312 -0.2416  0.0479
39531W        W48331  20.739   4.150  19.727 -0.1660 -0.0383  0.0487
39532W        W48332  20.477   3.539   3.142  0.2422 -0.3024 -0.1611
39533W        W48333   7.983   1.645  22.013  0.0190  0.1190 -0.0749
39534W        W48334   9.115   6.925   4.205  0.0111  0.1051  0.3871
39535W        W48335  15.315   5.762  24.922  0.2388  0.1118  0.3862
39536W        W48336  24.155   7.071   5.989 -0.2159  0.1382 -0.3518
39537W        W48337  15.853   2.441   4.852 -0.5156  0.1628 -0.0179
39538W        W48338  17.432   3.113  19.253 -0.1432 -0.1972  0.0245
39539W        W48339   3.338   4.118  22.375 -0.0312  0.2137 -0.3791
39540W        W48340   9.719   5.212   1.885  0.1607 -0.0460 -0.2815
39541W        W48341   6.412   6.685  21.162 -0.0951  0.0487  0.1301
39542W        W48342  24.596   3.706  23.878  0.3851 -0.0823  0.1935
39543W        W48343   9.636   1.680  17.240  0.0296  0.1927  0.2241
39544W        W48344  13.905   6.025  24.650  0.1144  0.4127 -0.3837
39545W        W48345  26.038   7.404   2.492 -0.2081 -0.3433  0.2955
39546W        W48346  30.268   1.882  16.890  0.0566 -0.1473 -0.1218
39547W        W48347   9.557   7.723   7.449  0.1341  0.0239  0.2162
39548W        W48348   6.252   4.960   5.663  0.1003  0.0569  0.2215
39549W        W48349  30.941   5.397  15.302  0.2286  0.1183 -0.1163
39550W        W48350   6.948   4.265   6.523  0.0782 -0.0861 -0.1773
39551W        W48351  28.086   7.821  19.012  0.0193  0.0212  0.0233
39552W        W48352  22.849   1.901  20.149  0.3398 -0.1757  0.2067
39553W        W48353  20.435   7.380  23.805  0.1392 -0.1240  0.0450
39554W        W48354   3.377   2.477  24.129 -0.2206 -0.1102  0.0739
39555W        W48355  28.403   5.763  23.250 -0.0856  0.0325 -0.2079
39556W        W48356  23.044   1.992  18.755  0.1974 -0.0494 -0.1158
39557W        W48357   4.655   4.080  23.555  0.1109 -0.3607  0.0232
39558W        W48358  24.782   6.203  22.672 -0.1083  0.0702 -0.2446
39559W        W48359   8.630   0.002  22.833 -0.0661  0.1221  0.1737
39560W        W48360  20.256   7.167  21.641 -0.0139 -0.0088 -0.0801
39561W        W48361   5.255   2.480   4.024  0.0586  0.0052 -0.1368
39562W        W48362   0.738   3.997  16.117 -0.0565 -0.0729  0.0470
39563W        W48363   8.924   1.498   6.890  0.2991 -0.3091  0.1817
39564W        W48364  11.712   2.792  24.094  0.2380  0.1159  0.1679
39565W        W48365  18.665   6.106   6.663  0.4803  0.0243  0.1206
39566W        W48366  14.589   1.636  20.557  0.0312  0.2101  0.0085
39567W        W48367  26.160   6.567  19.581 -0.0912  0.0940 -0.1575
39568W        W48368  26.885   6.998  18.595 -0.0407 -0.0590  0.0244
39569W        W48369  17.174   5.441  22.128 -0.0147  0.1267  0.0175
39570W        W48370   8.956   4.485  24.051 -0.1276 -0.4345  0.1374
39571W        W48371  13.123   2.930  18.836  0.0915  0.1901  0.1772
39572W        W48372  19.818   1.285   8.414 -0.3069  0.0559 -0.4882
39573W        W48373  23.708   5.979   2.392 -0.1482 -0.0580 -0.1153
39574W        W48374  22.897   7.361  23.423  0.0555  0.1997 -0.0179
39575W        W48375  19.960   6.981   3.944  0.1208  0.1966  0.1855
39576W        W48376   8.333   6.650   5.521 -0.0633  0.0219 -0.0456
39577W        W48377  14.844   1.082   3.392 -0.0799 -0.2587 -0.2262
39578W        W48378  23.014   3.186   4.169 -0.4738  0.2035 -0.0679
39579W        W48379  15.824   0.731   6.814  0.0156 -0.1918 -0.2006
39580W        W48380  10.139   3.016  16.555 -0.3067 -0.0590  0.0687
39581W        W48381  13.074   2.993   1.668  0.1070  0.2493  0.1930
39582W        W48382  23.374   0.042   7.388 -0.1589  0.0102 -0.2387
39583W        W48383  14.059   2.258  20.966  0.2125 -0.0127  0.0922
39584W        W48384   4.553   5.567  17.933  0.1387  0.1245 -0.0291
39585W        W48385   2.041   3.397  10.171  0.0881  0.0858  0.1531
39586W        W48386  30.370   0.338  16.368  0.0202 -0.2264  0.2453
39587W        W48387   6.467   3.134  24.392 -0.2605  0.1016  0.1035
39588W        W48388  19.884   0.973  21.706 -0.2725 -0.1775 -0.1016
39589W        W48389   8.966   2.624  24.112  0.1526 -0.1280  0.1466
39590W        W48390  15.574   5.938   7.833  0.1032  0.0143 -0.1013
39591W        W48391  29.432   1.410  18.389  0.0741 -0.1573  0.0472
39592W        W48392  18.105   4.447   2.802 -0.0952 -0.1138 -0.0288
39593W        W48393  24.930   4.766  17.265 -0.1735  0.2859  0.3491
39594W        W48394  23.485   7.341  21.334 -0.1214  0.0828 -0.0705
39595W        W48395   2.465   0.710  23.145  0.1495  0.0096 -0.0310
39596W        W48396  15.386   2.112   8.686  0.0757  0.2543  0.1028
39597W        W48397   9.418   2.566  23.248  0.1781 -0.0208  0.0542
39598W        W48398  16.609   5.701   9.971 -0.0634 -0.0976 -0.2091
39599W        W48399   5.401   6.665   2.441  0.2693 -0.0508 -0.0392
39600W        W48400  25.108   7.237  25.857 -0.0086  0.4468  0.1919
39601W        W48401  16.910   0.102  20.654 -0.2330 -0.0133  0.0409
39602W        W48402  27.467   0.980  21.540 -0.5397  0.1180  0.1491
39603W        W48403  23.696   0.548   5.940 -0.1689  0.1705  0.0384
39604W        W48404  18.626   3.968  20.180 -0.0620  0.2392  0.0979
39605W        W48405  11.314   5.552  19.180  0.2263 -0.1156  0.0890
39606W        W48406  25.885   1.654   5.668 -0.0354 -0.0158  0.2881
39607W        W48407  27.681   5.133  24.247  0.2306 -0.1592 -0.0197
39608W        W48408  20.607   3.623   8.057 -0.0786  0.0878  0.1100
39609W        W48409  16.725   2.455  10.201 -0.0822 -0.2595  0.1078
39610W        W48410  15.827   0.680   8.120 -0.0745 -0.0374  0.0210
39611W        W48411   7.293   2.078   5.184 -0.0698 -0.1766  0.1797
39612W        W48412  10.175   7.362  21.647  0.2413 -0.1963 -0.2138
39613W        W48413  14.039   5.077  17.854 -0.0883 -0.2390 -0.0397
39614W        W48414   5.056   5.419   3.875 -0.1576 -0.2962 -0.0816
39615W        W48415  12.684   5.419   4.566 -0.2061 -0.0701 -0.0700
39616W        W48416   9.377   4.869   9.387  0.0932  0.1126 -0.0094
39617W        W48417  15.051   6.323  15.602 -0.0485 -0.1110 -0.3015
39618W        W48418  31.078   2.519   4.878 -0.0629 -0.0899 -0.1567
39619W        W48419   0.809   5.264  15.102  0.1320 -0.0632  0.1307
39620W        W48420  21.288   0.830   4.251 -0.0491  0.0864 -0.2141
39621W        W48421   2.002   1.391  22.042  0.0609  0.1116  0.1252
39622W        W48422  13.315   6.026  24.707  0.1630 -0.2548 -0.0604
39623W        W48423  23.332   3.102  25.996 -0.0429 -0.0123  0.1124
39624W        W48424  14.217   4.107  22.528  0.0276 -0.1578 -0.1361
39625W        W48425  16.840   6.136  20.070 -0.0374 -0.3233  0.0922
39626W        W48426  22.367   5.452  10.301 -0.5106  0.0001  0.0443
39627W        W48427  22.975   2.566  19.019 -0.1567 -0.0512 -0.0472
39628W        W48428  15.762   0.985   2.081  0.0971 -0.0546  0.1193
39629W        W48429   5.744   4.835  24.490  0.1106  0.1602 -0.0835
39630W        W48430   6.428   0.283  19.906 -0.0200  0.1513  0.0785
39631W        W48431  10.776   3.520   0.087  0.1654  0.1248 -0.1450
39632W        W48432   8.174   4.722  19.938 -0.0336  0.0897 -0.2082
39633W        W48433  12.958   5.427  16.464 -0.4649 -0.0300 -0.1355
39634W        W48434   3.162   2.362  10.302 -0.1047  0.2621 -0.1358
39635W        W48435  16.921   5.458  16.247 -0.0091  0.0964 -0.2044
39636W        W48436  21.052   5.384  17.518  0.0428  0.2052 -0.0232
39637W        W48437   9.446   7.686  24.586  0.1082  0.0880 -0.4111
39638W        W48438  23.455   0.213  24.519 -0.1604 -0.1815 -0.2107
39639W        W48439  30.746   4.838  20.039 -0.1570 -0.1682 -0.0518
39640W        W48440  29.795   7.528   2.025 -0.1110  0.0310 -0.3595
39641W        W48441   0.958   6.804   6.924 -0.2311  0.0088  0.0992
39642W        W48442  30.107   1.858   8.319  0.0023  0.1278 -0.2460
39643W        W48443   0.087   6.074   8.318  0.1535 -0.0798 -0.3867
39644W        W48444  16.107   5.696   3.938 -0.1430 -0.2597 -0.1667
39645W        W48445  10.843   3.053  24.470  0.1749  0.1762  0.1663
39646W        W48446   6.222   2.065   8.180 -0.2046  0.2492  0.2432
39647W        W48447  29.370   5.491  16.216 -0.2886  0.1969  0.2190
39648W        W48448   7.726   0.079  23.371 -0.0247 -0.0004 -0.0670
39649W        W48449   5.305   5.425   0.865  0.0200 -0.1685 -0.1608
39650W        W48450  11.806   6.071  25.211 -0.0260  0.0110  0.0622
39651W        W48451  23.828   1.186  21.720  0.0053 -0.0505  0.3082
39652W        W48452   7.497   5.948  24.266  0.0107 -0.1329  0.2521
39653W        W48453  24.735   6.982   8.637 -0.1962 -0.0554 -0.2906
39654W        W48454   7.435   3.782   2.165 -0.2156 -0.1972  0.1368
39655W        W48455  21.943   3.991  19.304 -0.0904 -0.2755  0.1676
39656W        W48456  15.540   5.620   2.472  0.0259 -0.2032 -0.0060
39657W        W48457  22.924   6.984  15.682  0.2268 -0.0869 -0.2610
39658W        W48458  14.372   5.049   8.313  0.0593  0.1468  0.0295
39659W        W48459   4.511   7.137  21.210 -0.3006  0.1152 -0.0055
39660W        W48460   7.102   5.385   9.310 -0.0197 -0.0310 -0.2819
39661W        W48461  12.480   7.394   3.410  0.1197  0.1774  0.1564
39662W        W48462  15.512   3.047  23.340  0.0295  0.1748 -0.0670
39663W        W48463  28.337   0.320  16.648 -0.2019  0.0097 -0.0478
39664W        W48464  18.135   0.928   9.641 -0.1614  0.1214  0.3179
39665W        W48465  27.738   0.724   9.198 -0.3384  0.1484  0.2343
39666W        W48466   3.220   5.511   1.227  0.0599 -0.1203 -0.1500
39667W        W48467  16.387   4.673  23.382  0.2870 -0.0635 -0.1855
39668W        W48468   3.208   5.703   7.497 -0.2344 -0.0182 -0.0134
39669W        W48469  31.122   3.316   6.955  0.1366  0.1414 -0.2205
39670W        W48470   0.183   7.388  16.988  0.2025  0.1859  0.2143
39671W        W48471   2.240   5.609  14.507 -0.0221  0.0524  0.1838
39672W        W48472  13.083   4.734   6.398  0.0273  0.1520  0.0994
39673W        W48473  22.435   5.079   7.736  0.0773 -0.2704  0.0003
39674W        W48474  26.640   2.035  19.619 -0.0359 -0.3620  0.1944
39675W        W48475  11.431   5.870  17.570  0.1186  0.0253 -0.0567
39676W        W48476  19.966   7.296  18.743  0.1306  0.1861  0.2638
39677W        W48477  30.809   1.726  21.663 -0.0689 -0.0688  0.1472
39678W        W48478   4.265   3.611   8.825 -0.0353  0.1189  0.1389
39679W        W48479  13.340   2.628  11.807 -0.0624 -0.2098 -0.1529
39680W        W48480   2.587   5.515  16.759  0.2013  0.5984  0.1076
39681W        W48481  20.865   4.379   4.859  0.0938 -0.0109  0.0291
39682W        W48482   3.841   0.274   1.678 -0.1464  0.2320 -0.2186
39683W        W48483   8.059   1.173  15.188  0.2537  0.1355  0.0678
39684W        W48484   9.481   4.792  20.905  0.2050 -0.0333  0.1676
39685W        W48485  10.629   0.737   3.968 -0.0989  0.3438  0.0063
39686W        W48486   8.380   6.879  25.562  0.3644 -0.0656  0.2033
39687W        W48487  11.612   4.581  20.917 -0.0736 -0.0753  0.0911
39688W        W48488  10.633   3.791  19.210  0.1564  0.5122  0.1615
39689W        W48489  17.696   2.972  10.203 -0.1640  0.1271  0.0978
39690W        W48490  26.480   3.794  25.892  0.0132  0.0925  0.0952
39691W        W48491  15.889   3.391  25.543 -0.0749 -0.0134  0.0512
39692W        W48492   4.334   5.619  16.555 -0.2095  0.1094 -0.1041
39693W        W48493  15.147   7.476  24.333 -0.0335 -0.0293  0.0764
39694W        W48494  28.802   4.902  25.458  0.2354 -0.1400 -0.1180
39695W        W48495   2.973   4.854  17.263  0.0718 -0.0510  0.0805
39696W        W48496   0.398   7.470  18.999 -0.1156  0.2572  0.1259
39697W        W48497  26.670   4.473  15.158  0.0518  0.0853 -0.0411
39698W        W48498   0.487   1.244  23.093 -0.1371 -0.2030 -0.2623
39699W        W48499  29.710   5.812   8.721 -0.0609 -0.0677  0.2372
39700W        W48500  25.030   7.283   5.815  0.4214  0.1259 -0.2550
39701W        W48501  27.073   4.790   3.310 -0.1585  0.3106  0.1618
39702W        W48502  18.673   3.353  18.344 -0.1098  0.2535 -0.4105
39703W        W48503   4.850   5.375   5.232 -0.1390  0.1162  0.0065
39704W        W48504   3.410   7.415   3.313  0.2088  0.0438 -0.1220
39705W        W48505  20.666   7.662   8.290 -0.1168 -0.3517 -0.0880
39706W        W48506   1.855   4.620   2.418  0.0089 -0.1537 -0.1659
39707W        W48507   6.496   4.351   3.581 -0.2013 -0.3064 -0.0278
39708W        W48508  26.156   3.680  18.164 -0.0826  0.2687  0.2078
39709W        W48509   0.035   2.361  24.008 -0.0903  0.0964 -0.0580
39710W        W48510  16.361   4.013  16.965  0.1268  0.2328 -0.0453
39711W        W48511  15.352   7.798  16.573 -0.2032  0.0693 -0.2996
39712W        W48512  28.076   5.555  23.784  0.1662  0.0237  0.0915
39713W        W48513  26.037   7.684   8.817  0.0989  0.1261 -0.2391
39714W        W48514  15.314   0.220  21.395  0.1128 -0.0128  0.1287
39715W        W48515  15.797   2.883   0.125  0.2107  0.0470  0.1359
39716W        W48516  22.366   5.074   0.782  0.1171  0.0246 -0.3834
39717W        W48517   5.057   3.321  23.095 -0.0141  0.2319 -0.0667
39718W        W48518  31.265   6.786   1.748 -0.2331  0.0168  0.2195
39719W        W48519  31.317   4.919   9.863 -0.2651 -0.1031  0.3939
39720W        W48520  15.918   2.708   8.857 -0.0201 -0.0279  0.0648
39721W        W48521  28.623   1.948  24.003 -0.2881 -0.0173 -0.0770
39722W        W48522  17.149   7.398   3.913  0.0511  0.0424 -0.1969
39723W        W48523   5.588   7.158   5.508 -0.2227  0.0602 -0.1625
39724W        W48524  14.126   0.506  24.518  0.0620 -0.0080 -0.0634
39725W        W48525  11.320   2.341  21.544  0.3618  0.2998 -0.0232
39726W        W48526  17.193   2.137  17.671 -0.2101  0.1345  0.0914
39727W        W48527   5.441   5.039  19.433  0.1850 -0.1499 -0.2558
39728W        W48528  20.405   5.295   1.564  0.0412  0.2086  0.2586
39729W        W48529  18.635   2.267  16.612 -0.0781  0.2334  0.0305
39730W        W48530  11.387   5.658   2.847  0.2502 -0.1663  0.0690
39731W        W48531  27.097   5.061  19.064 -0.1252 -0.1474 -0.3965
39732W        W48532  27.589   6.553  24.871  0.0441  0.1152 -0.0446
39733W        W48533  14.068   3.431  15.543 -0.1392 -0.4887  0.0988
39734W        W48534  23.029   5.028   7.820  0.0118  0.0072  0.2048
39735W        W48535  12.168   4.926  10.430 -0.1146  0.0892 -0.2607
39736W        W48536  25.146   6.544   5.191 -0.2598 -0.0696 -0.1300
39737W        W48537   4.236   5.520  23.462  0.1654  0.2942  0.2801
39738W        W48538  27.232   2.556  14.933  0.4116 -0.0277  0.1062
39739W        W48539  13.961   5.399  25.338  0.1061  0.0402 -0.1902
39740W        W48540  19.611   3.153  18.939  0.1647  0.0394  0.1764
39741W        W48541  24.964   0.612   5.812 -0.3843 -0.2831  0.0357
39742W        W48542  18.682   0.621   1.236 -0.0032  0.2187 -0.0806
39743W        W48543   0.693   7.351  22.911  0.0053  0.0088  0.1796
39744W        W48544  14.036   3.879  25.044  0.4334  0.0608  0.1642
39745W        W48545  23.403   2.486  16.907 -0.3226 -0.1324  0.0425
39746W        W48546   2.024   5.352  18.578 -0.1338  0.0164 -0.1820
39747W        W48547  22.667   6.674   0.870  0.1477  0.3450  0.2362
39748W        W48548   5.041   2.211  20.616  0.1438  0.0932  0.3114
39749W        W48549  25.801   6.306   6.421  0.0691 -0.0613 -0.0942
39750W        W48550  30.568   4.034   1.678  0.0729  0.1073  0.0208
39751W        W48551  23.209   1.830   9.869 -0.1951  0.1553  0.0797
39752W        W48552  17.100   0.463   7.606  0.0652  0.1804  0.1235
39753W        W48553  31.050   2.447  17.760  0.3933 -0.3802  0.2835
39754W        W48554  10.387   6.626  15.725 -0.4133 -0.0016  0.1186
39755W        W48555  27.622   2.004  23.415  0.0530 -0.0565 -0.1315
39756W        W48556  13.101   3.414   6.768 -0.0101 -0.1543  0.0202
39757W        W48557   7.277   2.247  22.426  0.1024  0.3361 -0.2762
39758W        W48558  19.526   2.835  24.799  0.1600  0.0170  0.2577
39759W        W48559   2.844   6.758   4.262  0.4568 -0.1967 -0.2757
39760W        W48560  15.366   1.703   9.461 -0.2054 -0.0424  0.1106
39761W        W48561  13.775   1.144  16.404  0.2343  0.2453  0.0738
39762W        W48562   8.703   7.358   0.021  0.0311  0.0101  0.3804
39763W        W48563   5.647   6.363   1.013 -0.1325  0.1593 -0.1359
39764W        W48564   6.810   1.530   6.161  0.0755 -0.2184  0.0816
39765W        W48565   1.686   7.266   8.682 -0.0724  0.1527 -0.0332
39766W        W48566  29.771   5.521  19.726  0.1064  0.1017  0.1779
39767W        W48567  12.820   1.718  21.826  0.0137  0.0150 -0.2382
39768W        W48568  14.598   0.681   5.264  0.1845  0.1045  0.0019
39769W        W48569  13.048   0.565  22.354  0.3629 -0.3876 -0.0101
39770W        W48570  16.140   6.474   9.615 -0.2486 -0.3392  0.0529
39771W        W48571  20.409   7.021  17.118 -0.2060 -0.1214  0.0299
39772W        W48572  30.372   4.510   4.752  0.1579 -0.0810 -0.0699
39773W        W48573   4.546   2.462  10.482  0.1149 -0.3161  0.0992
39774W        W48574  25.334   5.645   3.959  0.0552  0.0434 -0.3122
39775W        W48575  23.934   6.224  22.636  0.0630 -0.1277  0.1733
39776W        W48576  28.118   5.133   0.063  0.0859  0.2337  0.3137
39777W        W48577  22.196   1.425   5.149 -0.0189 -0.0216 -0.0401
39778W        W48578   3.106   4.126   5.752 -0.1440  0.0337 -0.0918
39779W        W48579   5.056   6.906   4.239 -0.1117  0.2064 -0.1460
39780W        W48580  20.224   0.856  15.919 -0.0321 -0.2080 -0.0069
39781W        W48581  15.833   2.350   8.097 -0.1495  0.0146 -0.1600
39782W        W48582  10.126   0.522   8.429 -0.0707  0.0687  0.3516
39783W        W48583  10.067   0.640   1.582  0.2396  0.0561  0.3472
39784W        W48584  15.148   7.092  10.574 -0.0345  0.0459  0.0935
39785W        W48585  25.592   7.570  25.200  0.0176 -0.0124  0.1907
39786W        W48586  30.159   5.861  24.727 -0.0651  0.2915  0.1315
39787W        W48587  16.923   7.566   7.059  0.0232  0.3811 -0.0974
39788W        W48588   8.460   1.875  16.260  0.2556  0.1423 -0.0282
39789W        W48589   9.416   0.514   8.032  0.3000  0.0930  0.0518
39790W        W48590  12.374   2.207   8.662  0.1929 -0.1161  0.0710
39791W        W48591  16.339   4.672  24.824 -0.0973  0.2424  0.0042
39792W        W48592  18.958   4.651  17.062 -0.4832 -0.3118 -0.0333
39793W        W48593   6.047   1.143   9.487 -0.2870  0.0336 -0.1004
39794W        W48594  14.462   3.778   3.926  0.2248  0.0160  0.0741
39795W        W48595  15.030   6.464   3.968  0.0802 -0.0917  0.2681
39796W        W48596  31.267   0.967   7.557 -0.2802  0.0427 -0.0971
39797W        W48597  31.167   6.041  21.489  0.4933  0.1969 -0.0301
39798W        W48598  10.846   5.500  20.814  0.1610 -0.1973 -0.0558
39799W        W48599  30.090   1.019  19.819 -0.2058  0.0987 -0.0596
39800W        W48600  14.729   4.392  22.675  0.3836 -0.4425  0.0530
39801W        W48601  31.437   6.380  15.619 -0.0041  0.2019  0.0665
39802W        W48602   4.712   0.273  25.035 -0.0519  0.2460  0.3045
39803W        W48603   3.501   2.569  15.451  0.0048  0.0848 -0.2188
39804W        W48604  25.340   2.923  16.176  0.0511 -0.2924  0.0392
39805W        W48605  25.609   4.857  22.673  0.1402 -0.1240  0.4145
39806W        W48606   3.750   7.037  26.054  0.1214  0.1823  0.0281
39807W        W48607  24.315   3.656  15.438  0.0488 -0.0175  0.1368
39808W        W48608   0.196   5.591   5.156 -0.1930 -0.0087  0.1270
39809W        W48609  20.712   4.055  25.791 -0.1342 -0.1283 -0.1032
39810W        W48610  16.647   1.084  18.410  0.1205 -0.0648  0.1906
39811W        W48611   4.193   7.743   5.861 -0.0708  0.1975  0.0536
39812W        W48612   4.022   4.997   1.218  0.0993  0.1563  0.2939
39813W        W48613   9.532   6.782  23.288 -0.1406  0.0204 -0.0107
39814W        W48614   6.151   6.473  24.568 -0.2590  0.1366 -0.1415
39815W        W48615  12.623   2.898  21.719  0.1280  0.1284 -0.2228
39816W        W48616  20.455   1.256  17.561 -0.0063 -0.0234 -0.0443
39817W        W48617  31.231   5.665  20.195 -0.2467 -0.1067 -0.0409
39818W        W48618  18.195   6.056   7.681  0.3803 -0.1747  0.2201
39819W        W48619   0.876   5.776  17.397  0.0049 -0.3118 -0.1746
39820W        W48620   9.277   4.489   1.788 -0.1903  0.0756 -0.1398
39821W        W48621  18.431   6.133   9.923 -0.0244  0.0583 -0.0154
39822W        W48622   8.224   6.749   8.033  0.0383  0.1503 -0.2720
39823W        W48623  31.367   7.659   3.077 -0.0782 -0.0270 -0.1057
39824W        W48624  29.660   2.358  10.110  0.0392  0.0746  0.0691
39825W        W48625  22.297   4.351   4.279  0.0647 -0.1198  0.1167
39826W        W48626   5.731   2.369   1.702 -0.1003 -0.1117  0.0389
39827W        W48627   0.384   0.266   6.228  0.3252  0.1291  0.0781
39828W        W48628  16.326   6.123   9.876  0.1665  0.0747  0.0024
39829W        W48629  16.983   0.279  11.513  0.1489  0.1676 -0.0385
39830W        W48630  16.679   6.960   1.279 -0.0836 -0.0164  0.1706
39831W        W48631  12.324   3.949   1.240  0.1882  0.0643 -0.1149
39832W        W48632  13.604   0.179  21.911 -0.0588  0.0018  0.1325
39833W        W48633  24.260   7.067  20.001  0.1262 -0.0536 -0.1088
39834W        W48634   3.227   3.421  16.576 -0.1021  0.2133  0.2631
39835W        W48635  12.032   4.398  19.173  0.4717 -0.0854  0.1876
39836W        W48636   7.851   2.203   9.594 -0.1763  0.0974 -0.2067
39837W        W48637   4.361   7.557   8.109 -0.3928  0.0897 -0.2996
39838W        W48638   6.027   1.192  25.442 -0.0093  0.0397  0.1810
39839W        W48639   5.758   0.647  15.876 -0.0864 -0.2036  0.0963
39840W        W48640  22.017   2.063  24.038 -0.0130 -0.2127  0.2214
39841W        W48641  11.397   0.319   4.059  0.0658 -0.0627  0.0463
39842W        W48642   0.443   5.729   0.460 -0.0597  0.0639  0.1043
39843W        W48643   8.318   4.777   2.123  0.1956  0.4108 -0.4245
39844W        W48644  16.032   5.273   3.120  0.0999 -0.1572 -0.6232
39845W        W48645   4.809   7.124   7.292  0.4253 -0.1597 -0.0566
39846W        W48646  18.757   3.974   4.941 -0.2340 -0.1206 -0.1448
39847W        W48647  22.318   4.200  16.005 -0.1107  0.0012  0.0042
39848W        W48648  28.492   2.247   7.942  0.1391  0.1921  0.1295
39849W        W48649   7.131   2.335  22.876  0.0035 -0.3601  0.3738
39850W        W48650  23.505   5.952   0.892  0.0463 -0.1616 -0.1620
39851W        W48651  21.375   3.780   7.739 -0.0338  0.3369  0.2599
39852W        W48652  29.588   2.167  19.050  0.0162  0.2660 -0.2409
39853W        W48653  15.532   3.184  18.879  0.0601  0.1521 -0.1372
39854W        W48654  13.191   4.533   7.947  0.3426  0.1801  0.1455
39855W        W48655  24.341   1.917  17.011  0.2595 -0.1613  0.0958
39856W        W48656  18.925   5.338  20.339  0.1607  0.2307 -0.3634
39857W        W48657  28.709   6.110  20.318  0.3805 -0.0348 -0.2404
39858W        W48658  22.659   3.353  22.377 -0.1650 -0.0562 -0.2367
39859W        W48659   5.648   2.902   9.809 -0.1760  0.0339 -0.1305
39860W        W48660  20.072   1.554   0.936  0.1840 -0.0319 -0.1899
39861W        W48661  23.536   1.818  24.330 -0.0951  0.1155  0.2301
39862W        W48662  31.199   1.329   3.735 -0.1230 -0.1545  0.0656
39863W        W48663  17.428   0.456  22.152  0.3026  0.0871  0.1084
39864W        W48664   3.057   6.399   4.053  0.0771  0.2249  0.1424
39865W        W48665  17.382   5.611  24.347 -0.1389 -0.2989 -0.1261
39866W        W48666  15.207   0.775   9.206 -0.0317  0.3414  0.1419
39867W        W48667  10.504   3.603   2.037 -0.0168 -0.1569  0.1535
39868W        W48668   7.460   4.856   6.767 -0.2183  0.0257  0.0692
39869W        W48669  21.508   1.531  25.607  0.0586 -0.0852 -0.0316
39870W        W48670  30.635   3.016   0.156 -0.3491  0.0767  0.1994
39871W        W48671  14.581   5.366   7.006 -0.1554 -0.0088  0.2566
39872W        W48672  30.058   7.262  23.136  0.1835 -0.3442 -0.2901
39873W        W48673  11.550   7.159  19.099 -0.2674  0.1349 -0.1801
39874W        W48674  29.781   0.255   9.565  0.2617  0.0343  0.0140
39875W        W48675  26.124   3.222  16.434  0.0693 -0.0865 -0.1591
39876W        W48676  16.710   0.517   4.626  0.2131 -0.1582 -0.2343
39877W        W48677   0.599   6.957  21.707 -0.1834 -0.2248  0.2000
39878W        W48678  12.084   6.263  18.810 -0.0152  0.0395  0.0430
39879W        W48679   4.079   3.203   5.693  0.0435  0.3387 -0.2640
39880W        W48680  17.486   2.476  16.326  0.1115 -0.0953 -0.0609
39881W        W48681  30.905   5.861  16.143 -0.1693 -0.1501 -0.1945
39882W        W48682  10.209   6.628   6.889 -0.0716  0.1095 -0.1070
39883W        W48683  29.549   2.235   0.160  0.0712  0.1496  0.0504
39884W        W48684   5.771   0.499  20.612 -0.3045 -0.3163 -0.1303
39885W        W48685  16.180   2.818  25.594  0.1909  0.0624  0.1320
39886W        W48686  14.770   7.326  10.150 -0.0838  0.0297 -0.1733
39887W        W48687  25.543   2.198  22.952 -0.0091 -0.2439 -0.1206
39888W        W48688  28.964   3.487  19.692  0.0422 -0.1122  0.0888
39889W        W48689   0.341   6.418  23.236  0.0472  0.1056  0.0946
39890W        W48690   3.098   2.005  22.367 -0.0114 -0.2677 -0.0602
39891W        W48691  12.712   7.024   4.943  0.0074 -0.0496 -0.1609
39892W        W48692  28.706   2.008   2.259  0.0900  0.1445  0.1353
39893W        W48693  13.753   6.719   4.869 -0.1820 -0.0149  0.0711
39894W        W48694  28.228   3.168  16.583  0.0333 -0.0390 -0.1755
39895W        W48695   3.105   1.625  24.786 -0.1387 -0.0187  0.0159
39896W        W48696  24.522   6.538   7.323 -0.1410 -0.0781 -0.1147
39897W        W48697  26.607   3.233   1.071 -0.1522  0.0802 -0.0308
39898W        W48698   8.817   6.786   9.088  0.3328  0.0647 -0.0691
39899W        W48699  30.349   0.020   3.145 -0.0678  0.0422  0.0125
39900W        W48700  17.529   7.345   0.051 -0.1327  0.1321  0.1646
39901W        W48701  14.357   6.240  23.810 -0.0027  0.1084 -0.0074
39902W        W48702   3.339   2.532   8.866 -0.1169 -0.2848  0.1836
39903W        W48703   8.710   2.281   6.186  0.2182  0.2347 -0.0832
39904W        W48704   5.168   7.525   3.565  0.0705  0.1022 -0.0270
39905W        W48705   5.554   3.985  17.119 -0.5288  0.1056  0.2455
39906W        W48706  29.777   4.371  10.306 -0.2686 -0.4292  0.3347
39907W        W48707  26.834   3.389  22.155 -0.0173  0.1007  0.1752
39908W        W48708  24.537   2.606   3.205 -0.3788 -0.0483 -0.0537
39909W        W48709   4.238   1.982  18.339 -0.5974 -0.3081 -0.2245
39910W        W48710  13.920   3.677   2.571 -0.0152  0.3384  0.1060
39911W        W48711   0.765   3.731  23.374 -0.0874 -0.2154 -0.0162
39912W        W48712   8.981   5.664  16.129  0.1180  0.1402 -0.1471
39913W        W48713   7.044   2.381   1.015 -0.1366  0.1531 -0.3218
39914W        W48714  27.534   7.124   3.374  0.1401 -0.0740 -0.0438
39915W        W48715  11.073   3.181  18.035  0.0637 -0.0434  0.0121
39916W        W48716  28.092   1.613  19.120  0.0358  0.2836  0.0552
39917W        W48717  25.019   1.563   7.249 -0.1994 -0.0919  0.1146
39918W        W48718   4.108   2.279  14.858  0.2111  0.1279 -0.0964
39919W        W48719  10.193   1.256  10.204 -0.0149 -0.1775  0.0900
39920W        W48720  20.866   3.662  24.001 -0.0514 -0.0028  0.3715
39921W        W48721  17.502   0.467  10.462  0.2118  0.3889  0.2107
39922W        W48722   1.165   3.806  24.362 -0.0776  0.0147  0.4840
39923W        W48723  15.114   0.040   2.444  0.1533 -0.0905 -0.0987
39924W        W48724  22.036   0.460   5.540  0.3762 -0.1862 -0.0133
39925W        W48725  31.225   3.913  21.093 -0.0887  0.1754  0.0607
39926W        W48726   2.151   6.390  19.650  0.1668 -0.3489 -0.0108
39927W        W48727   3.998   6.661   9.816 -0.1645  0.1060 -0.2350
39928W        W48728   1.805   1.712   4.833 -0.0785 -0.0079  0.1533
39929W        W48729   7.862   5.844   5.206 -0.3711 -0.3267 -0.0051
39930W        W48730  19.576   5.457   8.261 -0.0798  0.0628  0.0472
39931W        W48731  24.380   3.016   3.423 -0.2885  0.0158 -0.2232
39932W        W48732  25.873   4.968  17.499 -0.0460 -0.2410 -0.2471
39933W        W48733   5.858   2.557  18.057 -0.3048 -0.2766 -0.1449
39934W        W48734  28.980   7.612  18.399  0.1006  0.1648 -0.1197
39935W        W48735  23.594   0.818   0.584 -0.1112 -0.1000  0.2203
39936W        W48736  29.917   1.553   5.838 -0.1323 -0.2165 -0.4063
39937W        W48737  10.599   0.542  21.513  0.0100 -0.3537  0.1472
39938W        W48738  12.806   2.091   2.783 -0.0731 -0.1986  0.4621
39939W        W48739   5.575   6.650  15.902 -0.1359  0.1292  0.2175
39940W        W48740   7.937   3.459   8.011 -0.0578  0.1085  0.0245
39941W        W48741   3.165   1.983  20.769 -0.0799 -0.0123 -0.0333
39942W        W48742  14.638   1.011  23.394  0.0338  0.1150 -0.0552
39943W        W48743   4.771   3.446   8.737  0.2356  0.0155  0.0022
39944W        W48744  30.011   7.455   6.804 -0.0744 -0.1988  0.1927
39945W        W48745  26.590   5.053  20.005 -0.3538  0.0760 -0.1485
39946W        W48746  12.139   1.880  17.143 -0.2111  0.0148  0.2682
39947W        W48747  25.025   7.424  20.016 -0.0007  0.3352  0.0672
39948W        W48748  11.763   2.170  19.488  0.1146  0.3673  0.3177
39949W        W48749  14.452   4.651   4.315  0.3255  0.3482  0.2385
39950W        W48750  23.649   0.909  10.704 -0.0919  0.1948  0.3476
39951W        W48751   5.064   2.181   3.612 -0.0267  0.0931  0.0227
39952W        W48752  13.167   2.012  22.403 -0.1186  0.2018  0.0265
39953W        W48753  15.737   5.472   4.863  0.2021 -0.0459 -0.2348
39954W        W48754  30.670   2.790  19.135  0.2796  0.3092  0.0289
39955W        W48755  17.332   0.693   5.047  0.0575  0.0484  0.2384
39956W        W48756  17.234   2.595  20.285 -0.0632  0.0960 -0.1992
39957W        W48757  21.316   5.935   5.412  0.1891 -0.0030 -0.1157
39958W        W48758   8.706   0.023   2.988 -0.0191  0.0976 -0.3222
39959W        W48759   4.129   3.757   7.162 -0.1741  0.1906  0.0902
39960W        W48760  22.089   1.591  15.532 -0.1650 -0.0120  0.1008
39961W        W48761   5.335   6.769  19.927 -0.2333  0.2180  0.3375
39962W        W48762   6.483   6.221  10.282 -0.0843  0.1004  0.2628
39963W        W48763  22.324   2.844   5.973  0.1240  0.0290  0.0137
39964W        W48764  15.975   5.245   2.369 -0.0323  0.1394  0.0447
39965W        W48765  18.937   1.502   8.365 -0.0164  0.2449 -0.1765
39966W        W48766  20.931   2.841  23.722  0.0479  0.0390 -0.0801
39967W        W48767  25.480   1.941  18.656  0.1136 -0.1741  0.1126
39968W        W48768  30.244   5.413   1.242  0.1277  0.2150  0.3223
39969W        W48769  12.801   1.850   4.719 -0.3148  0.3682 -0.0102
39970W        W48770  12.604   5.190  15.820 -0.2667  0.2609 -0.3078
39971W        W48771  30.755   0.813   0.972  0.3120  0.1101  0.1183
39972W        W48772  13.627   6.415  10.852  0.1514  0.1224  0.4403
39973W        W48773   5.713   2.977   9.033 -0.0846 -0.0571  0.1464
39974W        W48774   5.662   0.332   2.218  0.0743 -0.0244  0.0602
39975W        W48775  11.752   0.294   6.866 -0.0585 -0.0601 -0.2251
39976W        W48776  12.223   5.422   0.286  0.2043 -0.2310  0.0411
39977W        W48777  22.132   6.539   2.249  0.0423 -0.2000  0.1825
39978W        W48778  10.721   2.786  21.028  0.0469 -0.0422 -0.0945
39979W        W48779  17.445   5.898  25.149  0.2099  0.0161 -0.1939
39980W        W48780   5.744   4.559  14.667 -0.1106  0.3199 -0.0734
39981W        W48781  30.047   3.939   3.481  0.3173 -0.1138  0.3505
39982W        W48782  10.033   2.503  10.790 -0.0855 -0.0777  0.0844
39983W        W48783  26.914   3.481  16.996 -0.0970 -0.0267 -0.0021
39984W        W48784   7.480   1.352  21.918 -0.0131 -0.1496 -0.0316
39985W        W48785  11.234   5.595   3.344  0.0178  0.0855  0.0797
39986W        W48786  27.607   7.622   1.129 -0.0355  0.1992  0.2210
39987W        W48787   7.686   1.833  23.950  0.1383 -0.0429  0.0023
39988W        W48788  28.825   4.649  24.464 -0.1581 -0.0692 -0.1395
39989W        W48789  30.133   4.951  20.104  0.0289 -0.0590  0.0257
39990W        W48790   1.786   1.925  19.272 -0.0938  0.2278  0.2168
39991W        W48791  16.181   5.801  16.343  0.1308 -0.0598 -0.0204
39992W        W48792  17.662   2.027  23.147 -0.1760  0.3550 -0.1188
39993W        W48793   0.110   6.663  17.574  0.1209  0.0742  0.1798
39994W        W48794   7.382   5.102  19.488 -0.1584 -0.0371 -0.0912
39995W        W48795  20.812   0.647  15.706 -0.1820  0.0651 -0.1396
39996W        W48796  13.952   6.133   0.203  0.0335 -0.2960 -0.0785
39997W        W48797  30.639   2.721   6.999 -0.0803 -0.1885 -0.0082
39998W        W48798  27.746   2.524  24.613 -0.0117 -0.0451 -0.0092
39999W        W48799  28.385   3.600  20.767  0.2806 -0.0628 -0.2476
40000W        W48800  29.926   0.542   8.781 -0.0976  0.1390  0.2422
40001W        W48801  26.341   2.728   0.433 -0.1250 -0.0827 -0.0192
40002W        W48802   3.667   0.252   9.321 -0.2850  0.1354 -0.3705
40003W        W48803   6.392   0.790  23.606  0.0537  0.5097  0.2706
40004W        W48804  22.796   7.594   3.602  0.2082 -0.0142  0.1323
40005W        W48805  17.702   1.517  22.221  0.0944 -0.1726  0.2518
40006W        W48806  29.204   5.458  24.511 -0.1002 -0.1552  0.1585
40007W        W48807  30.269   2.327  17.765 -0.1597 -0.0175  0.0291
40008W        W48808  17.486   4.240   5.969 -0.1857  0.1918  0.1160
40009W        W48809  24.835   6.637  22.976  0.0571 -0.1371  0.0567
40010W        W48810   8.436   5.844   7.218  0.0506 -0.1200 -0.0993
40011W        W48811  30.850   3.030  16.550 -0.0289  0.2487 -0.4026
40012W        W48812  21.816   5.619   7.155 -0.0828  0.1374 -0.1519
40013W        W48813  27.408   6.769  24.433  0.0718 -0.0282  0.0285
40014W        W48814   5.477   1.441   4.029 -0.1001 -0.2031 -0.1337
40015W        W48815  25.423   5.846  18.090  0.0432  0.0178 -0.3444
40016W        W48816  23.810   4.358  18.566  0.2549  0.2310  0.1470
40017W        W48817   3.842   1.891  23.154  0.0543  0.1643  0.2760
40018W        W48818  31.263   1.666   0.424  0.1112 -0.3464  0.0871
40019W        W48819  12.924   4.490   9.266 -0.2700 -0.1405  0.1066
40020W        W48820  16.846   2.001  25.191  0.0850 -0.0442  0.2658
40021W        W48821   5.583   6.013   9.875 -0.0833  0.0823  0.2751
40022W        W48822   7.854   7.265   8.189  0.1511  0.1022 -0.1334
40023W        W48823   3.683   5.692   6.186  0.0363  0.1217 -0.1516
40024W        W48824  11.531   1.416  16.606  0.1456  0.0987  0.1814
40025W        W48825   9.773   0.738  16.063  0.2373  0.0843  0.2339
40026W        W48826  20.804   0.858  22.969  0.0897  0.0311 -0.1299
40027W        W48827  23.274   3.275  20.934  0.3822 -0.1433 -0.0473
40028W        W48828  23.721   4.602   3.396 -0.0295 -0.0823 -0.1074
40029W        W48829  16.752   2.777   4.605 -0.2495  0.3193  0.4775
40030W        W48830   3.557   1.483   0.906 -0.1951 -0.0694 -0.1483
40031W        W48831  16.635   1.596   3.679  0.0626 -0.1191 -0.0573
40032W        W48832  26.936   6.248  23.927 -0.1346 -0.1091  0.0126
40033W        W48833   4.862   0.444   3.271 -0.2504 -0.3986 -0.2176
40034W        W48834   6.329   0.997  10.052  0.1349 -0.1816 -0.1608
40035W        W48835  13.083   6.100   0.938 -0.0397 -0.0548  0.0152
40036W        W48836   1.268   4.796   0.003  0.1216 -0.0674  0.0249
40037W        W48837  25.369   5.311   0.010  0.2641 -0.3944 -0.1736
40038W        W48838  13.207   4.800   4.186 -0.0493 -0.1296  0.2901
40039W        W48839  21.846   2.083  23.541 -0.2623  0.0431 -0.4618
40040W        W48840   0.833   0.852   0.042  0.4348  0.0098 -0.0028
40041W        W48841  22.020   2.661   9.352 -0.0500 -0.0228 -0.1307
40042W        W48842  12.376   6.641   4.914  0.0469 -0.0513 -0.3440
40043W        W48843  26.499   0.101  16.221 -0.2366  0.0477 -0.2636
40044W        W48844  19.036   3.075  20.686  0.2087 -0.2389  0.1711
40045W        W48845  18.098   6.433   3.576 -0.0004  0.0516 -0.1483
40046W        W48846  19.820   1.421  11.192  0.1886  0.1053  0.1079
40047W        W48847  18.200   1.087   7.084 -0.0693 -0.0623 -0.1281
40048W        W48848   0.160   0.757  23.920 -0.0550 -0.0198 -0.1164
40049W        W48849  20.202   7.789  20.386  0.0563 -0.1495 -0.0323
40050W        W48850  23.065   0.139   1.206  0.1407  0.2295  0.1934
40051W        W48851   4.452   2.223   7.653  0.0821  0.6596 -0.0047
40052W        W48852   6.041   2.185  17.743  0.1237 -0.1521  0.1561
40053W        W48853   3.578   3.325   0.796  0.0046  0.0380  0.0920
40054W        W48854  22.137   0.857  19.478  0.0724 -0.3731  0.0091
40055W        W48855  30.662   5.882   0.622  0.2131 -0.0502 -0.3716
40056W        W48856  24.300   3.921   3.337  0.2285 -0.1038  0.0459
40057W        W48857  26.883   6.833   4.463 -0.3075  0.0684  0.5753
40058W        W48858  24.413   0.312  22.906 -0.4515 -0.2603  0.0269
40059W        W48859  19.197   5.170  15.500  0.1901 -0.0238 -0.1809
40060W        W48860  29.805   2.224  21.993 -0.1399  0.0891 -0.1079
40061W        W48861  15.367   3.399   1.933  0.1635  0.0135 -0.0299
40062W        W48862   1.610   0.629   7.169 -0.0913  0.0845  0.0686
40063W        W48863  10.816   2.287  23.192 -0.1634 -0.0093  0.1926
40064W        W48864  15.519   0.219  10.134 -0.0855 -0.0304  0.3078
40065W        W48865  19.122   4.495   8.144  0.1810 -0.0444  0.0929
40066W        W48866  27.836   6.002   8.270  0.1754  0.0007  0.0822
40067W        W48867   4.227   2.693   1.600  0.3120 -0.2387 -0.0124
40068W        W48868  27.496   1.768   4.363  0.1853  0.1471  0.1950
40069W        W48869  11.090   7.053  21.791  0.1754  0.2458 -0.0354
40070W        W48870  21.603   2.553  22.397 -0.0254  0.1274 -0.2352
40071W        W48871  18.945   2.064  15.197 -0.2220  0.0399 -0.0167
40072W        W48872  28.978   5.293   3.790 -0.2720  0.0636  0.3089
40073W        W48873  18.285   5.410   0.100 -0.1809  0.1610 -0.2214
40074W        W48874   9.838   0.218  21.571 -0.0292  0.0606  0.2519
40075W        W48875   8.638   3.381  20.820 -0.0890 -0.0307 -0.1804
40076W        W48876  23.668   4.091  21.709  0.0995 -0.0270 -0.3333
40077W        W48877  30.809   5.765   5.164  0.0089  0.0799 -0.0695
40078W        W48878   8.114   0.536  19.645 -0.1691 -0.2133 -0.2711
40079W        W48879   9.422   6.658   4.541 -0.1519 -0.0885  0.0984
40080W        W48880   0.238   7.200   6.472 -0.1537 -0.2605 -0.0075
40081W        W48881  13.888   2.295  23.740 -0.0093  0.3891 -0.1313
40082W        W48882   7.000   0.598   6.947 -0.2551  0.0595  0.0978
40083W        W48883   1.798   0.100  23.654  0.0781 -0.1353 -0.3629
40084W        W48884  30.997   5.492   6.108 -0.1985 -0.2143 -0.0457
40085W        W48885   4.958   2.783  15.484  0.2446  0.0420  0.2388
40086W        W48886   7.269   7.356   2.732  0.3071 -0.0689 -0.0861
40087W        W48887  14.809   0.372  16.871 -0.1862  0.0447 -0.1797
40088W        W48888   4.689   3.210  17.828 -0.0776 -0.1382 -0.1010
40089W        W48889  11.719   6.469  16.429 -0.0219  0.0030 -0.0030
40090W        W48890  27.262   3.085  23.429  0.0212 -0.0657 -0.2304
40091W        W48891   6.816   6.751  20.820  0.1673 -0.0605 -0.1303
40092W        W48892   7.776   7.709  24.436 -0.1167  0.0500 -0.1178
40093W        W48893  15.877   3.376  25.035  0.0696 -0.0671 -0.0484
40094W        W48894   2.171   1.097   6.897 -0.2878 -0.3732 -0.0270
40095W        W48895   2.453   1.339  19.779  0.1019 -0.1874 -0.0176
40096W        W48896   5.037   2.353  10.188 -0.1555 -0.1475  0.1476
40097W        W48897   1.165   4.108  23.491 -0.0096 -0.3011 -0.0928
40098W        W48898  24.290   4.080   9.354  0.1271 -0.3147 -0.1382
40099W        W48899  25.977   6.403   0.439  0.2179 -0.0615 -0.2269
40100W        W48900   4.187   3.397   4.738 -0.3191 -0.1756 -0.2949
40101W        W48901   3.041   3.063   0.099 -0.0577  0.2260 -0.0501
40102W        W48902   9.120   2.402   5.609  0.2310 -0.1691 -0.1320
40103W        W48903   9.211   2.043  25.023  0.2180  0.3361 -0.0996
40104W        W48904   0.570   3.421  15.098  0.1295 -0.2016 -0.2142
40105W        W48905   1.276   2.286  16.271 -0.2680 -0.2662 -0.0440
40106W        W48906  14.154   5.778  19.859 -0.1201  0.0793  0.0307
40107W        W48907   3.992   6.678  18.357 -0.0174 -0.0491 -0.1157
40108W        W48908   4.487   5.275   6.350 -0.1517 -0.3276 -0.3465
40109W        W48909   1.833   3.932  17.654 -0.2924 -0.0287 -0.3195
40110W        W48910   5.096   5.115  18.552 -0.2999  0.0226  0.2559
40111W        W48911  31.431   4.297   9.708  0.0188 -0.2755 -0.0782
40112W        W48912   0.786   1.229   7.042  0.1001  0.1304  0.0536
40113W        W48913  23.693   4.917   5.660 -0.0611 -0.0551  0.0072
40114W        W48914  25.669   4.200  20.807 -0.1348 -0.3772  0.4197
40115W        W48915  13.027   6.685   3.991  0.1436 -0.1095  0.0309
40116W        W48916  24.208   3.405  19.690 -0.1541 -0.2857  0.1565
40117W        W48917  21.668   4.520   7.578  0.3896  0.2182 -0.1294
40118W        W48918   6.739   1.684  23.661 -0.0953  0.0936 -0.0778
40119W        W48919   4.245   1.721   2.382  0.1730  0.1254 -0.0341
40120W        W48920  11.407   2.489  15.965  0.6068 -0.3846  0.0956
40121W        W48921  27.316   0.394  21.131 -0.0472 -0.1684 -0.0477
40122W        W48922  24.325   7.058   4.236 -0.1347 -0.1121 -0.2155
40123W        W48923  31.132   6.739  19.973  0.0746 -0.2331  0.1630
40124W        W48924  15.389   7.491   9.716 -0.3445  0.3192 -0.2478
40125W        W48925   8.946   6.417   8.763 -0.1300 -0.0239 -0.1028
40126W        W48926  11.391   5.978  16.642 -0.2747 -0.0716  0.0938
40127W        W48927   4.278   1.642  20.078  0.2006  0.2780 -0.0423
40128W        W48928   2.572   4.367  17.954 -0.1223  0.0783 -0.0148
40129W        W48929  12.540   2.487   4.815 -0.1994 -0.3532 -0.1029
40130W        W48930  10.478   5.301   6.951  0.1036 -0.1184  0.1095
40131W        W48931   5.156   3.244  16.005 -0.1853  0.0921  0.0651
40132W        W48932  14.147   5.328   9.448  0.2602 -0.1751  0.0188
40133W        W48933  20.951   2.723  22.930 -0.0424 -0.4371 -0.2134
40134W        W48934  25.296   1.875  16.048  0.0121  0.0488  0.0575
40135W        W48935  30.427   7.379  21.742 -0.2188  0.2963  0.0303
40136W        W48936  24.398   0.675  23.886  0.2651 -0.0791 -0.0803
40137W        W48937  24.608   6.705   3.963  0.1800 -0.1059  0.0138
40138W        W48938  14.225   2.072  23.430 -0.0673 -0.0017 -0.1814
40139W        W48939  23.677   3.828   0.526 -0.0316 -0.0330  0.1996
40140W        W48940   2.658   0.976   3.831 -0.1810  0.0403 -0.2496
40141W        W48941  22.748   6.350   5.513  0.1272 -0.1112  0.0892
40142W        W48942  10.439   1.470  20.494 -0.0037 -0.1535  0.0117
40143W        W48943  10.291   6.828   7.430 -0.1498 -0.0678  0.0791
40144W        W48944  21.238   7.369   5.217  0.0537 -0.2484 -0.0698
40145W        W48945  26.825   7.186   2.382 -0.1508 -0.1104 -0.0971
40146W        W48946   5.283   3.086   5.609 -0.0154 -0.0293 -0.1036
40147W        W48947  19.426   6.243  23.192  0.0299  0.1565 -0.0655
40148W        W48948  18.421   1.293  24.672  0.1660 -0.0963 -0.2982
40149W        W48949  21.245   5.083   5.130 -0.0794 -0.0406  0.1404
40150W        W48950  30.897   5.694  24.207  0.0256  0.1672  0.0527
40151W        W48951   1.851   1.186   3.395 -0.0286 -0.1369  0.2141
40152W        W48952  26.067   6.877  22.520 -0.1462 -0.2614  0.0300
40153W        W48953  14.842   6.363  21.268 -0.0345 -0.2590 -0.0461
40154W        W48954  26.226   1.909  15.380 -0.0679  0.2449  0.1456
40155W        W48955   6.621   3.808   5.268  0.1165 -0.3680  0.0385
40156W        W48956   4.067   6.033   1.619  0.0809 -0.3349 -0.3278
40157W        W48957   6.859   2.813  24.353  0.1994  0.2578 -0.1424
40158W        W48958  18.689   4.496   5.153  0.0792 -0.2439  0.0064
40159W        W48959  29.797   0.071   1.683 -0.2930 -0.0214 -0.2075
40160W        W48960  28.272   4.602   9.409 -0.0555 -0.1584 -0.1600
40161W        W48961  26.220   3.349   6.590 -0.1942  0.0705  0.0123
40162W        W48962  28.540   7.404  21.965  0.1408 -0.0494  0.1033
40163W        W48963  14.737   3.819   4.371  0.0392 -0.1938 -0.0710
40164W        W48964  20.486   0.405   3.221  0.2185 -0.2118  0.0488
40165W        W48965  20.214   5.753   3.870  0.1612 -0.1955  0.3246
40166W        W48966  17.546   1.490  20.288  0.0884  0.3080 -0.2507
40167W        W48967  18.165   7.748   1.165  0.0735 -0.2583 -0.0128
40168W        W48968  29.313   2.718  21.001  0.2380 -0.3303  0.2434
40169W        W48969  12.936   5.445  19.684  0.1839  0.0986 -0.2277
40170W        W48970  29.679   2.453  16.058  0.0675  0.2445  0.2280
40171W        W48971  22.358   7.206   1.138 -0.2019  0.6365  0.0879
40172W        W48972  27.052   1.094  22.176 -0.2905  0.0385  0.1047
40173W        W48973  15.324   6.786   1.534 -0.1495 -0.3548  0.1846
40174W        W48974  21.112   2.829  25.598 -0.2543 -0.0044  0.0307
40175W        W48975  16.192   0.775  20.732 -0.3333  0.0269 -0.1358
40176W        W48976  16.273   4.176   1.372 -0.1707 -0.3000 -0.0100
40177W        W48977  29.480   4.109   9.130 -0.2314  0.2979  0.2920
40178W        W48978  22.534   3.602  19.062  0.2848  0.0453  0.0455
40179W        W48979   2.718   3.465  20.004  0.2559  0.1130 -0.1548
40180W        W48980   7.569   4.499   5.976  0.1179 -0.0057 -0.1495
40181W        W48981   6.709   5.427  24.199 -0.3342 -0.0450 -0.2139
40182W        W48982  20.490   5.368  10.433 -0.1134  0.0200 -0.1119
40183W        W48983  30.954   5.659  25.936 -0.0868  0.0498 -0.0544
40184W        W48984  17.942   5.033  18.483 -0.1269  0.2227  0.1286
40185W        W48985  16.017   1.662   3.083 -0.1389  0.1565 -0.2827
40186W        W48986  29.943   0.811   4.849  0.0489  0.1067 -0.1691
40187W        W48987  11.599   0.284   6.166 -0.4129  0.2005  0.0736
40188W        W48988   3.973   5.744  14.269 -0.1741 -0.1606  0.1231
40189W        W48989  31.022   4.307   3.372 -0.1143 -0.1161 -0.1163
40190W        W48990   3.889   0.388  15.098  0.2281 -0.0882  0.2214
40191W        W48991  22.431   6.188   7.474 -0.0911  0.2611 -0.2736
40192W        W48992  16.008   4.551   1.598  0.0550 -0.0724 -0.0079
40193W        W48993   4.504   0.108  20.149  0.0364 -0.3006  0.1759
40194W        W48994  23.037   5.942   5.117  0.2894 -0.2564  0.2253
40195W        W48995  25.038   1.263   5.874  0.0287  0.0061 -0.0707
40196W        W48996  11.156   4.854  10.684  0.0089 -0.0195 -0.0988
40197W        W48997  28.313   3.280  17.053 -0.3068  0.0247  0.1284
40198W        W48998  22.225   5.125  24.659  0.0686  0.0736 -0.1831
40199W        W48999  18.182   4.443   6.637 -0.1538  0.0872  0.2590
40200W        W49000  13.077   5.460   3.481 -0.0542  0.1195 -0.0539
40201W        W49001   3.716   7.566  18.580 -0.0310  0.1011  0.3665
40202W        W49002  23.769   3.448   6.628  0.2012 -0.0577  0.0578
40203W        W49003   2.360   2.095  16.979 -0.2010  0.0912  0.0911
40204W        W49004  14.131   2.479  10.585 -0.0072  0.2186 -0.2639
40205W        W49005  28.217   1.724   6.321  0.1876  0.1528  0.0051
40206W        W49006   4.759   0.770  20.612 -0.0649 -0.2189  0.2710
40207W        W49007   7.613   4.678   7.258  0.1553 -0.0128  0.0098
40208W        W49008   5.308   2.995  19.510 -0.0228 -0.2649  0.0000
40209W        W49009  23.418   3.287   5.707  0.1846 -0.3114  0.3024
40210W        W49010  25.488   0.099   3.428 -0.2228  0.2497 -0.2398
40211W        W49011   5.879   1.193   7.244  0.0820  0.0101 -0.1807
40212W        W49012   5.228   7.387  18.144  0.2742  0.1695 -0.0947
40213W        W49013   4.389   2.530   9.814  0.2234 -0.0625 -0.2093
40214W        W49014  27.609   7.618   4.396 -0.1180 -0.1314 -0.0381
40215W        W49015   8.429   5.241   1.936 -0.1087 -0.0435  0.0825
40216W        W49016  22.776   5.050  24.690  0.1109  0.0365 -0.1146
40217W        W49017  28.147   5.620  19.929 -0.0535  0.2378  0.1433
40218W        W49018   7.738   0.475  17.783  0.0553  0.2827  0.0828
40219W        W49019   7.985   6.003   9.992 -0.0147 -0.2996 -0.1512
40220W        W49020   6.508   3.728   0.980  0.2689  0.1731 -0.0438
40221W        W49021  26.040   7.284  25.294  0.1106  0.2647 -0.1164
40222W        W49022   3.624   2.774  10.304  0.0701 -0.1714 -0.2586
40223W        W49023  18.514   6.273   3.985  0.0431  0.0297 -0.3887
40224W        W49024  16.557   6.570   9.871  0.0971 -0.0072  0.0562
40225W        W49025  30.600   3.679  17.070 -0.0279 -0.1489 -0.0320
40226W        W49026   5.742   4.975  16.543 -0.0581  0.3512 -0.0840
40227W        W49027   2.193   0.446   0.898 -0.1545 -0.0628  0.0852
40228W        W49028  28.842   0.064   8.148  0.3353  0.3910  0.1430
40229W        W49029  17.349   3.845  24.043 -0.0926 -0.0707  0.1837
40230W        W49030  22.273   2.059   6.710  0.0273 -0.1794 -0.1416
40231W        W49031  29.200   1.394  15.477 -0.0565  0.1128 -0.2252
40232W        W49032   0.752   1.894  20.573  0.0481  0.0618 -0.3750
40233W        W49033  19.220   4.709  18.104 -0.0106  0.1402  0.0398
40234W        W49034  29.110   6.393  24.225  0.0490  0.0325 -0.1462
40235W        W49035   5.884   7.371  18.072 -0.2411  0.1071  0.0109
40236W        W49036  13.208   7.288  25.870  0.2851 -0.1281  0.0016
40237W        W49037   1.145   7.059  25.633  0.0099 -0.1960  0.1321
40238W        W49038   2.412   7.715   0.444 -0.0149 -0.0628  0.0861
40239W        W49039   0.704   2.146  21.055  0.0517  0.3496 -0.2847
40240W        W49040  13.396   7.160   6.788 -0.2818 -0.0821 -0.0724
40241W        W49041   7.962   6.019   7.101 -0.0667 -0.1122  0.2883
40242W        W49042  31.191   4.512  16.364  0.2370 -0.0036  0.1345
40243W        W49043   6.161   4.204   2.773  0.2549 -0.0961 -0.0566
40244W        W49044  29.041   5.987   4.457 -0.2174 -0.0895  0.2872
40245W        W49045  19.706   7.014  21.474 -0.3579  0.1924 -0.4173
40246W        W49046  18.880   1.266   0.110  0.0241 -0.0377  0.0148
40247W        W49047  30.607   2.653   0.546  0.0236 -0.1053 -0.3538
40248W        W49048   6.937   2.979  24.906  0.0353  0.1152  0.0439
40249W        W49049  21.563   1.104  20.590  0.1166  0.1551  0.0713
40250W        W49050   6.075   2.534   2.002 -0.1633  0.0718  0.0981
40251W        W49051  13.422   5.277  23.747 -0.1041  0.0676  0.2289
40252W        W49052  18.021   6.698  10.309  0.2093 -0.1029  0.1386
40253W        W49053  13.201   1.753   1.919  0.2242  0.1891 -0.1806
40254W        W49054   7.932   4.243  16.896 -0.5736  0.1308 -0.0132
40255W        W49055  18.542   4.144   2.087  0.0742  0.0702 -0.0651
40256W        W49056  12.848   1.022  10.014  0.3228  0.0326  0.3410
40257W        W49057  10.411   5.931  25.636  0.1793  0.2153  0.1383
40258W        W49058  24.111   5.809  20.206  0.1005 -0.0427 -0.1556
40259W        W49059  26.800   0.215  23.824 -0.2915 -0.3839 -0.0318
40260W        W49060  22.373   1.023  24.835 -0.2309 -0.3192 -0.2919
40261W        W49061  28.472   1.235  16.706  0.1102  0.0673  0.3193
40262W        W49062  15.169   6.702  23.910 -0.1328  0.1494  0.0321
40263W        W49063   4.912   4.547   8.068  0.2760  0.5043 -0.0034
40264W        W49064  25.945   1.726  18.904  0.0681  0.1725 -0.1678
40265W        W49065  23.363   3.747  25.783  0.1341 -0.0180  0.1150
40266W        W49066  15.843   5.928   8.924  0.1009 -0.0756  0.1484
40267W        W49067   9.704   2.526  19.609 -0.0454 -0.0885  0.1958
40268W        W49068   5.100   4.383  23.291 -0.2959  0.2320 -0.3254
40269W        W49069   7.061   6.319  19.288  0.0961  0.0737 -0.1817
40270W        W49070  20.140   5.647  20.516 -0.0535 -0.1759 -0.2583
40271W        W49071  12.646   7.004   1.513  0.0166 -0.0257  0.0539
40272W        W49072   4.561   2.566  22.131  0.0466  0.0050 -0.2412
40273W        W49073   8.449   7.637   1.609 -0.1183  0.1004  0.0071
40274W        W49074  14.242   4.389   3.276  0.0920  0.0993 -0.0157
40275W        W49075  24.469   4.185  16.841 -0.1671  0.0652  0.1917
40276W        W49076  14.327   5.333   1.625  0.1082 -0.1178  0.0606
40277W        W49077  14.169   6.678   8.918 -0.0697 -0.0871  0.3106
40278W        W49078  14.900   6.976  19.922  0.1466 -0.0581 -0.0636
40279W        W49079   8.160   5.313  19.199 -0.1322 -0.1699  0.2132
40280W        W49080   2.617   3.314  17.192  0.2006  0.0098 -0.2986
40281W        W49081  14.467   5.821  25.283 -0.2009  0.0548  0.2750
40282W        W49082   1.480   3.816  16.406  0.3477 -0.3387 -0.0304
40283W        W49083  25.877   2.388  25.968  0.3106 -0.0640  0.0227
40284W        W49084   0.190   5.106   6.671 -0.1734 -0.0480 -0.0668
40285W        W49085  14.014   1.000  25.130  0.0853 -0.1779 -0.1749
40286W        W49086   9.922   3.527   0.775 -0.3939  0.2423  0.3128
40287W        W49087   6.269   5.944   6.751 -0.0843  0.1228  0.1293
40288W        W49088  17.691   3.701   3.109  0.0317  0.1958  0.0469
40289W        W49089  31.247   2.599  21.630  0.0257 -0.4770  0.1920
40290W        W49090  22.923   5.163   6.212  0.1339 -0.0715  0.3822
40291W        W49091   0.049   3.692  23.772  0.0285 -0.0384 -0.0307
40292W        W49092   1.758   7.063  22.509  0.0292  0.2301 -0.1306
40293W        W49093  24.885   4.722   2.026 -0.2481  0.2139 -0.1523
40294W        W49094  30.290   1.093  24.268  0.1370  0.0805  0.0197
40295W        W49095   7.717   4.275  16.051  0.0942  0.1563  0.0934
40296W        W49096  27.018   1.377  20.222 -0.0649  0.2234  0.1480
40297W        W49097   8.322   4.415   8.360 -0.2979  0.0422 -0.0631
40298W        W49098  16.712   2.183   6.518  0.0608  0.1148  0.0950
40299W        W49099  19.940   5.975   9.780 -0.0213 -0.1746 -0.1014
40300W        W49100  10.340   5.220  23.386 -0.2453  0.0222 -0.2633
40301W        W49101   1.080   0.516   7.065  0.0138 -0.3550 -0.1145
40302W        W49102  27.697   6.545   6.698 -0.2132 -0.1240  0.1045
40303W        W49103   9.822   2.220  25.402 -0.1263 -0.2040  0.3896
40304W        W49104   9.702   5.800  20.272 -0.2295  0.0544  0.0533
40305W        W49105  27.751   3.854  24.738 -0.1889 -0.0500  0.2154
40306W        W49106  16.331   1.374  19.426 -0.2140 -0.0515  0.2946
40307W        W49107   3.079   0.017  18.310 -0.2474 -0.1730 -0.3079
40308W        W49108  26.757   2.775   0.834 -0.2284 -0.0868  0.0439
40309W        W49109  29.942   7.604   8.721  0.0713  0.0079  0.2185
40310W        W49110  30.756   4.246   0.366  0.0886 -0.1138 -0.0768
40311W        W49111  28.976   6.426   6.016  0.0762  0.0582 -0.1463
40312W        W49112  20.541   5.857   0.537  0.0720  0.1909  0.0215
40313W        W49113   1.469   0.830  15.915 -0.0729  0.0114 -0.1315
40314W        W49114  12.247   2.259  24.889 -0.0571  0.3571  0.3763
40315W        W49115  19.603   5.430  19.288 -0.0688  0.0873  0.0447
40316W        W49116  28.184   4.586   2.694  0.5302  0.0628 -0.2394
40317W        W49117   1.959   2.651   2.971 -0.0272  0.1360  0.2153
40318W        W49118  18.956   5.384  19.315 -0.0517 -0.2578  0.0624
40319W        W49119   7.291   6.249   4.020  0.3058  0.3070  0.1997
40320W        W49120  19.202   5.726   7.942  0.0117  0.2244 -0.0980
40321W        W49121  21.223   2.261   8.343  0.1983 -0.1941  0.0365
40322W        W49122   8.323   4.446  15.143 -0.0266 -0.1891  0.0631
40323W        W49123  13.610   3.013  16.292 -0.0184 -0.0824 -0.0145
40324W        W49124  14.764   7.577  10.597 -0.2361  0.1726  0.1986
40325W        W49125  30.800   6.183  24.107  0.1455  0.1499 -0.0168
40326W        W49126  29.703   6.621  17.762 -0.0597 -0.1679  0.1082
40327W        W49127  21.903   5.224   4.312 -0.0948 -0.0851 -0.1933
40328W        W49128  17.146   6.158   8.641 -0.1934 -0.1005 -0.0462
40329W        W49129  20.630   2.617   5.076  0.0372 -0.0671  0.2514
40330W        W49130  18.534   3.476  10.478 -0.1334  0.3834  0.0684
40331W        W49131  20.731   4.922  17.349 -0.2214 -0.0585  0.1423
40332W        W49132   0.171   7.217   3.230  0.0609 -0.0932  0.1085
40333W        W49133  10.645   1.737  24.562  0.0098  0.0995 -0.1178
40334W        W49134  20.338   3.828  15.176 -0.1770 -0.0775  0.0707
40335W        W49135  15.301   2.718  25.956 -0.0604  0.1324 -0.3490
40336W        W49136   0.639   5.300   2.179  0.0731  0.5682 -0.0194
40337W        W49137   2.928   5.942   3.935  0.2174  0.2767  0.2856
40338W        W49138   4.573   1.465  19.700  0.0439 -0.0050  0.3338
40339W        W49139   2.413   4.048   9.584 -0.3517  0.1559 -0.0801
40340W        W49140   1.241   7.584  15.589 -0.0174 -0.0090  0.0423
40341W        W49141  23.513   3.049  19.344 -0.2512 -0.1638 -0.0441
40342W        W49142  31.040   7.549  16.237 -0.0221  0.2798  0.0249
40343W        W49143   0.111   2.491   0.958  0.3439  0.2756 -0.1347
40344W        W49144  28.787   6.428   6.525 -0.1651 -0.0234 -0.1186
40345W        W49145   3.790   1.780   2.657 -0.1773 -0.2111  0.1376
40346W        W49146  11.775   4.729  22.282  0.1536 -0.2558 -0.0057
40347W        W49147  30.897   3.046   5.696 -0.0069  0.1927 -0.1964
40348W        W49148  21.680   6.594   9.215 -0.1384 -0.2516  0.1247
40349W        W49149   0.195   4.334   7.798 -0.2550  0.2103 -0.0077
40350W        W49150  24.378   7.756   7.913 -0.0503  0.0209 -0.0557
40351W        W49151  20.989   0.952   4.673 -0.0181 -0.1354 -0.1332
40352W        W49152  10.356   0.989   9.710  0.0611  0.2496  0.0090
40353W        W49153   7.777   1.522  15.421  0.1565  0.0023 -0.1760
40354W        W49154  29.396   0.830   4.162  0.2785  0.1568 -0.2770
40355W        W49155   1.594   7.262  10.941 -0.2793  0.0283 -0.0640
40356W        W49156  28.564   6.393   4.776  0.1178  0.1949 -0.1202
40357W        W49157  11.721   6.270  20.395 -0.0027 -0.3039 -0.2516
40358W        W49158   5.058   5.283  23.265  0.1581  0.2436  0.0185
40359W        W49159   0.882   0.505  20.828  0.1764  0.0478 -0.3402
40360W        W49160  10.835   7.181   2.526  0.1601 -0.1749 -0.0986
40361W        W49161   0.226   3.196  20.433 -0.3213  0.1388  0.0269
40362W        W49162  10.964   4.809  16.760 -0.1209  0.0781 -0.1566
40363W        W49163  15.860   2.213  18.978  0.0004 -0.0588 -0.4370
40364W        W49164   3.802   7.097  25.586  0.3473  0.2576 -0.0884
40365W        W49165   6.230   7.492  25.935 -0.2437 -0.2013 -0.0104
40366W        W49166  12.735   4.501  21.703 -0.0838  0.1736 -0.1928
40367W        W49167  10.884   5.141   4.422  0.0219  0.0639  0.1209
40368W        W49168  24.000   2.879  17.502  0.0242 -0.0334 -0.1048
40369W        W49169   6.975   5.976  18.900 -0.2220  0.1087 -0.1974
40370W        W49170  15.155   2.117  10.331 -0.1909  0.0373 -0.3336
40371W        W49171  25.919   0.332   0.250 -0.1731 -0.0793 -0.0553
40372W        W49172  22.931   4.576  10.536  0.1747  0.0976 -0.1119
40373W        W49173  16.999   1.636  24.056 -0.0352  0.0839  0.1887
40374W        W49174  23.600   6.250   4.210  0.2796  0.0984 -0.0906
40375W        W49175  27.792   7.746   9.005  0.0423  0.4474 -0.1148
40376W        W49176   3.269   0.866  10.187  0.0293 -0.2954  0.0429
40377W        W49177  15.483   3.502  19.316  0.3922 -0.1192 -0.0960
40378W        W49178  26.478   1.252  18.326 -0.0850 -0.1610 -0.3159
40379W        W49179   1.120   6.091  25.183  0.1950 -0.3021 -0.3113
40380W        W49180  10.319   4.528   7.492  0.2438 -0.3287 -0.1071
40381W        W49181  18.749   0.788   1.701  0.1534 -0.0570 -0.0852
40382W        W49182  23.442   2.523  21.117  0.2048  0.0251 -0.2619
40383W        W49183  20.569   4.937  22.796 -0.1712 -0.1629 -0.0037
40384W        W49184  19.111   5.862   2.075  0.1686 -0.0875  0.2161
40385W        W49185  12.708   2.114  21.159 -0.0251 -0.1718  0.4495
40386W        W49186  29.700   4.256   0.286 -0.3035  0.0046  0.0254
40387W        W49187   8.814   6.575  19.174 -0.0272 -0.2752  0.0379
40388W        W49188  16.844   5.812   6.162  0.1922 -0.0477  0.0691
40389W        W49189   7.869   5.094  24.636  0.1481  0.1326  0.2836
40390W        W49190  28.520   5.089   3.829 -0.2861 -0.2048  0.1920
40391W        W49191  23.717   5.119   0.714  0.1891  0.1965  0.1086
40392W        W49192  26.292   0.189   1.308  0.0188 -0.1283 -0.3427
40393W        W49193  14.715   4.538  23.638 -0.1005  0.3892 -0.1417
40394W        W49194  13.723   7.615  10.327  0.4140  0.2290 -0.4226
40395W        W49195  18.794   1.514  16.186 -0.0643 -0.1548 -0.0875
40396W        W49196  31.262   6.906  21.609 -0.0850 -0.0305 -0.0120
40397W        W49197  23.033   0.690   7.603 -0.1083 -0.0074  0.3431
40398W        W49198  24.953   1.617  21.966 -0.0327  0.4715 -0.1421
40399W        W49199  25.056   5.792  23.735 -0.1692  0.0265  0.0581
40400W        W49200  19.990   1.567  22.311 -0.0675 -0.3173  0.2552
40401W        W49201   0.405   3.902  17.896 -0.6026  0.0622 -0.1635
40402W        W49202   2.323   6.620  16.262  0.0550 -0.0681  0.0653
40403W        W49203  14.674   1.973  17.643  0.0195  0.0515 -0.4572
40404W        W49204  16.296   7.477  16.936  0.0542 -0.1029 -0.0885
40405W        W49205   0.730   6.963   1.467 -0.2394  0.1681  0.1616
40406W        W49206  13.416   2.618   4.352  0.0626 -0.0840  0.2363
40407W        W49207  22.017   7.778  19.343 -0.1779  0.3016  0.1196
40408W        W49208  17.789   5.435   2.796 -0.0433 -0.1762 -0.0522
40409W        W49209  24.591   7.283  15.901 -0.3542  0.1949  0.1338
40410W        W49210   0.019   5.821   5.548  0.1572 -0.0068  0.2273
40411W        W49211   1.393   4.103   9.500 -0.1880 -0.2318  0.0358
40412W        W49212  27.378   7.229   4.924  0.0955 -0.1214  0.0317
40413W        W49213  23.656   0.261  25.364  0.3208 -0.4156 -0.0344
40414W        W49214   4.404   5.121  23.799  0.0424 -0.2328  0.0323
40415W        W49215   7.537   4.461   2.702 -0.0056 -0.0357  0.0422
40416W        W49216  29.682   0.710  18.031  0.3054 -0.1650  0.0697
40417W        W49217  14.359   0.798   7.264 -0.0429 -0.2213 -0.1056
40418W        W49218  27.423   6.856   8.440  0.0971  0.0268  0.0953
40419W        W49219  29.137   2.633   4.386  0.0213  0.0180  0.2765
40420W        W49220  29.604   0.074  15.231 -0.1410 -0.1156  0.1309
40421W        W49221  20.646   3.992   5.919  0.2578  0.1269 -0.0260
40422W        W49222  23.420   0.987  20.999  0.1304 -0.1813  0.1004
40423W        W49223  27.336   6.576  21.375  0.0349  0.1144 -0.0056
40424W        W49224   4.746   5.989  15.281 -0.2507 -0.0441 -0.0499
40425W        W49225   4.083   4.984  17.670  0.1224 -0.2048 -0.0847
40426W        W49226  28.154   0.446  11.064  0.1581 -0.4305 -0.0442
40427W        W49227  10.293   6.083  19.502 -0.0134  0.3615 -0.0185
40428W        W49228  28.759   3.755  20.451  0.0602  0.0515 -0.0744
40429W        W49229  21.123   0.936   8.130  0.1829  0.0445 -0.0293
40430W        W49230  29.718   3.003  15.069  0.1435 -0.1956 -0.0545
40431W        W49231   4.752   7.635   5.061  0.3822  0.0943  0.0174
40432W        W49232  20.496   0.112  25.063  0.1398  0.1447 -0.0602
40433W        W49233   5.602   1.445  25.358 -0.1124  0.1121  0.2690
40434W        W49234  22.550   2.403   7.174 -0.1941 -0.3022  0.0926
40435W        W49235  24.843   5.606   3.823 -0.0745 -0.0320 -0.0723
40436W        W49236   0.923   2.367  18.774  0.0110 -0.1726 -0.1210
40437W        W49237  17.871   4.486  20.409  0.0491 -0.2158  0.0905
40438W        W49238   6.040   3.561   5.667 -0.0718  0.1052 -0.1997
40439W        W49239  16.598   3.914   1.841 -0.1729  0.0084  0.1748
40440W        W49240   3.963   1.474  24.766  0.1325  0.1696 -0.1440
40441W        W49241  27.047   0.959   6.474  0.1180  0.1339 -0.1298
40442W        W49242  27.919   6.436  17.766  0.1886  0.0914  0.1444
40443W        W49243   9.500   1.262   3.396 -0.2126  0.0505  0.0375
40444W        W49244  23.946   0.255   8.772  0.0404  0.1311  0.0499
40445W        W49245   3.807   3.345   7.709  0.0483  0.0112  0.0477
40446W        W49246  22.477   1.093   6.739 -0.0311 -0.0679  0.0681
40447W        W49247  19.281   4.402   0.856 -0.0199 -0.0993  0.2417
40448W        W49248  16.422   0.352  19.074  0.1548 -0.0873 -0.2191
40449W        W49249  21.181   2.553   1.656 -0.1117  0.1483 -0.1590
40450W        W49250  29.873   6.601   6.562  0.2504 -0.1631 -0.2135
40451W        W49251  20.462   7.542   0.018 -0.0892  0.1530 -0.0577
40452W        W49252  11.291   4.685   3.733 -0.2112  0.1583  0.0755
40453W        W49253   1.434   6.050  17.723 -0.1200  0.2532  0.2728
40454W        W49254  30.619   0.608  16.746 -0.0189 -0.0256  0.0488
40455W        W49255  11.490   7.063   3.522 -0.2588 -0.0703 -0.0436
40456W        W49256   0.519   3.253   8.338 -0.1555 -0.0975  0.0510
40457W        W49257   2.318   2.507   0.424  0.1147 -0.1257  0.1946
40458W        W49258  11.524   1.543   8.076  0.1059 -0.1554  0.0665
40459W        W49259  23.944   2.168   8.230 -0.0120  0.0213 -0.3398
40460W        W49260  11.018   1.545   3.390 -0.0157  0.0577  0.3842
40461W        W49261  12.257   5.827  22.561  0.2120 -0.2744 -0.1717
40462W        W49262   1.507   2.589   7.298 -0.3173  0.1205  0.2636
40463W        W49263  12.484   6.864  16.531  0.0538 -0.0313  0.1385
40464W        W49264  21.059   5.047   4.137 -0.0990  0.3719  0.2124
40465W        W49265  19.329   2.923   4.470  0.0082  0.0714  0.1805
40466W        W49266   6.269   1.096  24.406 -0.0395 -0.2264  0.2767
40467W        W49267   9.361   6.631   7.318  0.1294  0.1075 -0.2758
40468W        W49268  30.828   4.129  21.417  0.0169 -0.0990 -0.0381
40469W        W49269  13.857   6.386   7.071  0.1512 -0.1215 -0.4092
40470W        W49270  23.268   0.744  25.842  0.0037 -0.2054  0.3342
40471W        W49271   3.596   3.387  17.002 -0.0081 -0.0617 -0.0354
40472W        W49272  21.791   2.475  17.659 -0.0518  0.0186 -0.1291
40473W        W49273  20.697   7.381  20.046  0.0539 -0.1730  0.0892
40474W        W49274   6.270   4.121   0.805 -0.0789  0.0623  0.0600
40475W        W49275  27.783   0.301  24.312 -0.0458  0.4348 -0.3397
40476W        W49276  25.785   4.863  10.966 -0.0003  0.2382  0.0795
40477W        W49277  26.686   3.845   4.548 -0.2082 -0.0482 -0.1916
40478W        W49278  29.060   4.075  25.131  0.0751 -0.0022  0.0604
40479W        W49279   5.616   4.066   7.662  0.0297  0.0435  0.3940
40480W        W49280   8.534   4.006   5.853  0.0138  0.0246  0.1830
40481W        W49281  13.877   6.353  16.445  0.0353  0.0996  0.3176
40482W        W49282  10.067   1.502   3.458 -0.0497  0.0449  0.1419
40483W        W49283  15.104   0.366  14.814 -0.1912  0.0223  0.3534
40484W        W49284  31.085   4.514   2.025  0.0447  0.1295 -0.0605
40485W        W49285  23.838   1.160   4.348  0.1581 -0.0749  0.0216
40486W        W49286  18.674   7.401  22.601  0.1762  0.1096 -0.1045
40487W        W49287  16.717   6.839   8.378 -0.2039 -0.0123 -0.1098
40488W        W49288  20.587   2.502   4.602  0.0812  0.3950  0.0446
40489W        W49289   8.145   0.244   9.695  0.1742 -0.0231  0.1247
40490W        W49290  20.717   0.676   7.760  0.0794 -0.3024  0.0029
40491W        W49291   9.796   0.366  22.120 -0.2860 -0.0167 -0.2857
40492W        W49292   4.712   1.597  23.911  0.1235  0.2175  0.1022
40493W        W49293  20.170   5.208   5.723 -0.0146 -0.0474  0.2666
40494W        W49294  14.056   0.325   2.876  0.1403  0.0114 -0.0048
40495W        W49295  24.984   0.253   0.097  0.2098 -0.3778  0.1154
40496W        W49296  24.154   7.226  25.224 -0.2918 -0.1721 -0.1190
40497W        W49297   4.051   5.406  22.079 -0.2404  0.0164 -0.0790
40498W        W49298   4.625   5.193  18.451 -0.0196  0.2215 -0.1231
40499W        W49299  29.650   0.869  24.642  0.0591 -0.1881  0.2394
40500W        W49300  17.365   7.139   4.485 -0.1445  0.0354 -0.0024
40501W        W49301   0.380   6.197  22.702  0.1882  0.3476 -0.5311
40502W        W49302   7.098   4.910   9.081  0.1423 -0.2756 -0.1549
40503W        W49303  18.354   1.192   9.252 -0.2049  0.1074 -0.0182
40504W        W49304  20.219   5.317  15.313  0.0618  0.1254 -0.1026
40505W        W49305   1.497   5.782  19.762  0.1051  0.1781 -0.1272
40506W        W49306   3.035   3.767  20.289 -0.1221 -0.2193 -0.2095
40507W        W49307  23.685   5.485   9.739 -0.0163  0.0116  0.3074
40508W        W49308  13.516   1.405  25.204 -0.0090 -0.0622  0.0877
40509W        W49309  24.766   5.811  18.801  0.1083 -0.0037 -0.2788
40510W        W49310  21.496   2.465  25.473  0.1143 -0.0790  0.0774
40511W        W49311  28.230   5.793   5.513 -0.1150 -0.0943 -0.2406
40512W        W49312  27.036   5.835  16.936  0.0185 -0.4854  0.0616
40513W        W49313  31.194   2.814  25.851  0.0866 -0.1556  0.0595
40514W        W49314  15.020   6.630  25.009  0.1251 -0.0101 -0.1685
40515W        W49315  26.356   6.385   4.087 -0.2511  0.0275 -0.0898
40516W        W49316   1.655   7.821   1.441  0.0630  0.2512  0.3115
40517W        W49317   7.017   5.154  18.604 -0.0149 -0.1860  0.1202
40518W        W49318   4.603   6.892   0.311 -0.2164 -0.1618 -0.1534
40519W        W49319  27.186   3.373  15.516  0.2184 -0.2863 -0.1475
40520W        W49320  29.325   5.468   5.749 -0.2895  0.0903  0.3550
40521W        W49321  17.259   5.581  11.747 -0.0477  0.0939  0.1140
40522W        W49322  20.604   1.072  25.668 -0.2944 -0.3436 -0.1859
40523W        W49323  12.116   1.320   7.803  0.0796  0.0369  0.1328
40524W        W49324   0.570   1.618  20.950 -0.2962  0.2095  0.1491
40525W        W49325  26.539   3.964   7.723  0.2092 -0.0351  0.1204
40526W        W49326  19.084   4.729   7.695 -0.2231  0.0516  0.1957
40527W        W49327  26.460   3.000   6.231  0.2775 -0.3458  0.1467
40528W        W49328  20.654   5.658   9.097  0.2368 -0.1625 -0.1397
40529W        W49329  25.656   5.206   4.604 -0.0119 -0.1435  0.0628
40530W        W49330   3.966   0.937   5.578 -0.0652 -0.1569 -0.1567
40531W        W49331  13.371   1.339   0.932 -0.3450 -0.2098  0.1964
40532W        W49332  20.991   3.322  20.754 -0.0501 -0.3174 -0.2217
40533W        W49333  29.436   1.823   5.107 -0.2699 -0.2363 -0.2171
40534W        W49334  28.426   4.357   7.736 -0.0974 -0.3170  0.0199
40535W        W49335  19.424   5.602   6.223  0.1571  0.1241 -0.0946
40536W        W49336  22.243   5.533  18.176  0.1340 -0.0938 -0.0509
40537W        W49337  24.164   0.525  18.140  0.0862 -0.2210 -0.0776
40538W        W49338  30.861   7.318  23.717  0.1584  0.0872  0.1541
40539W        W49339  10.121   6.964  24.630 -0.0469 -0.0488 -0.3038
40540W        W49340  18.220   7.533  22.714 -0.2395 -0.1325 -0.1630
40541W        W49341  15.924   0.106  24.693  0.4309  0.0430  0.1302
40542W        W49342  20.571   2.304  21.284  0.1376  0.0574 -0.2088
40543W        W49343  18.755   1.917   7.675  0.1079  0.1855 -0.4141
40544W        W49344  30.185   1.961   1.144 -0.0885  0.1883 -0.1144
40545W        W49345  13.490   4.544  24.433 -0.0392 -0.2006 -0.1425
40546W        W49346  28.670   0.107   8.963  0.1544 -0.1492  0.1494
40547W        W49347  15.572   4.449   3.133  0.0945 -0.0364  0.3809
40548W        W49348  16.835   1.010  11.194  0.2569 -0.1503 -0.2118
40549W        W49349  10.691   7.519   0.467  0.1870 -0.2195  0.0828
40550W        W49350  11.136   0.880  23.600  0.2247 -0.1030 -0.1591
40551W        W49351  10.624   7.760   8.870  0.1401 -0.3232  0.2647
40552W        W49352  13.129   7.017  20.141  0.0557  0.3288  0.1065
40553W        W49353  10.040   5.251  17.604 -0.0193  0.1312 -0.0927
40554W        W49354  24.621   0.118   2.852  0.4784 -0.1334  0.0060
40555W        W49355  26.812   4.309   9.476 -0.3580 -0.0718 -0.1004
40556W        W49356  11.063   1.832  18.907  0.1009  0.1580 -0.0796
40557W        W49357   2.286   7.741   7.483 -0.0978 -0.4974 -0.2184
40558W        W49358  24.923   2.705  24.956  0.0721  0.1092  0.1839
40559W        W49359  28.035   4.721  16.605  0.0612  0.0641 -0.0815
40560W        W49360   2.682   6.350   9.340  0.1726  0.1123 -0.0025
40561W        W49361  23.006   2.095   7.082 -0.1016  0.2903 -0.2097
40562W        W49362  10.752   4.741   8.337  0.2105  0.0878 -0.2972
40563W        W49363   1.482   5.240   0.005  0.0836  0.1129  0.0398
40564W        W49364  12.773   3.568   2.025  0.1585 -0.0325  0.1552
40565W        W49365   4.348   2.251   8.819  0.3675  0.2429 -0.2358
40566W        W49366   4.207   4.819  22.923 -0.2071  0.0802 -0.0161
40567W        W49367  23.950   4.249   8.369 -0.1414 -0.0897  0.0360
40568W        W49368  12.855   3.183  10.241  0.0053 -0.1663 -0.0273
40569W        W49369   7.388   7.838   7.516  0.0367  0.0784  0.1527
40570W        W49370  26.028   0.751  24.501 -0.0021  0.0766  0.1570
40571W        W49371  24.372   4.686   7.337  0.0384 -0.1538 -0.2218
40572W        W49372  22.935   0.201   3.690 -0.1263  0.0782 -0.0827
40573W        W49373  18.618   0.818   3.221 -0.0470 -0.1209  0.3384
40574W        W49374  22.149   3.101   1.378  0.0896  0.1515  0.0769
40575W        W49375  28.909   5.447  22.051  0.0176 -0.2404 -0.1261
40576W        W49376  17.777   0.749  15.560 -0.1383  0.3079  0.1901
40577W        W49377   5.636   5.636   0.403 -0.1618 -0.2093 -0.3300
40578W        W49378  19.207   7.611   5.094  0.0086 -0.1528  0.4603
40579W        W49379  13.111   3.713   7.985 -0.0285 -0.0707 -0.1016
40580W        W49380  28.732   6.921  10.488 -0.0270  0.0965  0.0250
40581W        W49381   4.595   0.518  18.923  0.2165  0.2297  0.0047
40582W        W49382  25.109   4.903  15.524 -0.0268  0.2977 -0.0351
40583W        W49383  18.035   3.049  22.904  0.0331 -0.0222 -0.1864
40584W        W49384   7.042   3.907  23.180  0.1419 -0.4224 -0.3213
40585W        W49385   4.377   0.624   5.213 -0.0927 -0.0026 -0.2005
40586W        W49386  19.639   7.813   7.966  0.1927 -0.0930 -0.1723
40587W        W49387  19.462   0.083  10.767  0.2362 -0.1686  0.0566
40588W        W49388  18.963   6.423   8.618 -0.2881 -0.2960  0.2123
40589W        W49389  13.453   6.632  20.121  0.2114 -0.1822 -0.2020
40590W        W49390  15.356   6.914   6.205  0.0642  0.0064 -0.0129
40591W        W49391   7.809   5.088   2.833  0.2291 -0.4180 -0.2030
40592W        W49392  29.865   5.543  18.967 -0.2062  0.0553 -0.1026
40593W        W49393  30.070   0.632  20.151  0.3450  0.0043 -0.1195
40594W        W49394  22.366   7.291  10.224  0.0612  0.0265  0.0510
40595W        W49395  24.807   2.983  16.445  0.3446  0.0072  0.0373
40596W        W49396  20.143   4.506   3.543  0.2232  0.1275  0.2943
40597W        W49397  30.325   3.305  22.833 -0.0515 -0.0734 -0.3790
40598W        W49398  11.570   6.535  24.278  0.1717  0.0816 -0.1678
40599W        W49399   5.846   3.478   6.742  0.0879 -0.0831 -0.0444
40600W        W49400   9.549   6.467  14.840 -0.0159 -0.0596 -0.1910
40601W        W49401  15.939   3.386   5.130  0.3210  0.2421  0.1746
40602W        W49402  30.089   5.559  18.472 -0.3417  0.2491 -0.1178
40603W        W49403  14.109   2.553  25.664 -0.1957 -0.2602 -0.3493
40604W        W49404  14.529   6.092   7.691  0.0295 -0.0597 -0.2424
40605W        W49405  29.924   3.489   5.548  0.1820 -0.0188 -0.2747
40606W        W49406   7.832   4.249   3.570 -0.0645  0.0182  0.0467
40607W        W49407   0.770   0.324  21.311 -0.2072  0.1350  0.0652
40608W        W49408  30.540   2.299   8.499  0.0418  0.1387  0.1092
40609W        W49409   9.223   3.626   7.033  0.0408  0.0794 -0.3168
40610W        W49410  28.064   7.133  10.196  0.0047  0.1440  0.3011
40611W        W49411  29.163   1.463  25.849 -0.0928 -0.0621  0.1072
40612W        W49412  13.259   1.663  20.544 -0.2772  0.2308 -0.0247
40613W        W49413  30.229   1.861  23.749  0.2361  0.1387 -0.1648
40614W        W49414  28.927   7.239  23.961 -0.2248  0.1581  0.0335
40615W        W49415   1.751   7.029   0.023 -0.2972  0.0593 -0.0710
40616W        W49416  13.413   3.575   7.171  0.2735  0.0175  0.0672
40617W        W49417  13.307   6.279   3.194 -0.1208  0.0573 -0.0542
40618W        W49418   2.557   2.071   4.883  0.0836 -0.0255 -0.0619
40619W        W49419   6.784   5.386  15.255  0.0086 -0.0588  0.1196
40620W        W49420  27.739   1.136   5.197  0.0024  0.2302 -0.1348
40621W        W49421   4.494   1.970  19.750  0.0703  0.1759 -0.2177
40622W        W49422  10.752   4.002  17.027 -0.0983 -0.1646  0.0111
40623W        W49423  11.655   0.874  23.643 -0.0168  0.2049  0.1275
40624W        W49424  17.594   7.170   3.149 -0.2211  0.0111  0.1273
40625W        W49425  14.640   2.008   4.622 -0.1089 -0.1921 -0.1355
40626W        W49426  26.776   3.886   6.380  0.2567 -0.0019 -0.1011
40627W        W49427  13.619   3.603  20.094 -0.2563 -0.0333  0.1312
40628W        W49428   0.533   4.265  10.006  0.1263  0.0365 -0.1956
40629W        W49429  18.462   5.718   5.078 -0.0338  0.0514 -0.0827
40630W        W49430  25.729   1.681   3.425 -0.0110 -0.3870 -0.2348
40631W        W49431  17.295   6.206  22.684  0.0811  0.1212 -0.2374
40632W        W49432  28.249   0.514  17.654  0.1195 -0.2536  0.1172
40633W        W49433  13.839   5.611  23.191  0.1318  0.1627 -0.0977
40634W        W49434  15.535   4.613   6.820  0.0770 -0.1397 -0.0539
40635W        W49435  29.156   3.208  24.807  0.0373 -0.0083 -0.0755
40636W        W49436   4.903   3.827  21.189 -0.0597 -0.1649 -0.0043
40637W        W49437   2.445   0.829  26.031 -0.0684  0.1183 -0.1729
40638W        W49438   8.156   1.141   9.104 -0.0152  0.0705 -0.0921
40639W        W49439  23.956   3.188  17.924 -0.0256 -0.0875  0.2684
40640W        W49440   8.319   0.254  23.183 -0.0856 -0.1265 -0.0925
40641W        W49441  26.487   6.004  15.419  0.2323  0.1924  0.0081
40642W        W49442  30.408   0.049  16.804 -0.1575 -0.0967  0.1329
40643W        W49443  17.447   2.066   9.671 -0.3123  0.1831 -0.2488
40644W        W49444   5.521   0.995  15.560  0.3585  0.0129  0.1236
40645W        W49445  19.371   2.586   4.049  0.1867  0.2740 -0.0473
40646W        W49446  18.122   3.496  22.383  0.0209  0.0180  0.3045
40647W        W49447  10.783   7.744  16.914 -0.1097  0.3488  0.2763
40648W        W49448  13.057   0.759   7.196 -0.1623 -0.2924  0.1213
40649W        W49449  13.549   0.226   6.350  0.3293 -0.0999 -0.0711
40650W        W49450  27.054   5.066   4.138 -0.2018  0.1086  0.0037
40651W        W49451   0.578   7.568   9.655  0.2011 -0.2021 -0.2105
40652W        W49452  26.392   4.613   8.256 -0.2339  0.0767 -0.0760
40653W        W49453  20.334   2.263  18.434  0.0137 -0.0480  0.0082
40654W        W49454  15.020   1.748  23.039 -0.2413  0.1943 -0.0102
40655W        W49455   2.006   7.651  24.500 -0.1149  0.0328 -0.0644
40656W        W49456   8.058   3.149   4.591 -0.0278  0.0929  0.1434
40657W        W49457   7.296   5.818   5.561 -0.0556  0.1419 -0.0516
40658W        W49458  21.760   2.561   2.419  0.0666  0.0637  0.1859
40659W        W49459   2.097   4.794  24.319 -0.0787  0.2674  0.0854
40660W        W49460  27.563   6.442  16.735 -0.2379  0.3920 -0.2418
40661W        W49461  24.032   6.938   2.696  0.0835  0.2181 -0.3097
40662W        W49462   6.981   2.354  24.104 -0.2179 -0.0384  0.3494
40663W        W49463  17.817   2.769  24.942 -0.0514 -0.1582 -0.0167
40664W        W49464  30.772   5.471   0.286  0.5581  0.2296 -0.1674
40665W        W49465  31.223   2.763   7.033  0.0178 -0.1606 -0.2539
40666W        W49466   1.221   3.980   1.962 -0.3083  0.1712 -0.2030
40667W        W49467  27.411   6.168  25.976 -0.2122 -0.0211  0.0402
40668W        W49468   4.253   4.733  16.154  0.1170 -0.0829  0.3409
40669W        W49469  26.275   4.060  17.795  0.0555 -0.1811 -0.0300
40670W        W49470  13.126   3.094  22.335 -0.1465  0.1112 -0.2074
40671W        W49471   3.305   4.942   3.862 -0.1282 -0.1932 -0.0741
40672W        W49472  16.794   5.810   0.211 -0.0740  0.0575  0.1962
40673W        W49473   6.472   1.888   0.584  0.1918  0.0029 -0.0757
40674W        W49474   6.738   1.601  20.040 -0.0522 -0.0888 -0.1783
40675W        W49475  18.621   0.917   4.626 -0.1402 -0.0981 -0.3409
40676W        W49476  20.107   3.536   5.807  0.0720 -0.1267 -0.1981
40677W        W49477   5.831   5.198   5.468 -0.3177  0.0588  0.3103
40678W        W49478   2.779   6.209   4.389 -0.1294 -0.0243 -0.2276
40679W        W49479  25.749   5.065   5.748  0.3361 -0.2633 -0.0206
40680W        W49480  14.688   3.561   3.257  0.0911  0.1330  0.4213
40681W        W49481   4.092   7.198  17.390 -0.0866  0.0735  0.0295
40682W        W49482  25.118   0.644  19.109  0.4474  0.0017  0.0985
40683W        W49483  30.589   5.303   5.821 -0.1029  0.0237 -0.2754
40684W        W49484  18.688   0.441  17.634  0.2506  0.0703  0.0187
40685W        W49485  11.303   6.821   7.778 -0.3011  0.1460 -0.0315
40686W        W49486   1.647   7.009   7.160 -0.0456  0.2075  0.0450
40687W        W49487  24.575   5.166  22.077 -0.0286 -0.0890 -0.0823
40688W        W49488  14.236   4.417  21.950 -0.2118 -0.0427  0.1433
40689W        W49489   1.216   3.483  16.856 -0.1185  0.0536 -0.1069
40690W        W49490  24.131   7.311   3.818 -0.0134 -0.1904  0.2058
40691W        W49491   9.035   6.379  22.878 -0.0570 -0.0629 -0.0908
40692W        W49492   5.895   6.054  24.819  0.1761 -0.0084 -0.4362
40693W        W49493  14.357   1.179   4.648  0.0154  0.0655 -0.1078
40694W        W49494  13.096   0.688   0.448  0.1319 -0.1534  0.0636
40695W        W49495  18.451   2.184  11.828  0.0479 -0.0349  0.1315
40696W        W49496   7.991   7.658  16.828  0.1064  0.7105 -0.0113
40697W        W49497   7.848   2.727   1.557  0.2330 -0.2150  0.1552
40698W        W49498  26.248   7.138  24.563  0.0888 -0.3470 -0.0703
40699W        W49499   6.721   0.904   9.119  0.2404  0.3816  0.2033
40700W        W49500  30.401   7.757  21.285  0.1211  0.1240  0.0075
40701W        W49501  22.764   6.105   4.526 -0.1879  0.1605  0.0635
40702W        W49502  21.776   2.983   0.420  0.1028  0.0140  0.2836
40703W        W49503   7.492   3.963   2.711 -0.0257  0.0590 -0.1206
40704W        W49504  19.561   0.505  19.914  0.0572 -0.1123 -0.0227
40705W        W49505  27.450   1.336  24.637 -0.4085 -0.2672 -0.1904
40706W        W49506   0.112   1.868  25.457 -0.2129  0.4629 -0.1786
40707W        W49507  24.490   3.581   9.264 -0.3340 -0.2489  0.0200
40708W        W49508  20.578   5.043  20.037 -0.0005  0.0839 -0.0380
40709W        W49509   1.124   4.625  20.084  0.0379 -0.3000 -0.0826
40710W        W49510  16.909   0.545   6.923 -0.1133 -0.2804  0.3223
40711W        W49511  28.838   3.314  17.459 -0.0525 -0.0170 -0.1396
40712W        W49512  28.238   1.632   1.426  0.1925 -0.0344  0.0626
40713W        W49513   5.038   6.058   9.050  0.0054 -0.4891  0.1195
40714W        W49514  25.259   4.445  22.652 -0.1071  0.2232 -0.2129
40715W        W49515  22.881   0.893   7.035 -0.0814  0.0731 -0.2444
40716W        W49516  19.591   5.655   7.298 -0.1389  0.0983 -0.2671
40717W        W49517   4.813   0.915  20.155 -0.2333  0.2663 -0.2621
40718W        W49518   2.862   4.582   4.940 -0.4054  0.1221  0.0901
40719W        W49519  12.382   4.818   3.301  0.1033  0.0491 -0.3567
40720W        W49520  20.070   2.008   6.887 -0.2620 -0.1508 -0.1615
40721W        W49521  24.402   1.262  17.559  0.0915  0.2410  0.4013
40722W        W49522  15.549   0.298   6.990  0.0054 -0.0346 -0.2011
40723W        W49523  30.825   5.076   9.283 -0.0759 -0.2953 -0.1234
40724W        W49524  10.597   3.856  23.769 -0.2025  0.2325  0.0935
40725W        W49525   4.526   1.399   5.963  0.1438  0.0473 -0.2017
40726W        W49526   1.218   0.600   7.548 -0.1554  0.0334 -0.2422
40727W        W49527   1.371   6.127   1.499  0.1977  0.1377  0.1406
40728W        W49528  15.865   7.049   0.066 -0.2268  0.2444 -0.1676
40729W        W49529  15.914   3.427   6.708  0.2128  0.0479  0.0498
40730W        W49530   4.840   0.084  23.111  0.2519  0.1490  0.1325
40731W        W49531  25.211   2.935   3.563 -0.1055  0.0351  0.2730
40732W        W49532   4.129   6.964   3.969  0.1307  0.0417 -0.0018
40733W        W49533  18.851   2.932  21.221  0.0194  0.0368  0.2187
40734W        W49534  18.880   7.280   4.529  0.0369 -0.0491 -0.0523
40735W        W49535  28.894   6.953   9.412  0.2749 -0.1855 -0.0550
40736W        W49536  29.540   1.028   5.168 -0.0605  0.0633  0.0592
40737W        W49537  22.625   1.249   1.312 -0.0540  0.2848 -0.0562
40738W        W49538   7.731   4.995   9.922 -0.1649  0.0372  0.0115
40739W        W49539   7.368   4.075   3.183 -0.0649 -0.1153  0.3001
40740W        W49540  22.300   6.966   0.668  0.0610 -0.1012 -0.2666
40741W        W49541  30.057   5.450  17.313 -0.2848  0.1159 -0.2829
40742W        W49542  23.407   0.115   8.682 -0.3465  0.0582  0.0452
40743W        W49543  29.597   4.746  21.274  0.0393  0.1781 -0.2045
40744W        W49544  12.277   3.788  25.234  0.2091  0.0402  0.0409
40745W        W49545   0.797   0.200   1.977 -0.0361  0.3299  0.0988
40746W        W49546   9.580   2.686  25.455  0.2542 -0.2610 -0.0646
40747W        W49547  24.559   0.504  23.326  0.1170  0.2416  0.0196
40748W        W49548  16.425   7.400  23.960 -0.3432  0.1752 -0.1839
40749W        W49549  16.596   6.031  22.856  0.0847 -0.1147  0.1985
40750W        W49550  27.254   4.266  26.024  0.0340  0.2764 -0.0886
40751W        W49551   5.643   6.432  24.502  0.3561  0.3051 -0.6048
40752W        W49552  27.303   1.445  20.695  0.1592 -0.1796 -0.0577
40753W        W49553   2.156   2.251  24.689 -0.2801 -0.1584  0.2262
40754W        W49554  26.335   2.305  10.639  0.1859 -0.1301  0.2182
40755W        W49555   6.035   3.715   2.662 -0.2319  0.0698 -0.3078
40756W        W49556   5.585   6.554   0.275  0.1886  0.1982 -0.3072
40757W        W49557  27.209   2.941  20.862  0.0119  0.0644  0.1320
40758W        W49558  27.926   0.883  17.911  0.1306 -0.2312  0.1083
40759W        W49559  27.449   5.025   4.556 -0.2985  0.0835 -0.0058
40760W        W49560  23.871   1.305  20.984  0.2037  0.0128  0.0838
40761W        W49561  12.615   0.880   0.674 -0.1054  0.0192  0.1620
40762W        W49562  15.446   6.411  16.109 -0.1799  0.4505 -0.0916
40763W        W49563  16.640   4.078  20.708  0.1189 -0.3925 -0.2184
40764W        W49564  26.474   6.381   5.250  0.3690 -0.1228  0.0250
40765W        W49565  28.445   4.829  23.942 -0.1172  0.1693 -0.2002
40766W        W49566  31.281   5.820  25.465  0.1894  0.0399 -0.2176
40767W        W49567  21.232   0.353   9.897 -0.1565  0.1746  0.1291
40768W        W49568  18.108   5.948  10.318 -0.2194 -0.1710  0.1592
40769W        W49569   2.826   3.242   9.206 -0.1706 -0.0346  0.0823
40770W        W49570  23.879   6.772   9.924 -0.0148 -0.0498 -0.1032
40771W        W49571  25.503   5.565  20.156  0.3212  0.1392  0.0177
40772W        W49572  19.311   4.087   6.324 -0.0660 -0.0279 -0.1265
40773W        W49573  23.714   5.263  20.878  0.1029  0.2702 -0.2102
40774W        W49574  20.299   0.755   2.374 -0.1443  0.3059 -0.2004
40775W        W49575   5.178   3.526  17.953  0.0603 -0.2527 -0.3030
40776W        W49576   6.600   7.152   6.589 -0.3963  0.0843  0.1625
40777W        W49577   8.989   3.765  17.287 -0.0655 -0.0317  0.1096
40778W        W49578  30.361   2.660   6.246  0.0155  0.1310 -0.1685
40779W        W49579  31.212   1.817  18.562 -0.1301  0.0392  0.0695
40780W        W49580   6.496   2.596  25.024  0.0148  0.1583 -0.1703
40781W        W49581  19.680   1.047  15.327  0.1829 -0.0095  0.1132
40782W        W49582  21.047   3.859   1.272 -0.1232  0.0974 -0.1144
40783W        W49583   0.939   7.843  16.495  0.2854 -0.0222  0.0112
40784W        W49584   4.433   2.090   1.958  0.0546 -0.0192  0.1936
40785W        W49585   2.421   1.235  21.022 -0.0216 -0.1241  0.0611
40786W        W49586  17.907   6.829   0.718 -0.2248 -0.2108 -0.1206
40787W        W49587  29.057   6.597  21.283 -0.1463 -0.1615  0.2012
40788W        W49588  14.653   3.054   6.890 -0.1619 -0.1658 -0.0239
40789W        W49589   8.601   0.925  16.700  0.2690  0.1407 -0.1503
40790W        W49590  21.889   5.181  15.303 -0.0712  0.2324  0.2911
40791W        W49591   1.597   4.660  25.388 -0.1540  0.0831  0.1346
40792W        W49592   7.244   7.818  16.373 -0.0133  0.0880  0.0015
40793W        W49593   4.937   2.032   9.253 -0.0397 -0.0425 -0.2228
40794W        W49594  26.579   2.092   3.811  0.1725 -0.2398 -0.1254
40795W        W49595  21.142   5.982  24.907 -0.0725  0.2711 -0.0236
40796W        W49596  18.238   0.019  20.969 -0.3421  0.0454 -0.2698
40797W        W49597   4.396   0.280   8.861  0.2747  0.0088  0.0629
40798W        W49598  29.579   1.751  24.985 -0.0063 -0.1724 -0.0088
40799W        W49599  31.122   0.191   2.735  0.0388 -0.2785  0.0852
40800W        W49600  19.922   5.440   1.702  0.2050 -0.1629 -0.0463
40801W        W49601   9.628   4.438  16.085 -0.0714 -0.0368  0.0218
40802W        W49602  22.388   5.668   0.225 -0.1979  0.0918 -0.1950
40803W        W49603  30.069   4.192  16.314 -0.0964 -0.2815  0.0161
40804W        W49604   2.716   2.850   4.266  0.1428  0.0823  0.0252
40805W        W49605  15.998   5.702   1.326 -0.4536  0.0037  0.1791
40806W        W49606  27.582   0.073   3.414  0.3705  0.0620  0.3229
40807W        W49607  21.986   1.212   3.395  0.0502  0.2183 -0.1744
40808W        W49608  16.687   0.949  10.696 -0.0490  0.2901 -0.0209
40809W        W49609  26.840   5.568  21.028  0.1600  0.0635 -0.0408
40810W        W49610  19.632   4.270  19.838  0.3054 -0.1357  0.1262
40811W        W49611  20.843   6.767   0.967  0.1281  0.1965  0.0935
40812W        W49612  29.860   1.702  23.413 -0.1317  0.0976  0.0550
40813W        W49613  20.157   1.244   3.987  0.1001  0.1300 -0.2545
40814W        W49614   3.655   0.711  25.739 -0.2161 -0.1752 -0.2383
40815W        W49615  19.210   3.220  24.641 -0.0378 -0.1406 -0.0734
40816W        W49616   2.266   5.815   5.485 -0.1454 -0.2333  0.0659
40817W        W49617   3.010   6.582  25.838 -0.1534  0.1326 -0.5022
40818W        W49618   3.110   4.899  19.720 -0.1890 -0.1240 -0.2355
40819W        W49619   5.936   7.172  19.307  0.1589 -0.2267  0.1592
40820W        W49620  14.334   0.849  18.279  0.0484 -0.1826 -0.2403
40821W        W49621   5.377   2.439  22.929  0.0217  0.3227 -0.1452
40822W        W49622  17.185   0.946  10.467  0.1548  0.0576  0.1448
40823W        W49623  28.879   2.888   2.366  0.1101  0.0862  0.2421
40824W        W49624   7.164   6.722  17.628 -0.3949 -0.0869  0.0276
40825W        W49625   8.710   1.306   9.115 -0.3308  0.0917 -0.0231
40826W        W49626  19.471   1.307   2.590  0.1281 -0.2057  0.0462
40827W        W49627  27.043   6.033   6.533 -0.0148  0.2960  0.3219
40828W        W49628   1.472   7.330   3.357  0.0820 -0.5604  0.1962
40829W        W49629  14.206   1.282   5.865  0.0597  0.2351 -0.0169
40830W        W49630  21.625   2.547  19.128 -0.0448  0.1480  0.0329
40831W        W49631  29.349   4.859   1.220 -0.0503  0.0044  0.1352
40832W        W49632   2.847   4.414   2.098 -0.3415  0.0672  0.0497
40833W        W49633   2.866   1.546   6.930 -0.3081 -0.0440  0.2084
40834W        W49634  16.792   3.213  21.226  0.2486  0.0134  0.0427
40835W        W49635  26.150   0.867  20.351 -0.4411  0.1095 -0.0918
40836W        W49636  10.510   2.951   7.865  0.0128  0.2406  0.2254
40837W        W49637  17.217   6.311  19.515  0.2500 -0.2459 -0.0917
40838W        W49638  10.173   6.912   0.958 -0.0746 -0.0287  0.0835
40839W        W49639  14.470   7.042   1.211  0.0543 -0.2701  0.4844
40840W        W49640   0.484   3.989   2.058 -0.1836  0.2590 -0.1771
40841W        W49641   8.602   2.880  21.522  0.0593  0.1577  0.2033
40842W        W49642   3.229   2.259   5.542 -0.1472 -0.1112 -0.0043
40843W        W49643  27.290   5.668  10.296  0.3268  0.1522 -0.0817
40844W        W49644  13.134   0.109   6.585  0.2235  0.2237  0.0979
40845W        W49645   9.539   0.841  10.184 -0.0877 -0.1563 -0.0599
40846W        W49646  29.614   5.889  23.509  0.3077 -0.0003  0.1680
40847W        W49647  16.052   4.924   9.995  0.0915 -0.2615  0.0570
40848W        W49648  10.893   6.929  16.279 -0.0027 -0.0828  0.0765
40849W        W49649   5.968   6.424  22.366 -0.1442  0.2376  0.2674
40850W        W49650  11.421   4.367   8.130 -0.1825  0.0864 -0.0683
40851W        W49651  10.301   0.359  22.514 -0.1757  0.0014 -0.0818
40852W        W49652   8.677   1.673   8.709 -0.0761 -0.0572  0.2883
40853W        W49653  23.363   3.271   5.216 -0.0296  0.0768  0.2189
40854W        W49654  28.405   6.529   1.410 -0.1487 -0.0006 -0.1042
40855W        W49655  22.087   1.284  25.255  0.0023 -0.1179 -0.1144
40856W        W49656   4.555   3.573  19.390 -0.2733 -0.2158  0.0330
40857W        W49657   8.936   2.816  17.145  0.0171 -0.0492  0.2163
40858W        W49658  27.957   5.452   8.147  0.0156 -0.1843 -0.0031
40859W        W49659  29.608   7.281   3.099  0.1557  0.0652  0.0450
40860W        W49660  16.077   5.384  19.417  0.1510  0.0286 -0.1921
40861W        W49661  16.109   7.851  20.245  0.1782 -0.1521  0.1378
40862W        W49662  17.561   3.337  20.984 -0.0190  0.3030  0.2763
40863W        W49663  22.665   2.354  19.412  0.1894 -0.0057  0.0640
40864W        W49664   1.804   4.842  14.254 -0.1821 -0.0657  0.0783
40865W        W49665  19.295   6.324  16.161  0.0441 -0.1592  0.0635
40866W        W49666   4.965   7.268   8.101 -0.0675 -0.0687 -0.1413
40867W        W49667   1.714   2.661  21.777 -0.0525 -0.0671  0.2528
40868W        W49668  29.722   0.103  10.315 -0.0140  0.2339  0.2520
40869W        W49669  19.346   1.146  24.510  0.1002  0.0041  0.0858
40870W        W49670  13.310   0.299   4.933 -0.0674  0.1098  0.1433
40871W        W49671  22.057   3.623   4.826 -0.2068  0.0046 -0.1472
40872W        W49672   8.762   1.848  15.712 -0.0258  0.2875  0.2321
40873W        W49673  14.039   2.874   8.728 -0.1461  0.0919 -0.0916
40874W        W49674  15.312   7.331  18.625  0.0546  0.1134  0.0049
40875W        W49675  20.787   0.160   2.905 -0.1329  0.1443 -0.3783
40876W        W49676  24.460   7.264  18.807 -0.3656  0.1646  0.0153
40877W        W49677  27.620   2.025  23.916  0.1669  0.1099 -0.3776
40878W        W49678   6.518   5.032   4.039  0.0243  0.0349 -0.2711
40879W        W49679  18.694   3.100   2.786 -0.1036  0.1166  0.0188
40880W        W49680  26.245   5.972   0.836  0.0957  0.0568  0.2297
40881W        W49681  30.558   5.931  23.320 -0.0344  0.0498  0.0075
40882W        W49682  11.128   6.797  15.843  0.1456  0.3455 -0.2441
40883W        W49683  28.313   0.108  25.725  0.1038 -0.3168 -0.0270
40884W        W49684   7.733   0.262  15.576  0.2157 -0.2239 -0.0123
40885W        W49685  13.695   6.838  24.470 -0.2370 -0.5111 -0.2514
40886W        W49686  29.695   5.307  22.428  0.2640  0.1518  0.1836
40887W        W49687  26.914   5.912  24.533  0.0686 -0.1418 -0.2269
40888W        W49688  14.395   7.679  25.391 -0.0326 -0.1844  0.0544
40889W        W49689  23.452   4.088   7.694  0.0876  0.1562 -0.0273
40890W        W49690  27.917   2.691  15.493  0.0754 -0.0227  0.1094
40891W        W49691   0.107   2.764   1.399  0.0074 -0.0322 -0.2744
40892W        W49692  26.558   3.883   1.706  0.0531  0.6566 -0.0763
40893W        W49693  19.273   4.185  19.402 -0.0989 -0.1268 -0.5326
40894W        W49694  29.099   3.489   7.095  0.0570  0.0879 -0.0203
40895W        W49695  30.941   0.516  21.761 -0.1815 -0.1436  0.2296
40896W        W49696  13.676   0.970  20.888 -0.0759 -0.0473  0.0660
40897W        W49697  28.733   4.951  14.830  0.0125  0.1295  0.1974
40898W        W49698  10.425   4.139   1.883 -0.1410  0.0159 -0.1150
40899W        W49699  12.059   1.210   4.720 -0.1801  0.1144 -0.1045
40900W        W49700  22.573   4.065  23.341  0.3449  0.0864  0.1046
40901W        W49701  30.086   4.320   9.240 -0.0332  0.2297  0.1128
40902W        W49702  30.751   2.000  22.140 -0.1299 -0.0295 -0.2311
40903W        W49703   0.587   1.235   6.595 -0.1902  0.0948 -0.1359
40904W        W49704  26.522   7.120  21.845  0.1831  0.1369  0.2825
40905W        W49705  14.876   3.904  15.987 -0.0233  0.3007 -0.2473
40906W        W49706  27.906   5.490  17.046  0.0184  0.3604 -0.0304
40907W        W49707  25.883   3.819  15.814  0.0795  0.1779 -0.1349
40908W        W49708   2.613   2.713   1.114  0.3310 -0.3303 -0.0774
40909W        W49709   6.838   3.932  19.264 -0.1649 -0.2557 -0.0496
40910W        W49710  11.849   1.177   3.563  0.1039  0.0134  0.2114
40911W        W49711  18.350   3.779   3.664  0.1619  0.1977 -0.3706
40912W        W49712  12.658   0.783  17.180 -0.0182 -0.0256  0.1969
40913W        W49713  22.444   1.480  21.767  0.0138 -0.1522  0.0384
40914W        W49714  30.215   2.507  20.856  0.0670  0.0622 -0.1061
40915W        W49715   3.209   7.020  20.763  0.3848  0.0411 -0.0450
40916W        W49716   2.254   1.311   0.193  0.1513 -0.1725  0.0504
40917W        W49717  22.277   2.101  15.608 -0.1307 -0.1228  0.0982
40918W        W49718  22.360   3.485   7.008 -0.4345  0.0010 -0.1734
40919W        W49719   7.687   4.190  17.917  0.2188 -0.1787  0.2315
40920W        W49720  29.227   2.190  19.454 -0.1018  0.0757 -0.2234
40921W        W49721  22.322   5.858   4.637 -0.1236 -0.1846  0.2261
40922W        W49722  16.013   3.000  21.943 -0.0878 -0.0810 -0.0766
40923W        W49723  17.399   3.349   5.930 -0.4415  0.2570  0.0120
40924W        W49724  20.687   3.940  10.362  0.0010  0.1959  0.0440
40925W        W49725  23.201   4.111  22.750  0.0996 -0.0654 -0.0905
40926W        W49726   1.918   5.786  21.901  0.0080  0.1541 -0.0123
40927W        W49727  27.762   0.418   8.695  0.0086  0.2418  0.0368
40928W        W49728  15.065   2.331  25.199  0.2115 -0.0426  0.1560
40929W        W49729  21.273   2.909  20.560 -0.0689  0.1102 -0.1594
40930W        W49730  16.711   4.429  10.325  0.1644  0.1049  0.2324
40931W        W49731  22.148   2.970  20.758  0.1167 -0.0184 -0.1116
40932W        W49732   9.047   4.147   7.079 -0.0482  0.0730 -0.1178
40933W        W49733   9.952   6.403  22.213 -0.0678 -0.0682 -0.1391
40934W        W49734  30.884   0.109  16.501  0.2137  0.1043  0.0394
40935W        W49735   8.360   1.378   9.483 -0.1413  0.0089 -0.2872
40936W        W49736   0.976   3.511   0.386 -0.2737 -0.1268 -0.2929
40937W        W49737  14.258   3.007   9.818  0.2086  0.0805  0.1859
40938W        W49738  26.207   5.395   5.050  0.2537 -0.1614 -0.1599
40939W        W49739   3.981   6.517  16.430 -0.1969  0.0040  0.1689
40940W        W49740   5.446   7.444   8.772 -0.1472  0.2780  0.2209
40941W        W49741   0.065   3.745  22.513 -0.1935  0.0819  0.0812
40942W        W49742   8.565   4.822  16.367 -0.1888 -0.0119 -0.1397
40943W        W49743   1.319   0.266  18.722  0.5057  0.1192 -0.0317
40944W        W49744  26.138   4.624  16.515 -0.1431 -0.1102  0.2280
40945W        W49745   0.108   1.601  21.085  0.5317 -0.3141  0.0025
40946W        W49746  24.079   6.188   7.114 -0.3503 -0.1176  0.0564
40947W        W49747   4.506   5.124  21.795  0.1517  0.2376  0.2365
40948W        W49748  24.401   4.386  17.647 -0.0447  0.0030  0.1038
40949W        W49749  15.031   6.835  21.127  0.2652 -0.0346 -0.1085
40950W        W49750  26.938   1.814   6.633 -0.0922 -0.1185  0.0095
40951W        W49751   4.202   6.422   4.392 -0.2337  0.0139 -0.0432
40952W        W49752   4.246   7.745   3.737  0.0712  0.3472 -0.5290
40953W        W49753  27.461   1.170  22.510 -0.3146  0.2522  0.2448
40954W        W49754  11.996   5.613   6.038 -0.0480  0.1656 -0.0967
40955W        W49755  24.664   6.638   5.151 -0.2601 -0.0942  0.1175
40956W        W49756  27.592   5.270  18.890  0.0399  0.1573 -0.1231
40957W        W49757  23.638   5.747  23.395 -0.0310 -0.0688 -0.1500
40958W        W49758  12.560   7.672  16.702 -0.1337 -0.1599  0.2429
40959W        W49759   8.685   3.649  21.828  0.2494  0.2206 -0.1252
40960W        W49760  28.623   4.324   1.071 -0.0106  0.4257 -0.0317
40961W        W49761  19.887   4.960   3.507  0.0778 -0.2243 -0.0489
40962W        W49762  28.359   4.604  17.473 -0.1205  0.0031  0.0184
40963W        W49763  26.567   2.000  16.131  0.1603  0.2591 -0.0644
40964W        W49764   5.246   7.318  26.039  0.2189  0.3998 -0.2026
40965W        W49765  17.332   4.043   0.815  0.0729  0.0804  0.1252
40966W        W49766  16.321   4.295  11.611  0.0636 -0.0118 -0.0873
40967W        W49767   6.130   3.180  22.326  0.0500 -0.1421 -0.1885
40968W        W49768  25.436   2.524  23.435 -0.0808 -0.0240 -0.1063
40969W        W49769  31.301   2.597   3.767  0.1970 -0.1131 -0.1200
40970W        W49770  18.593   6.845  20.035 -0.1336 -0.1998  0.0536
40971W        W49771  20.904   7.167  21.389 -0.1157  0.1356  0.4850
40972W        W49772  21.277   4.428   7.943 -0.0854  0.0439  0.1416
40973W        W49773  25.891   5.249   7.031  0.1962 -0.0387 -0.3302
40974W        W49774  25.532   2.895   8.931  0.0556  0.1642 -0.0962
40975W        W49775  16.345   3.181   1.452  0.2464 -0.0527 -0.1539
40976W        W49776  15.658   6.250   5.774 -0.3750  0.1614 -0.2800
40977W        W49777  15.259   3.689  19.706 -0.1541 -0.1616  0.0469
40978W        W49778   9.895   6.877  22.956  0.0013 -0.1609 -0.2646
40979W        W49779  31.151   1.916   8.454  0.4143  0.0023 -0.0790
40980W        W49780  21.425   7.679   8.929 -0.3094 -0.2390 -0.0951
40981W        W49781   6.298   6.670  25.919 -0.1416 -0.1864 -0.1699
40982W        W49782   3.178   5.054  25.852  0.0495 -0.0053 -0.1524
40983W        W49783  27.150   0.974   7.826  0.1226 -0.0089  0.2460
40984W        W49784   8.070   6.960  17.710  0.3362 -0.5452  0.0343
40985W        W49785  24.258   2.969   7.161  0.0748 -0.1180 -0.0569
40986W        W49786  23.693   4.395  22.060 -0.1530  0.1799 -0.0310
40987W        W49787  22.148   3.615  23.439 -0.1185  0.1507 -0.1273
40988W        W49788   2.491   3.515  24.543  0.0921 -0.0029  0.1977
40989W        W49789  13.293   6.822  10.764 -0.2561  0.0271  0.0556
40990W        W49790  30.030   1.545   3.049 -0.1937 -0.1033 -0.0121
40991W        W49791  12.843   0.960   5.412 -0.2077 -0.0969 -0.0654
40992W        W49792  16.333   2.760  16.711 -0.2043 -0.0175  0.0214
40993W        W49793   7.991   6.230  21.347  0.2467 -0.0647  0.0558
40994W        W49794  27.463   5.118  15.580 -0.1301  0.2288  0.1250
40995W        W49795   1.103   2.506  24.168 -0.0009  0.1097 -0.0925
40996W        W49796  21.122   6.852  20.598 -0.0601 -0.1817  0.0975
40997W        W49797   1.848   6.321  21.823 -0.0498  0.1633 -0.1857
40998W        W49798  24.743   4.837   5.640 -0.1169  0.1419 -0.2417
40999W        W49799   0.325   1.778  18.165 -0.1762  0.1932 -0.0469
41000W        W49800  28.786   5.427  10.486 -0.1154  0.0272 -0.1942
41001W        W49801  10.639   0.316  24.671 -0.0119 -0.0626 -0.0945
41002W        W49802  18.635   3.066   5.128  0.0575  0.4228 -0.1262
41003W        W49803   3.495   6.276   1.731 -0.1833 -0.0374  0.1248
41004W        W49804  29.161   7.317  25.793 -0.1488  0.2138 -0.0046
41005W        W49805  22.739   4.836  19.468 -0.2872  0.1960 -0.2182
41006W        W49806  12.521   6.616  24.099  0.1245 -0.1395 -0.0290
41007W        W49807  22.566   3.052  20.450 -0.0894 -0.0778  0.0677
41008W        W49808  15.330   5.620  18.978 -0.1145  0.3559  0.1610
41009W        W49809  24.954   0.972   3.225  0.1816  0.0856 -0.1809
41010W        W49810   0.425   7.028  22.199  0.0242  0.0405  0.0796
41011W        W49811  30.704   7.404  18.468 -0.0298  0.0202  0.1285
41012W        W49812  20.965   0.996   0.100 -0.1641 -0.0937  0.2280
41013W        W49813   2.296   0.861   9.672 -0.0329 -0.1274 -0.0482
41014W        W49814  16.360   1.358  10.949  0.0361  0.2412  0.0646
41015W        W49815   3.168   4.855  10.085 -0.1284 -0.0862 -0.3159
41016W        W49816  16.002   2.673   0.561 -0.1786 -0.0674 -0.0735
41017W        W49817  28.959   5.057  22.831 -0.2034 -0.0878 -0.0485
41018W        W49818  24.825   1.097   8.435  0.1951  0.0707  0.0325
41019W        W49819  27.741   5.241   3.471 -0.1587  0.1527 -0.0400
41020W        W49820  27.368   6.493   9.756  0.0115 -0.1523 -0.2395
41021W        W49821  20.479   2.946   1.195 -0.0448  0.1073  0.1217
41022W        W49822  27.902   2.139  17.661  0.1509  0.3451 -0.1508
41023W        W49823  24.994   6.682   0.068 -0.0994 -0.1598  0.0503
41024W        W49824   9.783   3.951  19.194 -0.0096 -0.0461 -0.0877
41025W        W49825  26.504   3.919  21.734  0.2840 -0.0090 -0.1990
41026W        W49826   9.247   7.136   4.618 -0.2620 -0.1178  0.0747
41027W        W49827  18.327   6.141   0.981  0.0513  0.2347  0.1358
41028W        W49828  30.495   3.881   6.698 -0.1164  0.0782 -0.1941
41029W        W49829  26.503   5.575   5.493 -0.2483  0.1122 -0.0937
41030W        W49830   5.029   2.410  24.349  0.0213  0.0561  0.3770
41031W        W49831   7.396   6.216   7.154  0.2367  0.3070 -0.3035
41032W        W49832  14.484   2.462   0.058 -0.2655  0.0794 -0.1200
41033W        W49833  19.054   0.783   9.025  0.2824  0.2316 -0.1053
41034W        W49834   0.617   6.207  25.423  0.0848  0.0585 -0.1998
41035W        W49835   5.997   1.513   4.066 -0.0516  0.0237 -0.1298
41036W        W49836  13.395   7.159  20.576  0.0628  0.0165  0.1293
41037W        W49837   3.145   7.774  25.979 -0.1779  0.0273  0.0077
41038W        W49838  29.414   4.882  20.383  0.0215 -0.2691  0.0649
41039W        W49839   2.694   4.311  16.768  0.0867 -0.1123  0.2495
41040W        W49840  18.230   7.439  17.872  0.4534  0.1858 -0.0766
41041W        W49841   0.312   3.518  23.404  0.1972  0.2750  0.1829
41042W        W49842   7.013   6.840  24.645  0.0793 -0.0722  0.1441
41043W        W49843   1.912   6.469   6.095  0.3719 -0.0547 -0.0257
41044W        W49844   3.949   0.888   6.931  0.1353 -0.0648  0.0698
41045W        W49845   5.294   2.540   5.974  0.1209  0.0683  0.0084
41046W        W49846   2.866   4.289  20.159 -0.3578  0.1629  0.0918
41047W        W49847  11.175   4.209  20.323 -0.0444 -0.1114 -0.0552
41048W        W49848   8.708   1.204  20.460  0.2481  0.0092  0.1066
41049W        W49849  22.455   0.462   1.928  0.0096  0.1320  0.2069
41050W        W49850  30.918   1.361  18.393 -0.0789 -0.0264 -0.0540
41051W        W49851   7.078   1.477  19.391  0.0788 -0.0615 -0.0190
41052W        W49852  29.908   1.311   4.470  0.2922  0.0625 -0.0088
41053W        W49853  18.084   5.952   1.752 -0.1206 -0.1390  0.0282
41054W        W49854  28.021   5.350  20.325 -0.0150 -0.0791  0.2573
41055W        W49855  17.828   2.371   1.226  0.0763 -0.0386 -0.1052
41056W        W49856  30.328   5.680  17.818 -0.2748  0.1736 -0.2976
41057W        W49857   9.276   4.050   4.823  0.1692  0.0501  0.3375
41058W        W49858  16.054   2.644   2.112  0.2481 -0.2324  0.0033
41059W        W49859   8.135   2.725  17.213 -0.0751  0.5762 -0.1072
41060W        W49860   9.089   4.147   3.597 -0.3132 -0.0059 -0.1587
41061W        W49861  17.535   5.150   1.781 -0.0899  0.0882 -0.0545
41062W        W49862  24.517   2.528   6.504  0.1567  0.1654  0.0606
41063W        W49863  19.645   0.792  18.092 -0.0342 -0.4048 -0.1019
41064W        W49864  15.094   7.172  17.534 -0.2793  0.2956  0.0108
41065W        W49865  20.251   2.092  16.625  0.0718 -0.0095  0.2159
41066W        W49866  18.627   6.578  24.293  0.2935 -0.0973  0.0663
41067W        W49867   3.171   3.606  16.106 -0.2805 -0.0145  0.2311
41068W        W49868   8.280   2.654  24.172 -0.1304 -0.3604  0.1300
41069W        W49869   7.659   2.588  22.268  0.0940 -0.1465 -0.0552
41070W        W49870   8.779   4.978   4.100  0.1127  0.2128 -0.1711
41071W        W49871  24.719   1.410   5.532  0.1809  0.2076 -0.1379
41072W        W49872  23.377   5.255  23.519 -0.0041 -0.3028 -0.0794
41073W        W49873  19.360   0.464  25.751 -0.1308  0.0729 -0.1417
41074W        W49874  16.022   3.821   6.342  0.2376  0.0459 -0.1172
41075W        W49875   7.741   3.098   1.229  0.1623 -0.0767  0.0919
41076W        W49876  14.977   4.072  20.424 -0.0301  0.0639  0.0040
41077W        W49877   4.963   7.384   6.178  0.4647  0.1251  0.1263
41078W        W49878  23.182   6.690  24.416 -0.1444 -0.1943  0.4152
41079W        W49879  16.837   0.838  18.969  0.1054  0.0117 -0.0240
41080W        W49880  11.862   3.540   9.630 -0.0923 -0.0883 -0.2458
41081W        W49881   3.002   4.608  22.415 -0.0786 -0.2449 -0.1844
41082W        W49882   9.359   5.321   8.248 -0.2523 -0.2461 -0.2342
41083W        W49883  13.081   6.271   9.413  0.1362  0.0634 -0.2515
41084W        W49884   0.598   7.556   0.191 -0.1383  0.1683 -0.3673
41085W        W49885  18.922   5.138   3.979 -0.2352  0.2935  0.1279
41086W        W49886  22.487   6.911  21.031 -0.0386  0.0210  0.0548
41087W        W49887  16.420   7.788   7.563  0.0951 -0.1603  0.0852
41088W        W49888  14.751   5.585  18.317  0.1039  0.1752 -0.1007
41089W        W49889  19.271   6.883   8.425 -0.0973  0.1373  0.0059
41090W        W49890   4.731   6.333   4.079 -0.1364  0.0169 -0.0424
41091W        W49891  17.022   4.229   9.457 -0.1721 -0.1482  0.1194
41092W        W49892  18.476   3.216  11.487  0.2754 -0.0745  0.5371
41093W        W49893   0.821   6.044   1.602  0.0205 -0.0625 -0.2792
41094W        W49894  12.790   3.800  23.431  0.0020 -0.3054 -0.2447
41095W        W49895  19.377   1.007  25.043 -0.0179 -0.0813  0.1208
41096W        W49896  20.813   7.387   9.950  0.0222 -0.0306  0.1355
41097W        W49897   6.398   2.124  21.923 -0.1550  0.2538 -0.1960
41098W        W49898  16.586   1.406  21.390  0.0547 -0.1092  0.1009
41099W        W49899  11.090   2.278  16.374 -0.0858 -0.1694  0.2060
41100W        W49900  22.452   2.703   6.790 -0.1233 -0.2402  0.0849
41101W        W49901  29.619   5.744   9.512 -0.0135 -0.0780 -0.0852
41102W        W49902   2.613   7.675  20.842 -0.2441  0.1878  0.1558
41103W        W49903  26.728   2.749  20.871  0.1217  0.0683 -0.0586
41104W        W49904   2.002   3.935   0.538 -0.1271 -0.1183 -0.1221
41105W        W49905   1.582   6.869  14.614  0.0902  0.0244  0.0026
41106W        W49906  16.312   0.774   7.966 -0.1385 -0.0384  0.0366
41107W        W49907  23.048   5.976   9.616  0.0712 -0.1136 -0.2371
41108W        W49908  10.359   7.593   8.149  0.4037  0.1006 -0.0872
41109W        W49909   8.156   7.038   3.150  0.3131 -0.2184 -0.1895
41110W        W49910  22.401   0.764   1.533  0.2303  0.0637  0.0253
41111W        W49911  27.899   7.592   8.508 -0.0546 -0.6096 -0.1466
41112W        W49912  16.267   6.596   4.079  0.0539  0.2079  0.1054
41113W        W49913  14.037   0.856  25.797 -0.1110  0.1792  0.1356
41114W        W49914  18.009   4.045  21.081  0.1900  0.0851 -0.0315
41115W        W49915  30.372   6.058   5.038  0.0266 -0.3489 -0.0540
41116W        W49916   3.979   1.804  24.322 -0.1791 -0.2764 -0.3476
41117W        W49917  28.627   7.247   5.924 -0.0818  0.0483  0.3472
41118W        W49918  28.127   6.274   5.658 -0.2649 -0.2067  0.0419
41119W        W49919   4.355   6.570  19.960  0.0626  0.1241 -0.0831
41120W        W49920  29.457   0.997  15.300  0.4210  0.2577  0.0614
41121W        W49921  27.054   7.051   3.198 -0.0201  0.3611  0.1880
41122W        W49922  25.946   1.451  25.644  0.0086 -0.0676 -0.0933
41123W        W49923  13.617   5.943   6.871  0.0100 -0.0653 -0.1113
41124W        W49924  22.875   2.940  10.209  0.0320  0.2424 -0.5985
41125W        W49925  16.653   3.474  25.127 -0.1792 -0.0745  0.0620
41126W        W49926   9.136   3.824  24.861  0.1289  0.2042 -0.0606
41127W        W49927  29.828   1.481  17.806 -0.2361  0.3340 -0.2809
41128W        W49928  19.978   1.234  15.661  0.2365  0.0252  0.3320
41129W        W49929  16.902   1.795  15.850  0.3126  0.2364 -0.2935
41130W        W49930  10.173   3.748  19.434 -0.1149  0.1437 -0.0931
41131W        W49931  27.795   0.857  17.401 -0.0814 -0.1586 -0.0903
41132W        W49932   9.707   4.925  16.332  0.1234 -0.0931 -0.1980
41133W        W49933   2.608   5.007   4.805 -0.2448 -0.0104 -0.1807
41134W        W49934  28.421   1.231  19.255 -0.0961  0.1128  0.0655
41135W        W49935  11.030   4.459  21.629  0.1436 -0.1442 -0.0015
41136W        W49936   1.890   2.770  20.295 -0.1745  0.1237  0.0571
41137W        W49937  13.980   7.550   4.350 -0.1290 -0.0741 -0.1524
41138W        W49938  19.153   7.751  16.212  0.0536 -0.1859  0.0302
41139W        W49939  15.251   4.143   1.134 -0.0493  0.1995 -0.1361
41140W        W49940   1.801   1.426  22.908  0.0531  0.4575  0.1682
41141W        W49941   1.896   5.270  20.583 -0.2955 -0.2009  0.1048
41142W        W49942  24.416   4.631  17.192 -0.0780  0.1217  0.0890
41143W        W49943  16.955   2.548  16.464 -0.2805 -0.0361  0.0599
41144W        W49944  13.355   0.670  19.194 -0.0830 -0.2227 -0.0453
41145W        W49945   5.731   3.937   9.932 -0.3236  0.1549  0.0119
41146W        W49946  27.191   7.088  22.770 -0.2531  0.1779  0.0858
41147W        W49947   2.578   6.512  19.409 -0.2468 -0.1753 -0.0251
41148W        W49948  26.552   4.838   0.776 -0.1811 -0.1110  0.0890
41149W        W49949   8.076   6.000   1.902 -0.1578 -0.5273 -0.1386
41150W        W49950  11.525   4.939  16.885  0.1456 -0.1068  0.2382
41151W        W49951   0.458   0.644   5.087  0.0459  0.2334 -0.1476
41152W        W49952  13.796   4.393   0.714 -0.1868  0.2495 -0.1412
41153W        W49953  11.811   5.947   8.126  0.0201 -0.2473 -0.2393
41154W        W49954  25.013   0.530  25.383 -0.0582 -0.0587  0.1304
41155W        W49955  27.266   6.087  16.549  0.0290  0.0595  0.0357
41156W        W49956  22.103   2.061   8.768 -0.1552 -0.0033 -0.0817
41157W        W49957  12.310   7.052   0.606  0.1820 -0.2115 -0.0046
41158W        W49958  24.858   7.179   3.083 -0.0585  0.0718  0.1573
41159W        W49959   3.413   7.325  16.061  0.1343  0.0050 -0.0086
41160W        W49960   0.844   0.479  16.394 -0.1258  0.1335  0.2431
41161W        W49961   7.342   6.396   9.584 -0.2311 -0.0995 -0.0430
41162W        W49962  29.358   5.000  22.020 -0.1425  0.1454 -0.0101
41163W        W49963  16.273   4.006  22.854  0.1882  0.2259  0.1251
41164W        W49964  10.027   2.602  19.983 -0.1930 -0.0749  0.0439
41165W        W49965   9.731   3.885  16.556  0.1910  0.0372  0.0218
41166W        W49966  24.249   3.108  15.304  0.0109 -0.0413  0.2803
41167W        W49967  13.519   1.665   9.014  0.0689  0.0651  0.0403
41168W        W49968  12.064   2.470   4.322 -0.0404 -0.2043 -0.0678
41169W        W49969  10.819   5.617  17.445  0.0211 -0.0848 -0.1113
41170W        W49970  13.023   0.616  25.987  0.2371  0.2434 -0.1638
41171W        W49971  30.153   4.679  24.093  0.0227  0.3702  0.3572
41172W        W49972   8.883   6.097  16.960  0.1081  0.0875 -0.0989
41173W        W49973  13.066   4.159   1.196 -0.2836  0.2413 -0.1206
41174W        W49974  20.464   6.444  21.133  0.0726  0.4721 -0.2321
41175W        W49975  11.110   7.246  17.682 -0.1118 -0.1117 -0.0405
41176W        W49976   1.712   0.075   2.169 -0.0863 -0.3303  0.2487
41177W        W49977  21.361   4.030  25.027  0.0511 -0.0101  0.1076
41178W        W49978   6.194   7.160  15.344 -0.0871  0.0521  0.0211
41179W        W49979  25.051   2.905  20.078 -0.0451 -0.3156  0.0550
41180W        W49980  15.703   6.648  25.247 -0.1608  0.0919  0.2908
41181W        W49981  14.033   6.754   7.934 -0.1125 -0.0920  0.2504
41182W        W49982  21.491   3.522  24.443 -0.0220 -0.4691 -0.1457
41183W        W49983   4.037   2.040  25.671  0.0286  0.1845 -0.0928
41184W        W49984  29.030   2.985   5.467 -0.2808  0.0180  0.1709
41185W        W49985  27.343   0.353  24.644 -0.0965  0.2517  0.1790
41186W        W49986  16.900   5.905   8.197 -0.0612  0.1027 -0.1496
41187W        W49987  24.005   0.331  23.465 -0.0310 -0.1399 -0.1645
41188W        W49988  25.856   2.251  25.475  0.2133 -0.1743  0.0516
41189W        W49989  19.702   0.565  24.700 -0.1932 -0.1786 -0.1671
41190W        W49990  13.334   1.766  18.274 -0.0605 -0.2115 -0.0238
41191W        W49991  29.904   7.853   3.861 -0.0248 -0.1337  0.0466
41192W        W49992  29.691   5.075  19.100 -0.1458 -0.3111 -0.0043
41193W        W49993  14.367   2.220  22.518 -0.1268  0.1916  0.1521
41194W        W49994  24.955   6.784   4.331 -0.2190 -0.1696 -0.0739
41195W        W49995  17.446   6.449   7.203 -0.1240  0.0876  0.2980
41196W        W49996  29.736   5.588   6.909 -0.2989  0.1364 -0.2956
41197W        W49997  24.949   5.846  25.751  0.0587  0.0574 -0.0593
41198W        W49998  14.604   2.200  16.359 -0.0117 -0.1231  0.1823
41199W        W49999  29.875   1.359  25.706 -0.0070  0.2992 -0.0770
41200W        W50000  25.182   5.137   7.432  0.1426  0.0161 -0.0466
41201W        W50001   4.480   3.598  15.172  0.2252  0.0436  0.0642
41202W        W50002  24.265   6.691  16.475  0.0557 -0.0016 -0.1865
41203W        W50003   1.287   3.098   1.217 -0.4203  0.0033 -0.2240
41204W        W50004   2.646   4.522  21.358 -0.1250 -0.1706  0.0312
41205W        W50005  23.015   3.963  17.311 -0.1294  0.0791 -0.0092
41206W        W50006  30.557   6.116  15.721  0.1671 -0.0422 -0.0215
41207W        W50007  14.476   6.751   7.233  0.0783  0.0763  0.1692
41208W        W50008   5.300   6.700  23.438  0.0836  0.0635  0.2287
41209W        W50009   1.024   3.994  19.973 -0.2767  0.2797 -0.2665
41210W        W50010   8.152   5.744   4.036 -0.1040  0.1687  0.2664
41211W        W50011  19.299   7.508  10.600  0.1033  0.0111 -0.1488
41212W        W50012  26.987   7.731   2.477 -0.0241  0.0670 -0.4825
41213W        W50013   7.613   1.761   9.744  0.0199  0.1570 -0.3014
41214W        W50014  16.128   6.966   8.339 -0.2845  0.1165 -0.1080
41215W        W50015  16.695   6.351  19.044  0.0784  0.2939 -0.0990
41216W        W50016  10.362   2.604  18.771  0.0726  0.0538  0.4358
41217W        W50017   7.928   4.932   4.503  0.2133  0.2944 -0.0055
41218W        W50018  18.386   4.489  10.731  0.6122  0.0838  0.1861
41219W        W50019   3.709   2.637   2.903 -0.1238  0.2162 -0.0669
41220W        W50020  17.586   6.071   1.844  0.2099 -0.0540 -0.0362
41221W        W50021  21.372   2.274  17.832  0.1591  0.0860 -0.0210
41222W        W50022  23.275   0.481  20.965 -0.2219 -0.4556  0.1039
41223W        W50023   0.367   3.582  17.325  0.0393 -0.0162 -0.0065
41224W        W50024   6.816   2.241  16.899  0.0532 -0.0396  0.1626
41225W        W50025   9.935   3.112  17.021  0.1136  0.1460  0.1278
41226W        W50026  11.577   7.454  20.882 -0.4637 -0.3010 -0.1104
41227W        W50027   5.069   1.399   6.164 -0.0730  0.1767 -0.0919
41228W        W50028  27.098   0.725  17.219 -0.0024 -0.1271 -0.0874
41229W        W50029   2.747   1.445   8.322  0.1209 -0.1361 -0.0430
41230W        W50030   4.690   4.687  23.568  0.0138 -0.1448  0.1079
41231W        W50031   6.983   3.707   0.155  0.1839 -0.0955  0.2384
41232W        W50032  23.705   5.564   7.148 -0.0862  0.1573 -0.3452
41233W        W50033  13.651   6.696   0.433 -0.0080 -0.0762  0.1324
41234W        W50034  17.837   0.510   9.848 -0.1122 -0.0145  0.0060
41235W        W50035  12.422   2.335  19.835  0.1618 -0.2971 -0.0075
41236W        W50036  28.447   2.760   9.858  0.3099  0.2288  0.1568
41237W        W50037   7.766   5.339  21.335 -0.2893 -0.0167  0.1063
41238W        W50038  27.480   5.659  16.701 -0.0509  0.2947 -0.1867
41239W        W50039  13.715   2.961   0.915 -0.0815  0.1630 -0.0442
41240W        W50040  31.109   2.524   5.649 -0.1365 -0.1512 -0.2956
41241W        W50041  23.536   5.921   9.474  0.1943  0.1105  0.0496
41242W        W50042  25.066   7.718   1.734 -0.0795 -0.0907 -0.3637
41243W        W50043  19.025   7.047   7.832  0.0754  0.0424 -0.0704
41244W        W50044  25.438   5.144  17.266 -0.1941 -0.1454 -0.2166
41245W        W50045   9.822   6.080   3.270  0.2303 -0.2545  0.0703
41246W        W50046   4.550   0.676   4.392  0.1905 -0.2208 -0.2397
41247W        W50047  22.343   7.435   2.732 -0.1544 -0.1578 -0.0029
41248W        W50048  26.516   5.474   6.388  0.0169 -0.0565 -0.0019
41249W        W50049  31.078   6.638  22.432 -0.0188  0.0912  0.3009
41250W        W50050  10.949   5.634  22.839  0.2022 -0.0803 -0.1069
41251W        W50051  16.842   6.911  24.768  0.4091 -0.1046  0.0321
41252W        W50052   8.121   0.057  14.383  0.1489  0.0391  0.0135
41253W        W50053  23.482   4.784   7.013  0.1416 -0.2269  0.2215
41254W        W50054  25.130   5.838   3.502 -0.0848 -0.2988  0.0081
41255W        W50055  13.835   0.416  19.000  0.3597 -0.1284  0.0367
41256W        W50056   0.463   4.109  25.403  0.1067 -0.0139  0.0172
41257W        W50057   9.206   3.166   3.439 -0.1634  0.1734  0.2849
41258W        W50058   3.167   1.638   6.526 -0.2709  0.2839  0.2602
41259W        W50059  17.809   3.060   9.704  0.0181 -0.0980 -0.1873
41260W        W50060  11.578   2.766  23.326  0.1137  0.2240 -0.1924
41261W        W50061  28.439   3.068   1.948 -0.0485 -0.0802 -0.3198
41262W        W50062  27.954   2.213   0.082  0.3773  0.1798 -0.3375
41263W        W50063  16.468   2.736   5.595 -0.1373  0.0270 -0.2209
41264W        W50064  23.003   1.170  25.601 -0.0394  0.2289  0.1557
41265W        W50065   2.359   2.672  18.475  0.0045  0.1437  0.0467
41266W        W50066   3.478   1.647   3.078 -0.1627 -0.1366 -0.0467
41267W        W50067  11.851   2.331  20.544  0.1695 -0.0179 -0.0112
41268W        W50068   2.676   1.248   1.141 -0.0607  0.0473 -0.1678
41269W        W50069  16.181   0.507  19.560  0.0177  0.0344 -0.0712
41270W        W50070  11.466   5.691   8.966  0.1996 -0.1697 -0.1028
41271W        W50071   0.622   7.254   4.021  0.1213 -0.2299 -0.0914
41272W        W50072  15.682   7.238   6.830 -0.0169 -0.1427  0.0667
41273W        W50073  14.722   7.360   6.534 -0.1137 -0.1341  0.1240
41274W        W50074   9.948   5.720  24.417  0.1227  0.0905 -0.0521
41275W        W50075  27.848   6.748   7.319  0.1273 -0.1934 -0.3137
41276W        W50076  12.013   2.506  17.818  0.0589  0.3397  0.0080
41277W        W50077  10.842   5.529  15.503 -0.0497 -0.2355  0.3362
41278W        W50078  25.056   6.799  20.254 -0.3824 -0.0787 -0.0038
41279W        W50079  26.201   5.203  17.858 -0.1958 -0.0914 -0.3063
41280W        W50080  15.599   5.688  21.134  0.1740 -0.1363  0.2319
41281W        W50081  17.729   2.763   4.815 -0.2541 -0.0892 -0.3937
41282W        W50082  21.043   4.878   9.258  0.0601  0.1268 -0.0067
41283W        W50083   7.023   7.444  23.810  0.1423 -0.1071 -0.4673
41284W        W50084  24.707   2.448  25.946  0.0150 -0.3814  0.1240
41285W        W50085  21.381   5.010   3.599  0.2086  0.0673  0.3311
41286W        W50086  20.578   5.331   2.979 -0.1812  0.2730  0.0511
41287W        W50087  29.679   0.865  19.466  0.2160 -0.1649 -0.0122
41288W        W50088   8.721   5.238  23.377  0.0553 -0.0223 -0.2397
41289W        W50089  14.752   7.487   5.361 -0.0929 -0.1821  0.1739
41290W        W50090  16.444   1.611   9.456 -0.4063  0.1701 -0.0381
41291W        W50091   8.283   4.042  10.634  0.0469  0.1288 -0.1511
41292W        W50092  15.264   4.397  10.483 -0.0882 -0.1938  0.1371
41293W        W50093   8.538   5.784  17.122  0.1810 -0.1345 -0.1832
41294W        W50094   6.247   3.338   4.427  0.0140 -0.2468  0.3255
41295W        W50095  27.638   6.248   2.803 -0.2536 -0.0737 -0.0919
41296W        W50096  30.213   7.796   7.224 -0.3556 -0.0989 -0.0602
41297W        W50097   5.523   2.385   4.983  0.1296  0.1133  0.0655
41298W        W50098  13.850   4.605  17.818 -0.3257 -0.0653  0.2684
41299W        W50099  17.411   4.012  17.946 -0.0838  0.4167  0.0736
41300W        W50100  24.553   5.186  25.684  0.0264  0.2382 -0.0726
41301W        W50101  12.569   2.395  19.292  0.1235 -0.2383  0.0289
41302W        W50102  30.252   0.501   3.919  0.0378 -0.1045 -0.2322
41303W        W50103  24.032   7.105  22.242 -0.2022 -0.1824  0.0908
41304W        W50104  15.521   1.053  23.116  0.1407 -0.3556 -0.0379
41305W        W50105  11.352   2.923  25.725  0.2187 -0.0650  0.0684
41306W        W50106  25.780   6.825  17.942 -0.0383 -0.0257 -0.0262
41307W        W50107   5.755   5.821   9.424 -0.2409  0.2012 -0.1689
41308W        W50108  28.259   1.051  17.158 -0.2745 -0.4760  0.0519
41309W        W50109   5.073   6.781  16.806  0.2239  0.1922  0.1450
41310W        W50110   8.362   0.510  16.491  0.0337 -0.3162 -0.2005
41311W        W50111  28.322   3.327   0.762 -0.1578  0.3504  0.0193
41312W        W50112  24.409   3.036   3.944  0.1308 -0.2210 -0.2845
41313W        W50113   5.794   2.678   0.435 -0.1404  0.1068  0.1980
41314W        W50114  18.452   1.354  25.823 -0.0894  0.3613  0.0827
41315W        W50115   0.232   2.295   3.044 -0.0841  0.0190  0.0083
41316W        W50116   4.684   6.600   8.205  0.1469  0.1205  0.3506
41317W        W50117   0.828   6.991  25.193  0.1945  0.6002  0.1393
41318W        W50118  17.220   0.115   2.117  0.2115  0.3026 -0.2565
41319W        W50119   7.125   0.983   6.604  0.0260 -0.0459 -0.0237
41320W        W50120   4.753   3.431  25.413 -0.1976  0.0688 -0.1589
41321W        W50121   5.676   4.130  19.804  0.0044 -0.2410 -0.0448
41322W        W50122  30.854   1.654  23.699  0.2277  0.2210  0.1037
41323W        W50123  17.922   5.801  23.215 -0.2380  0.1433 -0.2583
41324W        W50124  20.635   1.479  11.431 -0.0610 -0.1913 -0.1333
41325W        W50125  20.777   3.434  21.322  0.2182  0.0628  0.2047
41326W        W50126   8.717   3.182   8.410  0.0315 -0.0932  0.1347
41327W        W50127   1.616   4.531  16.356  0.2234 -0.2080 -0.0550
41328W        W50128  17.563   2.413  24.457 -0.1231 -0.0370 -0.0662
41329W        W50129  27.997   1.624  21.973 -0.3607 -0.1476  0.0945
41330W        W50130  28.248   6.813  25.446  0.0295  0.4959 -0.1145
41331W        W50131   6.618   0.331   5.294  0.0358 -0.2720  0.0980
41332W        W50132  29.877   7.202  19.484 -0.1628 -0.2500  0.0582
41333W        W50133  14.317   2.787  11.172  0.1796 -0.0165  0.0772
41334W        W50134  18.777   4.345  21.471  0.0485  0.3994  0.2012
41335W        W50135   9.947   3.074   0.473 -0.0196  0.2097  0.0748
41336W        W50136  22.815   2.873   9.716  0.1498 -0.1860 -0.0339
41337W        W50137  16.629   7.030  21.752  0.0811 -0.1919 -0.0144
41338W        W50138   7.974   6.862  25.247 -0.0459 -0.1009 -0.1862
41339W        W50139   1.799   3.563  15.327  0.3098 -0.1259  0.4238
41340W        W50140   9.573   1.314   8.548 -0.2600  0.2947  0.1200
41341W        W50141  19.626   7.202  16.677  0.1760 -0.1059  0.1184
41342W        W50142  13.467   3.346  21.372 -0.1243  0.0199 -0.1203
41343W        W50143  17.096   7.311   7.971  0.0642 -0.1910  0.1973
41344W        W50144   7.203   7.757   2.048 -0.1358  0.1513  0.2276
41345W        W50145  21.189   6.782   2.826 -0.2809  0.3142 -0.2548
41346W        W50146   1.115   7.466  16.943 -0.0796  0.2496  0.3090
41347W        W50147  29.187   1.316  18.915 -0.0955  0.2566 -0.2039
41348W        W50148  16.727   7.015  20.206  0.0784 -0.1295  0.0778
41349W        W50149   4.723   7.373  24.332 -0.2574  0.2687  0.0552
41350W        W50150   8.835   5.917   4.979 -0.2757 -0.0069 -0.1677
41351W        W50151   9.603   6.363  22.922  0.0681 -0.3233 -0.1508
41352W        W50152  23.127   5.788  23.302  0.1499 -0.0277 -0.3288
41353W        W50153  24.952   5.779  24.582 -0.0029 -0.0560  0.0770
41354W        W50154  11.854   5.552  26.004  0.1624 -0.1957 -0.0209
41355W        W50155  11.028   2.878  10.890 -0.0923  0.2039 -0.2308
41356W        W50156   3.037   6.510  24.839 -0.0573 -0.1249 -0.1753
41357W        W50157  29.654   7.556  16.522  0.1140 -0.1477  0.0157
41358W        W50158  16.939   4.813  15.265 -0.0847 -0.2039  0.2442
41359W        W50159  29.974   5.788   4.856  0.0692 -0.2041 -0.1248
41360W        W50160  15.061   0.696  17.137 -0.1272 -0.2417 -0.1448
41361W        W50161  11.201   4.942   0.399  0.0105  0.2402  0.0301
41362W        W50162  21.374   7.209  18.992  0.1136  0.1893 -0.0690
41363W        W50163   3.825   3.533  20.908  0.1280 -0.1107 -0.0935
41364W        W50164   9.910   1.230   6.814 -0.1485 -0.1630  0.0798
41365W        W50165   6.913   6.764   7.617 -0.1311 -0.0777 -0.1598
41366W        W50166  20.184   1.381  25.530  0.1178 -0.0894 -0.4885
41367W        W50167   6.486   6.075   8.235  0.1546 -0.1118  0.0683
41368W        W50168  11.421   7.481   1.034  0.1413 -0.0097  0.3037
41369W        W50169  27.061   7.068  20.163 -0.1210 -0.2352 -0.3624
41370W        W50170  15.743   2.624  19.417 -0.2213 -0.2261 -0.1048
41371W        W50171  26.131   0.418  20.008  0.0015  0.2277  0.0689
41372W        W50172  20.972   0.249  11.822  0.3491  0.0698  0.1665
41373W        W50173   8.170   6.000  17.481  0.1258 -0.0493 -0.1510
41374W        W50174   6.367   6.740   1.297 -0.0737 -0.2266  0.0713
41375W        W50175  31.042   0.438   8.320 -0.0495  0.1107 -0.1385
41376W        W50176   8.374   6.941  16.611 -0.1117 -0.2431  0.0727
41377W        W50177   9.662   0.798  23.739  0.1144  0.1338 -0.2212
41378W        W50178   4.399   4.008  17.578  0.0363 -0.2069  0.3873
41379W        W50179   5.174   7.441   7.425 -0.1788  0.0026 -0.0115
41380W        W50180  24.404   5.195   8.078  0.0042 -0.1424  0.0927
41381W        W50181  26.840   3.880   4.098 -0.1858  0.0768 -0.2814
41382W        W50182  18.024   6.672  20.812  0.0958  0.0127  0.1674
41383W        W50183  23.341   0.194   3.952  0.1058  0.4032  0.0432
41384W        W50184  14.601   2.348  18.377  0.3692 -0.1024 -0.0497
41385W        W50185  20.639   5.439   8.236 -0.0745  0.2099  0.1344
41386W        W50186   0.636   2.970   3.114 -0.0394  0.0125  0.2264
41387W        W50187   0.518   3.454  23.841  0.1100 -0.0042  0.0189
41388W        W50188   1.135   0.109  25.946 -0.1064 -0.0697 -0.2797
41389W        W50189  17.549   7.528   7.749 -0.0824 -0.1131  0.0645
41390W        W50190  14.945   3.589  18.234  0.2455 -0.0280  0.0601
41391W        W50191  11.993   6.886  16.361  0.1284 -0.1675 -0.0975
41392W        W50192  14.879   0.600   0.539 -0.2153 -0.6444  0.1640
41393W        W50193   7.618   1.195  19.117 -0.0713  0.4281  0.0568
41394W        W50194   5.554   2.242   4.526  0.1557  0.0267 -0.1296
41395W        W50195  23.564   1.084  22.680  0.0665  0.0955  0.2524
41396W        W50196  11.451   5.679  21.534 -0.0923 -0.0685 -0.2577
41397W        W50197   2.113   4.125   4.985  0.4709  0.2508  0.0037
41398W        W50198  29.657   3.721  24.888  0.3674  0.0988 -0.1378
41399W        W50199  29.936   6.869   2.814  0.1978  0.1534  0.0095
41400W        W50200  30.721   5.500  23.027  0.1328 -0.0101  0.0670
41401W        W50201   8.580   3.631   0.465 -0.0906 -0.0531  0.1572
41402W        W50202  22.607   5.083   7.202  0.3803 -0.1121 -0.2784
41403W        W50203  25.377   1.113  19.999  0.0429 -0.1344  0.1294
41404W        W50204  10.908   7.728  17.447 -0.0289  0.2523 -0.1879
41405W        W50205  20.491   6.057  25.602  0.2179  0.1225 -0.0662
41406W        W50206  17.356   7.304   1.001  0.0281  0.1863 -0.0790
41407W        W50207  19.469   5.274   9.912 -0.2366 -0.1026  0.0387
41408W        W50208  16.103   6.558   0.160 -0.0346 -0.0934 -0.2263
41409W        W50209  25.718   5.757   8.173 -0.0915 -0.0261  0.1319
41410W        W50210  30.900   3.312  21.670 -0.2583 -0.2063 -0.1635
41411W        W50211  13.136   3.605  20.998  0.0798 -0.0074 -0.2235
41412W        W50212  17.807   6.840   4.424  0.1204  0.2566 -0.1417
41413W        W50213  29.278   0.238  18.965  0.1453  0.0151 -0.1435
41414W        W50214  12.506   1.187   5.119 -0.1037 -0.1781 -0.2370
41415W        W50215  17.299   4.423   1.178 -0.2636  0.2578  0.3798
41416W        W50216  29.712   0.608  23.813  0.2149 -0.2104 -0.0159
41417W        W50217  25.824   3.459  21.733 -0.0846  0.1462 -0.1386
41418W        W50218  12.514   5.394  16.790 -0.1425  0.2006 -0.1269
41419W        W50219   2.386   4.575   2.290 -0.1499 -0.2262 -0.1416
41420W        W50220  29.884   5.923  16.465 -0.0000 -0.0687 -0.1064
41421W        W50221  10.988   2.007  21.921  0.1030  0.3825  0.0857
41422W        W50222  19.053   2.528  16.589 -0.0163  0.0230 -0.0163
41423W        W50223   9.239   3.341  24.692  0.2669  0.2065  0.1994
41424W        W50224   9.646   3.878  18.282 -0.0746  0.0638  0.2725
41425W        W50225  25.958   4.342   4.147 -0.0728  0.0685  0.4286
41426W        W50226   0.354   0.155  24.248  0.4423 -0.0040 -0.1524
41427W        W50227   0.995   1.914  22.500 -0.1906 -0.1565 -0.0177
41428W        W50228  20.704   3.678  15.466 -0.0006 -0.0071  0.3001
41429W        W50229   9.302   6.505   1.231 -0.1898 -0.0979  0.0051
41430W        W50230  27.566   1.010   2.367  0.0352  0.2981  0.0600
41431W        W50231  13.893   5.323  18.284  0.1091 -0.1529 -0.1475
41432W        W50232  27.231   1.835   6.171 -0.0446 -0.2869 -0.0600
41433W        W50233  29.424   2.379   8.377 -0.0253  0.1901 -0.2661
41434W        W50234  24.134   1.208   3.749 -0.2551  0.2011 -0.1427
41435W        W50235   9.147   7.251  14.635 -0.2045  0.0242  0.0270
41436W        W50236  13.191   0.715   9.157 -0.2724 -0.3269  0.0415
41437W        W50237   7.406   0.668   2.210 -0.3704 -0.0011  0.3522
41438W        W50238  12.953   4.079  16.326  0.1170  0.0286  0.1954
41439W        W50239  22.940   0.391   5.445  0.2863  0.3597 -0.0791
41440W        W50240  18.799   3.321  19.462  0.0733  0.2769 -0.2408
41441W        W50241  27.489   2.273   6.529  0.2359  0.1127  0.0136
41442W        W50242  19.222   6.912   5.644 -0.3090 -0.1919 -0.1780
41443W        W50243   4.917   6.252   5.016 -0.4352  0.1084 -0.2841
41444W        W50244  20.007   3.048   1.989  0.0043 -0.1060 -0.1204
41445W        W50245   5.597   6.113  17.259  0.3506 -0.1655 -0.1091
41446W        W50246  23.702   1.754  23.728  0.0451  0.2582  0.0332
41447W        W50247  13.767   2.435   2.306 -0.1520  0.1176  0.0083
41448W        W50248  11.849   3.822  10.094 -0.0726  0.0386  0.1569
41449W        W50249  21.541   6.905   4.456 -0.1559  0.1411 -0.3584
41450W        W50250   3.449   5.016   4.378 -0.3406 -0.0270 -0.1827
41451W        W50251  30.992   7.602   4.397  0.0793  0.1074  0.0084
41452W        W50252  23.153   4.110  20.637 -0.0858  0.2360  0.0926
41453W        W50253  15.842   1.799   0.126  0.0532 -0.0141  0.0938
41454W        W50254  18.753   3.589  22.987 -0.4381 -0.1145  0.0160
41455W        W50255   1.774   3.522  13.961  0.0601  0.0318  0.0392
41456W        W50256  25.237   5.848  21.720  0.0408 -0.0882 -0.2735
41457W        W50257  15.127   2.535  19.403 -0.1617  0.2173 -0.0176
41458W        W50258  30.229   7.797   4.787 -0.2455  0.1453 -0.2714
41459W        W50259  21.267   5.923   7.981 -0.2907  0.1287  0.1031
41460W        W50260  17.909   7.326   5.309  0.1579  0.0176 -0.2584
41461W        W50261   0.773   1.701   2.088 -0.1537  0.5171 -0.0864
41462W        W50262  17.758   4.174   3.050 -0.0664 -0.3002  0.3463
41463W        W50263  14.774   4.633   2.730  0.1019 -0.0336 -0.1152
41464W        W50264  15.236   4.589  25.710  0.1628  0.3750  0.1632
41465W        W50265  30.737   1.227  21.677 -0.0610  0.1131 -0.2464
41466W        W50266  16.485   6.508   1.384 -0.1034 -0.4429  0.1720
41467W        W50267   4.111   6.482  19.007  0.0214  0.0793 -0.0759
41468W        W50268  27.524   4.584   4.767 -0.3805  0.0186  0.0622
41469W        W50269   3.002   3.591  24.300 -0.1251  0.1106 -0.0523
41470W        W50270  29.915   7.719   3.377  0.3007  0.1424 -0.2187
41471W        W50271  17.004   4.629  18.464  0.0652  0.0792  0.1512
41472W        W50272   8.803   4.972   9.758 -0.2404 -0.2925  0.0418
41473W        W50273  18.660   3.306   6.431  0.2267 -0.1683 -0.0923
41474W        W50274   7.238   6.854  23.020  0.2684 -0.0391 -0.0534
41475W        W50275   0.958   4.419   3.577  0.0608  0.0151 -0.0089
41476W        W50276  25.450   6.187  25.501 -0.5248  0.1046 -0.1833
41477W        W50277   2.246   2.384   9.310 -0.0015  0.0211 -0.1301
41478W        W50278  17.469   4.740  10.119 -0.0526 -0.0940  0.2622
41479W        W50279  22.025   0.084   9.051  0.0297  0.0360 -0.2880
41480W        W50280  13.609   3.830  21.061  0.1343  0.1392  0.0018
41481W        W50281  20.488   2.377   6.075  0.1220  0.1885  0.3553
41482W        W50282  21.288   3.590  21.253  0.1616 -0.1527  0.0651
41483W        W50283  22.092   0.652  16.435 -0.0168 -0.1050 -0.0800
41484W        W50284   4.607   1.775  16.130 -0.3834  0.0562 -0.1057
41485W        W50285  13.414   4.984   0.635  0.0818  0.1308 -0.4922
41486W        W50286   5.396   5.300  18.135  0.0026 -0.1284 -0.0710
41487W        W50287  17.521   2.649   6.453 -0.2673 -0.0835 -0.0419
41488W        W50288  27.846   3.123  18.736  0.0704  0.3902  0.1283
41489W        W50289  26.215   0.658  23.158 -0.2251  0.0762 -0.1389
41490W        W50290  30.673   4.710  19.215  0.0621 -0.1630 -0.0304
41491W        W50291  14.613   1.648   3.449  0.0010  0.5085  0.1950
41492W        W50292   4.044   1.461   5.887  0.1609 -0.0250 -0.1543
41493W        W50293   7.294   7.050  23.837  0.1748  0.1404  0.0520
41494W        W50294   6.506   6.190  26.032  0.1169  0.0651 -0.2610
41495W        W50295  22.685   6.468   8.391 -0.0128 -0.1133 -0.0646
41496W        W50296   2.182   3.970   1.066  0.1200  0.1371  0.0810
41497W        W50297   7.822   2.427   6.592  0.0161 -0.0458 -0.0313
41498W        W50298  19.743   0.848   6.217 -0.3102 -0.0773 -0.1673
41499W        W50299  26.518   0.219  15.298  0.1365  0.1692 -0.1612
41500W        W50300  11.521   1.066   9.860 -0.1380  0.0912  0.1145
41501W        W50301  19.408   0.024  18.413  0.1568 -0.1476 -0.2498
41502W        W50302   2.965   0.324   0.148 -0.1387 -0.0414 -0.1965
41503W        W50303  21.310   4.917  25.657  0.0986  0.1882  0.0283
41504W        W50304  31.120   7.445  17.134 -0.1237 -0.2143  0.0652
41505W        W50305  21.750   4.460   0.231  0.1344  0.1388  0.0945
41506W        W50306  14.767   7.129  20.805 -0.0783  0.0634  0.1094
41507W        W50307  13.497   0.650  21.257 -0.0168 -0.0635 -0.1861
41508W        W50308  11.569   3.702   5.520 -0.1232  0.1694  0.2474
41509W        W50309  11.228   2.843  21.935  0.3000 -0.0901 -0.1601
41510W        W50310   8.726   4.608   8.575  0.0825 -0.0127 -0.3611
41511W        W50311   4.605   3.819   4.617 -0.0622 -0.1174  0.0867
41512W        W50312   5.563   5.356   3.061  0.0094  0.1567  0.1020
41513W        W50313  23.929   0.123   7.936 -0.0826  0.1140 -0.0149
41514W        W50314   0.795   7.345  22.397 -0.1414  0.1619 -0.1335
41515W        W50315   4.960   5.817   0.700  0.1298 -0.1506 -0.1486
41516W        W50316  11.411   2.318  15.505 -0.0339 -0.1342 -0.1378
41517W        W50317   6.468   6.243  21.421  0.1985 -0.1511  0.0818
41518W        W50318  29.923   3.397  23.255 -0.0744  0.1019 -0.3857
41519W        W50319  16.880   6.757  22.144 -0.0120  0.0722 -0.0694
41520W        W50320   1.118   3.298  19.308 -0.3585 -0.3883 -0.1664
41521W        W50321  23.308   0.809  23.088  0.0759  0.0271  0.1569
41522W        W50322  27.214   2.948   7.543  0.2527 -0.0921 -0.1806
41523W        W50323  23.768   1.193  25.418  0.0826  0.3388 -0.1842
41524W        W50324  10.573   7.665   9.824 -0.1613  0.1269  0.1940
41525W        W50325   2.534   4.738  16.977  0.0471 -0.0085 -0.2810
41526W        W50326   8.587   0.433  19.416 -0.4115  0.0095  0.0847
41527W        W50327  17.836   0.096  15.996 -0.1451  0.0792  0.0159
41528W        W50328   6.870   2.247  17.373 -0.0544 -0.1766 -0.0817
41529W        W50329  21.064   1.992   7.701 -0.2525 -0.2127  0.2138
41530W        W50330  17.471   3.634  18.590 -0.0022 -0.2462 -0.2246
41531W        W50331  13.275   4.575   1.482  0.1399  0.3022 -0.1148
41532W        W50332  16.275   4.535   9.362  0.1577  0.1435 -0.0723
41533W        W50333   9.774   2.263   7.573 -0.4367  0.2127  0.2211
41534W        W50334  12.714   6.947  22.406  0.0929 -0.1085  0.1583
41535W        W50335   2.312   5.502  20.520  0.0630 -0.0611  0.2937
41536W        W50336   6.576   1.111  23.930  0.1030  0.0761 -0.0763
41537W        W50337  21.879   1.047   8.110  0.0283  0.0155  0.3140
41538W        W50338  29.396   2.201   5.455 -0.2158  0.4490  0.1431
41539W        W50339   5.816   7.096   8.664  0.0128 -0.1503  0.6343
41540W        W50340   2.705   7.064   0.399 -0.0588  0.0086  0.1676
41541W        W50341   5.455   5.929   8.469 -0.1063 -0.1315  0.2304
41542W        W50342   4.632   5.263  17.517 -0.0330 -0.1351 -0.3401
41543W        W50343  28.935   2.360  25.769 -0.1946  0.0929 -0.0159
41544W        W50344   4.707   6.110   2.465 -0.2957  0.1116  0.0951
41545W        W50345  29.724   4.303  17.967 -0.0793  0.3785  0.0970
41546W        W50346  18.670   6.317   6.087  0.1922  0.3457  0.0601
41547W        W50347  30.473   7.549  24.718 -0.2820  0.1353 -0.2041
41548W        W50348  14.662   1.190   3.897  0.0127 -0.0081  0.1806
41549W        W50349  13.197   3.651  25.914  0.3496 -0.1884  0.0420
41550W        W50350   9.371   1.508  16.527  0.1471 -0.0122 -0.0905
41551W        W50351  19.089   0.912   3.492  0.1076 -0.5206  0.0481
41552W        W50352  14.713   6.063   4.998 -0.3224 -0.0519  0.0650
41553W        W50353  13.399   5.392   2.503  0.2124 -0.1253 -0.1973
41554W        W50354  16.084   3.229  25.995 -0.0343  0.0981  0.2959
41555W        W50355  21.977   1.289   0.776 -0.3534 -0.0675 -0.3351
41556W        W50356  17.936   0.752  22.851 -0.1366  0.3436  0.0977
41557W        W50357  13.380   1.327   4.699  0.1817  0.3656 -0.0943
41558W        W50358  16.243   1.834  10.454  0.0861 -0.1151 -0.2993
41559W        W50359   4.244   5.980   3.438 -0.1724  0.1835 -0.1012
41560W        W50360  18.411   5.353  25.275 -0.1044 -0.2172 -0.0957
41561W        W50361  22.767   5.219  21.250 -0.1608 -0.2849  0.2388
41562W        W50362  30.493   7.086   5.040  0.0505 -0.1250  0.0253
41563W        W50363   4.929   0.455  21.862  0.1350 -0.0616  0.0094
41564W        W50364  22.966   2.049  22.774  0.3460 -0.0471  0.0922
41565W        W50365   7.416   7.118  22.387 -0.0242 -0.0752 -0.2718
41566W        W50366  21.210   4.698   2.217 -0.0985 -0.0337 -0.0481
41567W        W50367   2.611   6.942  19.748 -0.2341 -0.2560 -0.0730
41568W        W50368  29.981   3.341  19.607  0.3228 -0.1234  0.1264
41569W        W50369  23.738   2.233   5.750 -0.0922 -0.1020  0.2046
41570W        W50370  11.833   5.409  18.848 -0.0036 -0.0826  0.3950
41571W        W50371   3.858   3.696  23.633  0.0012 -0.1943 -0.0020
41572W        W50372  16.861   1.354   6.310 -0.3123  0.0513 -0.0299
41573W        W50373  31.246   6.973   0.361  0.0066 -0.0435  0.0380
41574W        W50374  23.565   0.090  20.241 -0.1137  0.0702 -0.0503
41575W        W50375  15.594   0.407   9.158 -0.1528  0.0882  0.0674
41576W        W50376  29.416   7.381  18.316  0.0982  0.1886 -0.0060
41577W        W50377  20.127   7.478  22.162  0.0699 -0.0583 -0.1266
41578W        W50378   4.648   4.062  10.912  0.1171  0.1729  0.0478
41579W        W50379  28.408   4.064   8.190 -0.0112  0.1834  0.1811
41580W        W50380  30.327   6.419  21.236 -0.0693 -0.1655  0.0655
41581W        W50381  29.383   7.845  18.536  0.1763  0.0179  0.0367
41582W        W50382  31.400   1.318  25.201  0.0312 -0.0532  0.0147
41583W        W50383  17.411   7.359  19.933 -0.4204  0.0462  0.0198
41584W        W50384  18.493   2.659   1.246  0.0801 -0.2225  0.1048
41585W        W50385  10.545   5.896  21.069  0.0103  0.0552 -0.0893
41586W        W50386  26.593   3.950   9.158 -0.3818 -0.0924  0.0742
41587W        W50387  19.079   6.791   1.446  0.3010 -0.1445 -0.0561
41588W        W50388  24.736   4.389  10.986  0.1929 -0.2052 -0.1239
41589W        W50389  15.462   2.301  10.014  0.1852  0.2649  0.1692
41590W        W50390  10.268   1.628   6.953 -0.0937 -0.0297 -0.2078
41591W        W50391   5.885   1.940   7.752 -0.2985 -0.0719 -0.1862
41592W        W50392   7.409   6.069  21.847 -0.0525 -0.0471 -0.0491
41593W        W50393   2.754   4.667  23.386  0.1510  0.2438  0.0150
41594W        W50394  23.735   0.176   4.996 -0.2321 -0.0702  0.1280
41595W        W50395  27.260   4.901   6.079  0.0171 -0.2238  0.1550
41596W        W50396  13.880   5.161  16.918  0.0871  0.0106 -0.3132
41597W        W50397  19.629   1.690  18.059  0.1019  0.1311 -0.1305
41598W        W50398  19.354   1.946   9.014 -0.0339  0.0108  0.0514
41599W        W50399  11.039   7.859  25.397 -0.0689 -0.2725 -0.0894
41600W        W50400  23.655   0.703   2.095 -0.3461 -0.2853 -0.2103
41601W        W50401  15.311   7.019   9.575  0.1166  0.0644  0.0865
41602W        W50402  24.032   5.146  21.258 -0.0456 -0.2250  0.1542
41603W        W50403  27.571   7.350   0.661 -0.1599 -0.1753 -0.0385
41604W        W50404  28.822   3.749  21.092  0.2464 -0.1649  0.0500
41605W        W50405  30.609   5.761  18.437  0.0683  0.2077 -0.2879
41606W        W50406  23.489   4.904  17.821  0.1838  0.0688  0.1255
41607W        W50407  13.174   4.189  25.692  0.2201 -0.0569  0.0579
41608W        W50408   0.295   4.569  25.554 -0.0679 -0.0780 -0.0747
41609W        W50409   4.124   6.865   1.388  0.2837  0.1346 -0.4112
41610W        W50410  19.649   3.222   7.883  0.0507  0.1141  0.1260
41611W        W50411   6.176   0.373  17.606  0.1788  0.1575 -0.0157
41612W        W50412   0.919   3.479   4.280  0.0054 -0.1691 -0.0405
41613W        W50413   9.266   1.892   8.095 -0.1308  0.3077  0.1010
41614W        W50414  22.375   2.584  22.132  0.0154 -0.1025 -0.0179
41615W        W50415  22.643   2.686   5.544 -0.1073 -0.0322 -0.0442
41616W        W50416  13.028   5.227  10.857 -0.3629 -0.1017 -0.1282
41617W        W50417  15.310   6.591  21.445 -0.1143  0.1468  0.0738
41618W        W50418  11.340   3.138  15.870  0.0814  0.2975  0.0784
41619W        W50419  27.543   4.742   4.105  0.0391 -0.0296  0.1617
41620W        W50420   9.800   1.419  21.825  0.0338 -0.1621 -0.1927
41621W        W50421   3.324   5.845  23.623  0.0269 -0.1687  0.1966
41622W        W50422  24.692   6.906   4.760 -0.1695  0.0189 -0.1501
41623W        W50423  14.134   2.932  16.342  0.2021 -0.0744  0.1276
41624W        W50424  29.463   7.026  18.703  0.0005 -0.0445  0.0370
41625W        W50425   7.273   0.311  17.315 -0.1089  0.0767  0.0490
41626W        W50426  20.545   0.591  18.431  0.2373 -0.0753 -0.3563
41627W        W50427   9.508   6.284  16.929 -0.0001 -0.3542 -0.0247
41628W        W50428  17.305   6.922  17.035 -0.0304  0.0123  0.2391
41629W        W50429  23.814   0.950  21.320  0.1804 -0.1394 -0.0381
41630W        W50430  11.837   2.993  18.368 -0.0356  0.0306  0.0402
41631W        W50431  11.076   7.096   1.179 -0.0509 -0.0489  0.0664
41632W        W50432   5.283   7.586   7.936 -0.0078  0.2805  0.0586
41633W        W50433  25.034   0.124   3.286 -0.2276  0.0928  0.2265
41634W        W50434   3.648   0.243  19.551  0.2265  0.1176  0.2390
41635W        W50435   4.488   7.307   3.747 -0.1701  0.0648 -0.1625
41636W        W50436  18.502   6.197  20.319  0.1134  0.2366  0.0159
41637W        W50437   8.051   6.698  18.162  0.2933 -0.0692  0.1095
41638W        W50438  12.833   3.037   2.083 -0.0948  0.2890  0.2040
41639W        W50439  22.900   4.463  16.509  0.0568 -0.1837  0.1545
41640W        W50440  28.288   3.164   3.881 -0.0747 -0.1464 -0.2684
41641W        W50441   3.549   2.950   3.700 -0.0285 -0.2346  0.2837
41642W        W50442   5.475   0.878   4.121  0.1601  0.1745 -0.0639
41643W        W50443  30.924   4.607   3.781 -0.0322 -0.2331  0.1384
41644W        W50444  24.803   4.849   0.570 -0.1566  0.3395 -0.0462
41645W        W50445   7.632   1.313  10.105  0.1141  0.0838  0.3320
41646W        W50446  16.352   7.137  23.179  0.1806 -0.0416  0.0242
41647W        W50447  25.272   6.190  24.747 -0.1096  0.2726 -0.4767
41648W        W50448  11.206   0.276   4.695 -0.0413 -0.0938  0.0631
41649W        W50449  17.872   2.314  11.075  0.1316  0.1399 -0.0383
41650W        W50450   4.014   0.226   2.527 -0.0059  0.0376  0.2336
41651W        W50451  29.980   1.026   1.354  0.0210  0.2751  0.4095
41652W        W50452  30.376   7.449  14.546  0.3385  0.1165 -0.3236
41653W        W50453   1.131   4.519  19.522 -0.2057 -0.0017 -0.0195
41654W        W50454  16.385   1.929   4.424 -0.0057 -0.0687  0.0508
41655W        W50455  17.499   0.465  15.933 -0.2246 -0.3316  0.2324
41656W        W50456   8.278   6.458  20.485 -0.0931  0.0645  0.1958
41657W        W50457  20.644   0.753  11.074 -0.1403 -0.0668  0.0042
41658W        W50458   8.572   3.754  25.044 -0.0765  0.0512 -0.0201
41659W        W50459   3.817   5.759  16.024  0.4211 -0.0522 -0.0096
41660W        W50460  15.174   5.834  20.849  0.3084 -0.0460  0.2307
41661W        W50461  13.105   2.629   2.002  0.1278 -0.1567  0.0620
41662W        W50462  25.424   0.829  25.205  0.3626  0.0378 -0.0914
41663W        W50463  26.987   7.167   8.495 -0.3485 -0.0428  0.0213
41664W        W50464   0.371   3.973  16.990  0.2162 -0.2400  0.4796
41665W        W50465   5.405   2.074   7.932 -0.0069 -0.1913  0.4750
41666W        W50466  28.754   4.601   9.092  0.0002 -0.0374 -0.1050
41667W        W50467   8.121   4.850  21.089 -0.0786  0.0616  0.0353
41668W        W50468   9.384   0.751   6.419  0.1952  0.2863 -0.0179
41669W        W50469  30.206   5.516  23.178  0.0137  0.0692  0.0879
41670W        W50470  24.579   2.716   5.247 -0.1328 -0.0826  0.0735
41671W        W50471  30.963   5.150   4.012 -0.0688 -0.3448  0.3016
41672W        W50472  28.634   4.713  19.323  0.2300 -0.2099  0.1291
41673W        W50473  17.015   5.327   2.451 -0.1580  0.3625  0.0500
41674W        W50474   1.647   3.591  24.416  0.2411 -0.1418 -0.1348
41675W        W50475  28.023   1.293   6.229  0.0347  0.3717 -0.1604
41676W        W50476  26.510   6.846  20.386  0.0167  0.0906  0.0307
41677W        W50477  23.929   1.737   9.639  0.1571 -0.1557 -0.0373
41678W        W50478   1.146   3.496  22.677  0.0145  0.4032 -0.0605
41679W        W50479  20.999   2.156   6.282 -0.1573  0.1147  0.0578
41680W        W50480  14.377   3.396   4.275 -0.0141 -0.2523 -0.0436
41681W        W50481  23.115   0.033  18.655 -0.0013  0.3442  0.0381
41682W        W50482  18.668   0.642   4.223  0.0489 -0.2459  0.1227
41683W        W50483  24.236   5.130   7.477  0.2375 -0.0796  0.0523
41684W        W50484  14.570   3.701  17.304  0.2457 -0.0324 -0.0886
41685W        W50485  21.921   3.496   7.227  0.1268  0.1753  0.1152
41686W        W50486   1.095   5.114  23.364 -0.3843 -0.1322 -0.0228
41687W        W50487  29.701   1.252  21.838  0.0340  0.2243  0.1051
41688W        W50488  11.160   5.513  16.127  0.0163 -0.0405  0.0741
41689W        W50489  27.802   4.477   9.769  0.0630 -0.2872 -0.1323
41690W        W50490  21.323   3.974  17.062 -0.0848 -0.1464  0.1896
41691W        W50491  17.283   1.492   8.369  0.3602 -0.3079 -0.1392
41692W        W50492  29.320   1.073  24.343  0.3476 -0.1873 -0.1362
41693W        W50493  15.823   0.864  21.677  0.3130 -0.0903 -0.1290
41694W        W50494  30.546   1.586   6.526  0.0376  0.2839  0.1446
41695W        W50495  23.982   2.286   2.270 -0.1713 -0.0455  0.1136
41696W        W50496  14.448   7.156  25.434 -0.3238 -0.0830  0.0361
41697W        W50497  22.164   4.147   8.513  0.0578  0.3158 -0.2958
41698W        W50498   5.591   3.157  10.600  0.1096  0.1588  0.0745
41699W        W50499   6.147   4.681   1.881  0.1552  0.0094 -0.3588
41700W        W50500  21.679   1.478  16.051  0.0729  0.1653 -0.0532
41701W        W50501  13.390   6.570  23.018  0.0563  0.1103 -0.2198
41702W        W50502   0.361   1.955  24.690 -0.2321  0.1461 -0.0354
41703W        W50503  22.845   7.517   4.547 -0.1195  0.0183  0.4328
41704W        W50504   2.898   3.906   9.622 -0.0407  0.1781  0.1229
41705W        W50505   7.683   7.336  24.113 -0.0717  0.1165  0.0044
41706W        W50506  26.777   4.009  18.492 -0.1001  0.0129  0.3748
41707W        W50507  13.185   2.658  20.619  0.3019 -0.0665  0.1117
41708W        W50508   2.222   1.762  24.705  0.0791  0.0887 -0.0667
41709W        W50509  17.841   3.759   3.573 -0.0403 -0.0003  0.2227
41710W        W50510  15.605   1.188   6.743  0.3819 -0.2078 -0.1524
41711W        W50511   7.471   1.498   5.880  0.0010 -0.0596  0.1439
41712W        W50512  25.634   6.295   5.900  0.0248  0.0836 -0.1462
41713W        W50513   7.147   4.893  20.995 -0.2489 -0.1150 -0.3717
41714W        W50514  26.177   6.090  17.939 -0.2075  0.0854 -0.2440
41715W        W50515  28.950   1.013   6.476  0.0249 -0.0372  0.0428
41716W        W50516   9.252   0.652   0.040  0.0270 -0.0979 -0.2736
41717W        W50517  15.322   4.911  24.214 -0.1363 -0.1581  0.2762
41718W        W50518  22.305   0.177  20.306 -0.1183  0.0743  0.0668
41719W        W50519  15.864   7.568  19.073  0.2236 -0.1527  0.3903
41720W        W50520   5.558   5.161   0.497  0.1201  0.0784  0.0686
41721W        W50521  12.237   6.991  24.372  0.0037  0.0993 -0.0549
41722W        W50522   9.028   6.353  15.717  0.1645 -0.1085 -0.0025
41723W        W50523  29.352   2.834   9.430  0.4280 -0.2361  0.2167
41724W        W50524   3.924   4.946  16.533  0.0634  0.0686  0.2137
41725W        W50525  20.905   4.304  25.235  0.1761 -0.3098 -0.0188
41726W        W50526   6.902   6.055  15.519 -0.0183 -0.1171  0.0648
41727W        W50527  19.606   2.571   9.701 -0.5174 -0.0091  0.2540
41728W        W50528   9.960   4.205  15.771  0.0003  0.0088  0.0914
41729W        W50529   9.531   4.752   3.184  0.3677  0.1053  0.1002
41730W        W50530  27.534   6.615  20.865  0.3085 -0.1481  0.0985
41731W        W50531   8.899   5.101  16.817 -0.3922  0.1013 -0.2014
41732W        W50532   8.135   5.161   5.590 -0.0805 -0.0272  0.0010
41733W        W50533   4.445   4.963   9.759  0.0168 -0.1089 -0.1537
41734W        W50534  22.928   2.573  16.046  0.1130 -0.2413 -0.1591
41735W        W50535   1.732   2.007  22.669 -0.0190 -0.0121 -0.0965
41736W        W50536  20.254   6.631   8.214  0.1099 -0.3525  0.1253
41737W        W50537  24.375   5.434  20.982 -0.2500 -0.1496  0.1327
41738W        W50538  19.173   1.981  22.121  0.0904 -0.1409 -0.0655
41739W        W50539  12.678   4.811  20.401 -0.2865 -0.1115 -0.0755
41740W        W50540  31.289   1.683   4.244 -0.0569 -0.0620 -0.0737
41741W        W50541   6.928   2.178   2.917  0.0586 -0.0868 -0.1280
41742W        W50542  10.022   2.412   6.463  0.0843 -0.0934  0.0639
41743W        W50543  11.725   2.606  26.018 -0.1792  0.3025 -0.1638
41744W        W50544   2.849   0.833   3.156 -0.0817 -0.0766  0.1694
41745W        W50545  22.213   1.784   3.766  0.2552 -0.0337  0.2163
41746W        W50546   3.138   4.319   9.841 -0.1123 -0.1944  0.2769
41747W        W50547  20.655   3.227   5.433 -0.0399 -0.0293 -0.2639
41748W        W50548  26.062   7.830   2.117 -0.0388  0.1804 -0.0699
41749W        W50549   3.006   4.994  21.673  0.1393  0.2652  0.0493
41750W        W50550  24.247   2.757  11.367 -0.0907 -0.1704  0.0347
41751W        W50551  24.535   2.721   0.345  0.0530  0.0551  0.0730
41752W        W50552  10.887   0.104   7.123  0.0348  0.0540 -0.2037
41753W        W50553  30.330   2.951  22.221 -0.0939  0.1921 -0.0426
41754W        W50554   9.710   4.198   0.869  0.2278 -0.0965  0.1670
41755W        W50555  23.005   0.851   5.601 -0.0228 -0.1724 -0.2915
41756W        W50556  25.752   5.992   0.613 -0.0077 -0.0746 -0.1845
41757W        W50557  12.008   3.635   3.666  0.0861 -0.0178 -0.0228
41758W        W50558   4.621   3.033   1.631  0.0922  0.2348  0.0338
41759W        W50559  15.887   0.396   5.790  0.0461 -0.0647 -0.2340
41760W        W50560  25.569   5.162   2.240  0.0001  0.0224 -0.1216
41761W        W50561   7.765   4.139   9.525 -0.3465 -0.1304  0.0086
41762W        W50562  25.082   1.481  10.257  0.0475  0.3120  0.3263
41763W        W50563  18.546   4.202   2.992  0.2942 -0.1990 -0.1993
41764W        W50564   2.733   7.525  15.533 -0.0100  0.0532  0.3039
41765W        W50565   3.833   0.244   6.170 -0.0464  0.1935  0.0995
41766W        W50566  16.968   5.633   3.566 -0.1523  0.0388  0.1257
41767W        W50567   8.880   4.410  18.637 -0.0106  0.0191  0.1299
41768W        W50568  19.471   2.194  18.889 -0.3616 -0.3085  0.0495
41769W        W50569  14.602   6.852   6.549 -0.0972 -0.2893 -0.1202
41770W        W50570  13.163   5.696  19.262 -0.0589  0.1969 -0.0165
41771W        W50571  19.599   6.664  18.173 -0.2554 -0.2441  0.1102
41772W        W50572   6.990   0.034   9.403  0.0165 -0.1846 -0.1593
41773W        W50573  20.616   4.493   3.520 -0.3495  0.2277  0.0539
41774W        W50574  23.398   1.526  17.986  0.0416 -0.6501 -0.0295
41775W        W50575  14.531   1.398   6.786 -0.0681 -0.0165  0.2239
41776W        W50576  27.938   7.122   5.444  0.0419  0.2079 -0.0009
41777W        W50577  30.242   0.983   0.905 -0.0002  0.3133  0.0001
41778W        W50578  26.701   3.088  20.078  0.0153 -0.1909  0.0516
41779W        W50579  19.610   6.043   7.018 -0.3351  0.0990 -0.0563
41780W        W50580   6.680   7.263  19.310  0.2118 -0.1339 -0.4223
41781W        W50581  17.634   3.283  25.569 -0.2450  0.0689  0.0498
41782W        W50582  19.738   7.171  11.412  0.0247 -0.0558 -0.0350
41783W        W50583  20.112   3.916  20.335  0.0315 -0.3177 -0.2031
41784W        W50584   6.735   0.212  17.556 -0.1239 -0.0868  0.0423
41785W        W50585  25.750   6.921   2.248  0.2456  0.2927  0.0895
41786W        W50586   8.749   0.763  18.620  0.2123 -0.1192 -0.1822
41787W        W50587  25.663   5.603   2.032  0.0966 -0.4544 -0.0166
41788W        W50588  12.426   1.470  20.894 -0.2925 -0.1580 -0.0481
41789W        W50589   0.837   2.513  21.981  0.0251 -0.0177  0.1273
41790W        W50590  24.918   3.180  17.943 -0.0837 -0.1488 -0.3352
41791W        W50591  10.786   3.081   7.452  0.1008 -0.0355  0.0087
41792W        W50592   9.503   7.847  22.127 -0.0892  0.0210  0.0825
41793W        W50593  15.993   0.456   9.480  0.1292 -0.0053  0.2291
41794W        W50594  29.184   6.202  14.832  0.0813  0.0372 -0.0837
41795W        W50595  31.069   0.374   5.665 -0.1156 -0.1060 -0.1966
41796W        W50596  15.435   6.833  19.795 -0.1204 -0.0802  0.2900
41797W        W50597  22.470   0.000   0.820  0.0594  0.1825  0.1575
41798W        W50598  21.916   4.092   2.882  0.1845 -0.1114 -0.1397
41799W        W50599  22.285   7.466  25.201 -0.1407 -0.0201 -0.2013
41800W        W50600  22.876   1.700   7.460  0.1009 -0.1538 -0.1211
41801W        W50601  29.437   5.987   4.160  0.2202 -0.0117 -0.3415
41802W        W50602  26.066   6.525   2.380  0.1137 -0.1168 -0.3987
41803W        W50603   5.552   0.074  18.772 -0.1571 -0.1432  0.0928
41804W        W50604  12.073   0.287  24.319  0.2538  0.2334 -0.0344
41805W        W50605  18.536   6.249   2.533 -0.0513 -0.2431 -0.3015
41806W        W50606  22.665   6.931  25.481 -0.1209  0.3072  0.1738
41807W        W50607   6.557   1.319  20.486 -0.1583 -0.1375 -0.1189
41808W        W50608  11.854   1.053  19.259 -0.1940  0.1293 -0.1393
41809W        W50609  29.095   0.190   8.761  0.0673 -0.2923  0.1241
41810W        W50610  16.158   4.795   7.597  0.1790 -0.0776 -0.0992
41811W        W50611  27.558   1.562   7.259  0.0896  0.1024  0.0935
41812W        W50612  13.018   2.077  19.168 -0.0548  0.0489 -0.0810
41813W        W50613  17.600   3.785  10.642 -0.0215  0.4130 -0.2228
41814W        W50614  11.919   2.749  24.949 -0.2273 -0.0618 -0.1602
41815W        W50615   6.886   1.554  10.214  0.0399  0.0496  0.0417
41816W        W50616  22.764   2.503  20.984 -0.0583 -0.0807  0.3853
41817W        W50617  21.776   6.750  16.268 -0.1079 -0.2322 -0.2609
41818W        W50618  14.633   6.266  16.314  0.3589  0.0553  0.1036
41819W        W50619  11.537   2.033  21.874 -0.2592 -0.0524 -0.0735
41820W        W50620  26.827   0.278   7.551  0.1228  0.1831  0.2056
41821W        W50621  27.315   5.942   5.237  0.4324 -0.1210  0.1326
41822W        W50622   8.028   6.580   6.523 -0.2485  0.3929 -0.1713
41823W        W50623  11.109   1.838   9.025 -0.2014  0.3475  0.0885
41824W        W50624   1.021   4.763  20.527 -0.2434  0.0783  0.0938
41825W        W50625  18.893   4.983   2.330 -0.0433  0.0636 -0.1448
41826W        W50626  16.760   4.406   9.082  0.2845 -0.0059 -0.0571
41827W        W50627   2.586   4.358   6.310 -0.0776  0.1570  0.1313
41828W        W50628  25.848   0.303  16.844  0.0400 -0.0069 -0.0345
41829W        W50629  11.640   3.258  21.076  0.1427 -0.1256 -0.0962
41830W        W50630  19.986   2.052  17.645  0.1225  0.1045 -0.2692
41831W        W50631  14.976   1.452  10.469  0.1020 -0.3731 -0.2706
41832W        W50632  29.010   2.076  19.926 -0.1122  0.0198 -0.2246
41833W        W50633   5.282   2.579  20.907  0.2987 -0.1614 -0.1877
41834W        W50634   4.319   6.450   3.786 -0.2988  0.1562 -0.2341
41835W        W50635  30.075   7.012   0.815 -0.1419  0.0607  0.4061
41836W        W50636  27.589   6.708   1.239  0.0656 -0.0588 -0.0656
41837W        W50637  12.945   5.144   7.595 -0.1606  0.2340 -0.0331
41838W        W50638  14.483   0.832   4.232 -0.1183  0.1491  0.2003
41839W        W50639  31.440   3.165  22.373  0.0307 -0.1692 -0.4463
41840W        W50640   0.042   2.205  22.593  0.0634  0.2192 -0.4717
41841W        W50641  24.743   6.244  15.800  0.1962  0.1712  0.0539
41842W        W50642  14.701   0.975   1.277  0.0506 -0.2224 -0.0195
41843W        W50643  24.503   5.442   4.227 -0.0639 -0.0219  0.0616
41844W        W50644  21.894   3.526  20.677  0.1227  0.0842 -0.3194
41845W        W50645  28.595   0.187  23.490  0.0211  0.3242  0.0315
41846W        W50646   9.133   4.822   2.873 -0.0739 -0.5628  0.0451
41847W        W50647  18.377   6.154  26.078 -0.0777 -0.2975 -0.2266
41848W        W50648   0.458   2.017  17.626 -0.0553 -0.0025  0.3001
41849W        W50649   6.498   7.597  18.831 -0.0358 -0.0387 -0.0496
41850W        W50650  26.005   7.664  19.988  0.0928 -0.2366 -0.1361
41851W        W50651  24.086   4.918  25.371  0.2808 -0.1726 -0.0081
41852W        W50652   0.153   4.817   0.221  0.1537  0.3257  0.1909
41853W        W50653  14.318   6.870   4.928  0.1380  0.0881  0.4029
41854W        W50654  19.730   6.529  20.652 -0.0676  0.0925 -0.0318
41855W        W50655  12.882   4.139   0.473  0.1701  0.0984 -0.1029
41856W        W50656   2.845   0.758   9.565  0.0609  0.4351 -0.0207
41857W        W50657  17.746   5.893  22.639 -0.1055 -0.0626 -0.0851
41858W        W50658  29.529   1.268   0.037 -0.1360 -0.0089  0.2175
41859W        W50659  27.412   0.228   7.444  0.1034 -0.1044 -0.2547
41860W        W50660   9.090   6.353   9.289 -0.1165  0.0772  0.1617
41861W        W50661  21.107   0.001  17.755 -0.1554 -0.0504  0.1667
41862W        W50662   7.808   0.704  19.219  0.0254 -0.4827 -0.1355
41863W        W50663  16.379   6.726  19.284  0.2209 -0.1186  0.1141
41864W        W50664  18.998   2.256  19.149 -0.2128 -0.0447  0.3773
41865W        W50665   4.383   4.300  16.191 -0.1114  0.4183 -0.1913
41866W        W50666   9.188   0.468  15.487  0.0808 -0.3559  0.1108
41867W        W50667   8.834   7.736   0.257  0.3554  0.0284  0.1552
41868W        W50668  28.522   2.871   5.496  0.0290  0.0775  0.1523
41869W        W50669  27.375   1.170  16.046  0.1878  0.0776  0.2625
41870W        W50670  24.056   4.765   6.474  0.0528 -0.1429 -0.1490
41871W        W50671   5.548   2.194   6.410  0.2372  0.0432 -0.0201
41872W        W50672  10.708   4.774   5.697  0.0765 -0.0912 -0.1241
41873W        W50673  24.848   7.274  21.295 -0.0648 -0.0394 -0.3285
41874W        W50674  25.958   4.252   7.575  0.0079 -0.3511  0.1835
41875W        W50675  25.618   2.762   8.423 -0.5157 -0.1724 -0.0649
41876W        W50676  28.079   0.363  19.305  0.1106 -0.0585  0.3028
41877W        W50677   8.051   3.483   1.175  0.0693 -0.0414 -0.0841
41878W        W50678  15.963   5.657   8.001 -0.0083  0.0828 -0.2083
41879W        W50679  29.765   7.043   1.488  0.1502 -0.0803  0.1195
41880W        W50680  15.857   0.816  20.208  0.0544  0.1334  0.1435
41881W        W50681   5.771   6.856  15.525 -0.2619  0.3198 -0.0740
41882W        W50682   4.508   1.614  17.156  0.0074  0.0041  0.0239
41883W        W50683  24.346   2.272   5.135 -0.0375 -0.3155  0.0163
41884W        W50684  22.872   6.244  25.601 -0.0857 -0.0534 -0.1115
41885W        W50685  16.719   5.081  22.483 -0.0056  0.2016  0.0920
41886W        W50686   9.199   3.011  16.182  0.1153 -0.1054 -0.1984
41887W        W50687   0.680   2.695   0.167  0.1110  0.3685  0.0681
41888W        W50688  29.724   5.202  25.336 -0.1722  0.0083 -0.0608
41889W        W50689   9.045   4.588  24.553 -0.0354 -0.2984 -0.0933
41890W        W50690   0.000   1.175   0.477 -0.0655 -0.1088  0.1544
41891W        W50691   1.956   0.768  24.971  0.0537 -0.0084 -0.0515
41892W        W50692  15.869   3.964   7.937 -0.3663 -0.1234 -0.0372
41893W        W50693   7.749   0.387  25.086  0.0821  0.0992  0.1169
41894W        W50694   2.607   6.993   2.648 -0.0937 -0.1027  0.1223
41895W        W50695  27.183   1.304   7.463  0.1522  0.0933 -0.0243
41896W        W50696  21.379   5.653  20.336 -0.2611 -0.0458 -0.0239
41897W        W50697  10.619   3.361  18.925  0.1328  0.1682 -0.2988
41898W        W50698  29.772   0.981  24.177 -0.0152 -0.1606  0.1625
41899W        W50699  28.737   5.703   0.455 -0.5122 -0.3042  0.0061
41900W        W50700  30.144   4.901   7.154 -0.0626 -0.2728  0.2853
41901W        W50701  18.821   4.797   4.296 -0.3330  0.0632  0.0809
41902W        W50702  25.205   3.047  24.643  0.0171 -0.0648 -0.1144
41903W        W50703   8.403   4.340   0.943  0.0641 -0.1002 -0.1738
41904W        W50704   1.607   5.716  19.256 -0.0458  0.3199  0.0948
41905W        W50705  14.868   7.466  18.743  0.2644 -0.0378 -0.2089
41906W        W50706  19.671   2.231   8.130 -0.1425  0.0552  0.1467
41907W        W50707  19.237   4.833  10.850 -0.2242 -0.1443 -0.2132
41908W        W50708  11.595   0.472   7.357 -0.1243  0.0339 -0.1790
41909W        W50709   8.491   3.347  16.733  0.1617  0.1930  0.1134
41910W        W50710  18.480   3.455  24.229 -0.3830 -0.0265 -0.0294
41911W        W50711  23.691   4.599  22.513  0.1066 -0.0920  0.2225
41912W        W50712  16.455   3.498   6.781 -0.1742  0.0523  0.0958
41913W        W50713  25.278   6.629   5.711  0.0123  0.0689  0.3284
41914W        W50714   8.991   1.594   5.417 -0.0133 -0.2205 -0.1232
41915W        W50715  29.857   2.024   4.235 -0.0865 -0.1255  0.2062
41916W        W50716   6.796   3.345  20.665 -0.0136  0.3446  0.3068
41917W        W50717  18.786   2.110   1.452 -0.1391 -0.1221 -0.0972
41918W        W50718   3.648   6.161  22.411 -0.2476 -0.3096 -0.2609
41919W        W50719  20.611   7.360  18.253 -0.0192  0.1258 -0.2380
41920W        W50720   3.509   4.662  16.291 -0.3188  0.1327  0.1103
41921W        W50721  30.561   4.074   5.998  0.1052  0.0971  0.0611
41922W        W50722  21.743   7.141  23.579  0.0155 -0.0727 -0.0019
41923W        W50723  18.815   2.181  25.691  0.1381 -0.0875 -0.3335
41924W        W50724  20.528   4.221  10.786 -0.0232  0.1146 -0.1419
41925W        W50725   4.400   0.993  15.235 -0.1302  0.0548  0.1500
41926W        W50726  18.475   2.512  10.429 -0.0003  0.0474 -0.3017
41927W        W50727  14.058   3.216  18.409  0.0637 -0.0997 -0.0711
41928W        W50728  26.707   2.978   9.320  0.3604  0.0247  0.3842
41929W        W50729  18.874   3.307  21.667  0.0258 -0.2304  0.0373
41930W        W50730  23.672   7.217  20.775 -0.0664 -0.2365  0.0649
41931W        W50731  21.340   6.024  23.052 -0.3361 -0.0437  0.0413
41932W        W50732  13.172   4.120   8.397 -0.1317 -0.0149 -0.0120
41933W        W50733  10.886   3.830  25.457 -0.0951  0.2679 -0.1724
41934W        W50734   0.409   1.076   0.143 -0.0448 -0.0033 -0.2452
41935W        W50735  12.161   2.583  24.455  0.3216  0.0655 -0.0420
41936W        W50736   6.392   7.615   4.229  0.0432  0.1148  0.2534
41937W        W50737  18.025   5.267  11.044  0.0656 -0.1460 -0.1852
41938W        W50738  18.891   7.538  20.524 -0.0286  0.2420 -0.2048
41939W        W50739   2.857   1.357  14.879 -0.0917 -0.0958 -0.2984
41940W        W50740  30.756   5.753   8.750  0.0213 -0.0616  0.2266
41941W        W50741  24.717   6.985  16.338  0.1850  0.1178 -0.2292
41942W        W50742   9.007   6.466  24.433 -0.2275  0.0070  0.0824
41943W        W50743  17.019   1.867  22.642 -0.2529  0.2682 -0.0150
41944W        W50744  11.636   1.560   2.040 -0.0928 -0.1794 -0.1476
41945W        W50745  22.360   2.555  18.979 -0.0343 -0.0084 -0.1679
41946W        W50746   0.259   4.109  24.664 -0.1544 -0.0080  0.0511
41947W        W50747   5.862   4.868  23.829  0.0241  0.1684  0.2171
41948W        W50748  26.133   5.309   6.103 -0.1665  0.2492  0.1057
41949W        W50749  11.227   1.569   9.480  0.3212  0.0190  0.5349
41950W        W50750   1.708   6.250   7.829 -0.4185  0.1588  0.3526
41951W        W50751   5.760   1.391   4.502 -0.0490  0.1333  0.0818
41952W        W50752  27.029   5.678  16.484 -0.1507  0.0592 -0.1013
41953W        W50753   3.421   2.105  25.809 -0.1033 -0.1339 -0.0744
41954W        W50754   2.420   5.731  15.392  0.2318  0.0702  0.0474
41955W        W50755  10.674   3.773  20.292  0.2943  0.1740  0.0883
41956W        W50756  13.798   3.951  17.405  0.3017 -0.0598  0.2601
41957W        W50757  11.472   5.322  24.210 -0.0148  0.1061  0.3216
41958W        W50758   5.450   0.660   8.109 -0.0488 -0.0138 -0.0882
41959W        W50759  22.102   4.677  16.964 -0.1168 -0.0473 -0.0218
41960W        W50760  24.703   0.585   8.503  0.1352 -0.0573  0.1477
41961W        W50761   8.505   3.060  23.411 -0.0080  0.0229  0.0146
41962W        W50762  10.846   2.028  10.644  0.2973  0.2304  0.0816
41963W        W50763   9.540   7.740   6.651 -0.4938  0.2971  0.1526
41964W        W50764  12.831   6.817  24.520 -0.1576  0.1179 -0.1494
41965W        W50765  14.125   3.268  17.219 -0.0389  0.1652  0.1267
41966W        W50766   2.203   4.123   8.641  0.0003  0.2212 -0.2252
41967W        W50767  22.910   4.326  19.620  0.0475 -0.2237  0.3544
41968W        W50768   2.746   2.201   1.892  0.3067  0.1297 -0.1858
41969W        W50769  29.840   0.780  23.346 -0.2173  0.2503  0.0948
41970W        W50770  11.523   1.943   0.991 -0.1568 -0.0427 -0.2315
41971W        W50771   2.165   4.683  19.756 -0.0002  0.2753 -0.3077
41972W        W50772  12.215   1.397   1.370 -0.1789  0.4195 -0.0022
41973W        W50773  25.565   5.029  20.277 -0.1203 -0.0089  0.1516
41974W        W50774   9.401   5.270   2.842  0.2815  0.0390  0.1305
41975W        W50775  13.942   0.076  25.636 -0.0461  0.1969 -0.3487
41976W        W50776  18.875   3.892  20.632  0.1400  0.0094 -0.0447
41977W        W50777   6.888   0.542   9.480 -0.0159 -0.1231 -0.0080
41978W        W50778  20.382   3.616  10.117 -0.1604 -0.1405  0.0944
41979W        W50779   6.117   0.816  20.352  0.1273 -0.0829  0.1063
41980W        W50780  24.706   7.159   1.007  0.1546 -0.1583 -0.4704
41981W        W50781  24.053   2.835  21.285 -0.0707  0.0886  0.0448
41982W        W50782  11.512   2.710  22.694 -0.0268  0.0453 -0.1071
41983W        W50783  10.323   2.293  16.747 -0.0265 -0.2327  0.3443
41984W        W50784   7.225   5.005   8.468 -0.0834 -0.0740 -0.4908
41985W        W50785   7.095   2.789   0.643 -0.1474  0.2367  0.1912
41986W        W50786  10.879   3.195   1.814 -0.0681  0.0265 -0.2323
41987W        W50787  30.361   3.654  24.357 -0.0837 -0.1972  0.2709
41988W        W50788  31.316   3.640  21.527  0.0079 -0.1456 -0.0740
41989W        W50789  14.608   6.479  19.786  0.3367  0.1361  0.2962
41990W        W50790  23.558   7.517   5.005 -0.1711  0.2578  0.0318
41991W        W50791  10.424   6.273   1.665  0.1872 -0.0461 -0.2275
41992W        W50792  17.014   5.662   0.630 -0.1578  0.0063 -0.1086
41993W        W50793  19.751   5.184   0.555 -0.0097 -0.0734 -0.1295
41994W        W50794  13.125   7.791  23.766 -0.1768 -0.1274  0.0930
41995W        W50795  28.507   0.529  21.927  0.2754 -0.2922 -0.1730
41996W        W50796  22.234   4.091  10.343 -0.0058 -0.1050 -0.0766
41997W        W50797  25.409   3.694   3.038  0.2082 -0.1370 -0.1312
41998W        W50798  30.220   3.080   2.410  0.1682  0.2919  0.1891
41999W        W50799  22.157   2.257  17.179 -0.0735  0.0759  0.0411
42000W        W50800  24.651   1.665  11.268 -0.3057 -0.0203  0.0147
42001W        W50801  11.595   4.245  24.629  0.0030  0.3373  0.0023
42002W        W50802  31.312   1.494   8.710  0.0334  0.3429  0.0968
42003W        W50803   4.610   0.304  25.757  0.0666  0.1943  0.0658
42004W        W50804  29.666   3.102  15.548 -0.1269 -0.1769 -0.1300
42005W        W50805  19.046   2.816  24.880 -0.0980  0.1783 -0.1215
42006W        W50806   9.485   4.965  22.253 -0.0956 -0.2622 -0.2042
42007W        W50807  14.552   2.640  24.842  0.1241  0.1679  0.0282
42008W        W50808  14.214   4.749   1.539  0.0097  0.1403  0.1421
42009W        W50809  19.916   0.333   8.020  0.3782  0.0098 -0.0750
42010W        W50810  13.997   3.571   7.330  0.2889  0.0910 -0.1038
42011W        W50811  15.037   4.455  19.210 -0.0999 -0.4777  0.0881
42012W        W50812  11.840   0.662  16.475 -0.0237  0.1645  0.2134
42013W        W50813   1.188   4.206  16.472 -0.0394 -0.2499  0.0289
42014W        W50814  29.107   1.283  17.527  0.0080  0.1130  0.1104
42015W        W50815  30.387   3.255  25.419 -0.1003 -0.1856  0.0802
42016W        W50816  30.714   2.700   2.507  0.1886  0.4190  0.0971
42017W        W50817  19.922   7.510  20.680  0.2674  0.2472 -0.4139
42018W        W50818   0.623   6.045   0.896  0.2782 -0.1267 -0.0544
42019W        W50819  19.753   1.610  17.573  0.2325  0.2517  0.1700
42020W        W50820  28.438   4.885   6.271 -0.0560  0.1401 -0.0524
42021W        W50821  23.647   2.418  25.153  0.1006 -0.0553 -0.1911
42022W        W50822  26.292   4.625  20.203 -0.0144  0.0427  0.1006
42023W        W50823  28.125   0.856   7.601 -0.0358  0.1271 -0.1455
42024W        W50824  13.977   0.602  17.965  0.0575 -0.0128  0.1526
42025W        W50825  28.562   2.009  17.923  0.0920 -0.0566  0.4170
42026W        W50826  26.392   5.747  21.245 -0.0296 -0.0507 -0.0543
42027W        W50827  25.459   4.517   5.208 -0.0836 -0.1024  0.0112
42028W        W50828   2.659   1.319  15.743  0.3947 -0.2916  0.2654
42029W        W50829   0.557   3.167  19.593  0.1197 -0.2690 -0.3340
42030W        W50830   0.828   1.536  25.070 -0.1098 -0.0502  0.1175
42031W        W50831  22.332   3.507  20.005 -0.2243 -0.2782  0.0752
42032W        W50832  27.658   5.538  21.018 -0.2026 -0.1828 -0.0543
42033W        W50833  17.739   6.873  23.851  0.2705  0.2662  0.0179
42034W        W50834   3.956   2.503  15.945 -0.2804  0.0939  0.3808
42035W        W50835  23.907   6.690  18.584 -0.1580  0.0931  0.1637
42036W        W50836  14.767   2.218   0.528 -0.0652 -0.2323 -0.1567
42037W        W50837   4.259   2.652   3.352 -0.1003  0.1229 -0.0938
42038W        W50838  25.600   6.111  21.246  0.0420 -0.1742 -0.4003
42039W        W50839  13.745   6.595   7.505  0.0041 -0.3870 -0.3609
42040W        W50840  19.516   5.192  23.003  0.1264  0.0963  0.1243
42041W        W50841   6.162   2.535  20.450  0.3884  0.0872  0.1502
42042W        W50842   8.494   0.625  10.925 -0.2642  0.0282  0.0623
42043W        W50843  12.658   0.168   4.266 -0.3990  0.3883 -0.1582
42044W        W50844  12.328   6.125  15.691  0.0800  0.0833  0.0515
42045W        W50845  13.219   3.921   3.184 -0.1409  0.1616  0.0779
42046W        W50846  18.601   4.540  15.459  0.1932 -0.1016  0.0480
42047W        W50847   0.199   3.866   9.033 -0.3061 -0.1929  0.0219
42048W        W50848  11.705   0.548  17.374  0.1302  0.0097  0.2628
42049W        W50849  19.010   5.721  16.129 -0.0470  0.0777  0.1027
42050W        W50850  11.993   7.296  20.588 -0.0800  0.1247 -0.4642
42051W        W50851   4.153   5.794  16.956  0.2445  0.0315 -0.1544
42052W        W50852   2.983   3.269  18.688  0.1141 -0.1369 -0.0523
42053W        W50853  16.472   7.012   0.037 -0.0258 -0.2048  0.1725
42054W        W50854  20.826   5.981  19.733  0.2300 -0.2247  0.2291
42055W        W50855  13.436   0.832  24.152  0.2217 -0.2360  0.3272
42056W        W50856  13.081   5.311  21.964 -0.1865 -0.1547  0.1795
42057W        W50857  29.585   7.436  20.935  0.2782  0.2666 -0.0400
42058W        W50858  19.680   5.831  20.407 -0.1327  0.0599  0.4368
42059W        W50859  25.932   6.547   3.815  0.0918 -0.1233 -0.0060
42060W        W50860  11.331   7.381  17.118 -0.1531  0.0933  0.1510
42061W        W50861  28.755   4.697  18.800  0.2357 -0.1072  0.3485
42062W        W50862  17.531   6.912  15.799  0.3124 -0.1725  0.2114
42063W        W50863  29.170   5.580  22.982 -0.0956 -0.3105  0.0822
42064W        W50864   7.537   2.799  17.215 -0.1602  0.2078  0.3164
42065W        W50865  12.560   0.043   3.268 -0.2044 -0.2553 -0.0969
42066W        W50866  16.748   6.764  23.945 -0.1149 -0.2098 -0.1620
42067W        W50867  11.561   4.193   4.273  0.1284  0.2092 -0.2647
42068W        W50868  17.223   0.531  19.952  0.0037 -0.0773  0.1225
42069W        W50869   2.716   0.985   5.481 -0.2141  0.0958  0.2906
42070W        W50870  28.120   3.663   3.687  0.0763  0.0694 -0.0820
42071W        W50871  28.928   7.659  16.836 -0.1362  0.3732  0.1474
42072W        W50872   4.928   3.874  22.040 -0.0777 -0.1546  0.0598
42073W        W50873  19.822   1.695   8.128  0.3504 -0.0825 -0.2419
42074W        W50874  22.722   7.064  19.217 -0.1878 -0.1583 -0.1674
42075W        W50875  27.766   5.356  15.233 -0.0051  0.0762 -0.2540
42076W        W50876  22.970   7.253   6.518 -0.1289 -0.0666 -0.1946
42077W        W50877  31.028   3.177  17.922 -0.0124 -0.2086  0.1925
42078W        W50878  25.476   3.921   1.594 -0.0130 -0.2412 -0.2559
42079W        W50879   7.554   7.005  19.059  0.0165 -0.0836 -0.2558
42080W        W50880   7.085   2.250  19.791 -0.1731 -0.2461  0.0490
42081W        W50881  12.315   2.121   2.012  0.0872 -0.1874  0.2320
42082W        W50882  15.760   0.684   5.252  0.2807 -0.2378  0.1547
42083W        W50883  25.229   6.718  14.913  0.0118  0.0946  0.2432
42084W        W50884   6.810   3.318   3.678  0.1111  0.1719 -0.0631
42085W        W50885  13.395   0.823  17.947  0.0672 -0.0341  0.2872
42086W        W50886  11.553   5.976   6.798  0.0173  0.0569  0.2433
42087W        W50887  19.060   6.193   4.725  0.2074  0.1639  0.2659
42088W        W50888  16.620   7.679   3.441 -0.1742  0.1549 -0.0068
42089W        W50889  22.130   1.780  20.018 -0.0042  0.0827 -0.1097
42090W        W50890  17.749   6.082  17.020  0.2267 -0.1855  0.1035
42091W        W50891   0.200   5.631   8.593 -0.2243 -0.2317  0.2492
42092W        W50892   9.567   3.730   6.437 -0.5220  0.2161 -0.2231
42093W        W50893   8.661   7.858  20.597  0.1739  0.1424  0.3106
42094W        W50894  18.224   0.786  17.740 -0.2258  0.1774  0.1167
42095W        W50895  17.275   5.658   2.729 -0.0320  0.0197  0.0097
42096W        W50896  11.620   3.898  17.561  0.0673  0.0063  0.0571
42097W        W50897  18.379   7.059  22.826  0.1933  0.1669  0.0504
42098W        W50898  27.831   2.265  23.022  0.1444  0.1900 -0.2344
42099W        W50899  18.453   7.654  22.169 -0.0352  0.2215 -0.1950
42100W        W50900   0.772   1.803  17.954 -0.1044 -0.1799  0.0229
42101W        W50901   3.476   1.045  22.398  0.3269  0.1433 -0.0467
42102W        W50902   7.474   6.499  25.329 -0.0121 -0.0527 -0.0622
42103W        W50903   7.431   2.879  24.847  0.2480  0.4712  0.4076
42104W        W50904  27.316   2.406   8.995  0.1281 -0.1679  0.0976
42105W        W50905  27.434   6.815   7.100 -0.1100  0.2520  0.1362
42106W        W50906   1.692   1.976  20.990 -0.4867  0.0276 -0.2315
42107W        W50907  29.122   2.969  23.771  0.0130 -0.2139  0.0321
42108W        W50908   6.178   2.253   0.509 -0.2630 -0.0576 -0.0977
42109W        W50909   1.898   0.133   2.647  0.1581 -0.0112  0.0923
42110W        W50910  15.269   1.141  17.203  0.2188 -0.4429 -0.1179
42111W        W50911   9.079   2.993   2.635 -0.1700 -0.1572  0.1113
42112W        W50912  20.082   7.029   5.295 -0.0210 -0.1891 -0.2198
42113W        W50913  12.837   6.474  19.409 -0.1067 -0.1932 -0.0661
42114W        W50914  26.084   1.278  18.922  0.1724 -0.0121 -0.1067
42115W        W50915  25.569   6.912  22.354  0.0163 -0.2857  0.2535
42116W        W50916  18.309   0.583  25.792  0.3974  0.0026 -0.0999
42117W        W50917  20.518   2.111  10.584 -0.0480  0.1504 -0.1188
42118W        W50918  13.947   3.581  22.525 -0.0795 -0.1470  0.0376
42119W        W50919  16.221   0.916  19.845 -0.1252  0.1578 -0.1091
42120W        W50920  18.064   7.319   3.086  0.0917 -0.0352  0.0457
42121W        W50921   9.863   2.499  18.777 -0.1713 -0.0312 -0.1090
42122W        W50922   0.833   2.871   8.458 -0.1010  0.0085 -0.0944
42123W        W50923  13.783   3.893   0.944 -0.2226 -0.3889  0.0424
42124W        W50924   8.607   2.083   0.158 -0.0128 -0.1342  0.1232
42125W        W50925  12.385   4.042   3.682 -0.1040 -0.0435  0.1876
42126W        W50926   7.867   2.378   8.634 -0.2005 -0.1552  0.0848
42127W        W50927   1.664   1.900   6.690  0.4074 -0.1707 -0.0137
42128W        W50928  27.521   1.713   3.226 -0.1406 -0.3050 -0.2159
42129W        W50929   3.049   4.677  20.370  0.1183 -0.0476 -0.1395
42130W        W50930   1.486   7.313  24.444  0.1138 -0.1515  0.0168
42131W        W50931  21.818   1.435  20.820 -0.0678  0.2847 -0.1570
42132W        W50932  29.726   5.941  21.686  0.1936 -0.2407 -0.1613
42133W        W50933   8.864   2.838   4.649 -0.0142  0.2239 -0.0625
42134W        W50934   8.238   2.330  19.997 -0.3814  0.2137  0.1774
42135W        W50935  11.199   6.475   4.195 -0.0363 -0.3421  0.1313
42136W        W50936  11.763   2.331  24.759  0.1591 -0.1137  0.1133
42137W        W50937  25.161   5.858  25.316  0.4781  0.0278 -0.2123
42138W        W50938   4.550   1.609  18.465  0.2230  0.1641  0.0772
42139W        W50939   5.460   7.433  23.657 -0.2646  0.2385 -0.0040
42140W        W50940  28.481   3.085   1.415 -0.0379 -0.2170 -0.0301
42141W        W50941  13.211   2.874   8.065 -0.1035 -0.1033  0.0305
42142W        W50942  29.710   1.994  24.519  0.1064 -0.1187  0.5896
42143W        W50943  20.640   0.043  20.016 -0.3324 -0.2482 -0.0407
42144W        W50944  19.653   3.470  10.512  0.2011  0.1635  0.0831
42145W        W50945   5.831   3.530  10.325 -0.1954  0.2664  0.0954
42146W        W50946   7.544   1.031   1.190 -0.2176  0.1059 -0.1212
42147W        W50947  15.778   1.336   1.086 -0.0711 -0.2794 -0.2962
42148W        W50948   4.301   1.743   0.421 -0.0634  0.0382  0.3576
42149W        W50949   2.311   7.537  21.814  0.1717  0.1414 -0.0337
42150W        W50950  20.135   7.702  10.384 -0.0664 -0.0202  0.0234
42151W        W50951  12.403   6.496  10.339 -0.4127  0.0636 -0.0425
42152W        W50952  21.584   0.605  25.684 -0.0412  0.0927 -0.0451
42153W        W50953  11.260   5.774   5.905  0.3017 -0.0429 -0.1715
42154W        W50954   3.862   5.989  21.325 -0.2959 -0.0648 -0.1212
42155W        W50955   5.795   2.244   5.381  0.0821 -0.2200  0.2007
42156W        W50956   6.655   5.463   4.360 -0.2155  0.2726  0.2999
42157W        W50957   2.192   0.055  21.402 -0.2289 -0.1614 -0.4033
42158W        W50958  17.687   0.337  23.159  0.1595 -0.1753 -0.0297
42159W        W50959  11.430   5.454   6.767  0.0039 -0.0579  0.3222
42160W        W50960  24.158   2.394  25.082  0.0567 -0.0384  0.2236
42161W        W50961  14.701   3.454   8.680  0.1410  0.0985 -0.0318
42162W        W50962  12.282   5.519  18.125  0.0120 -0.1018 -0.0069
42163W        W50963   6.970   6.368  20.596 -0.1255 -0.1512  0.4091
42164W        W50964   1.752   3.471  16.214 -0.0426  0.0864 -0.0763
42165W        W50965   6.464   4.668  19.417  0.1047  0.1313  0.2788
42166W        W50966  18.186   3.219   3.729 -0.0833 -0.0410  0.1792
42167W        W50967  10.492   4.153   6.668 -0.1499 -0.0647  0.0031
42168W        W50968  12.205   4.326   3.246  0.1404  0.0764  0.0401
42169W        W50969  25.638   4.537  16.267  0.1378 -0.2672 -0.0369
42170W        W50970  22.496   4.391   3.751  0.0416 -0.4539 -0.0323
42171W        W50971  25.337   0.293  19.830 -0.0197  0.0880 -0.0930
42172W        W50972   3.201   3.236   8.180  0.0553  0.1051  0.3548
42173W        W50973  18.478   0.076   7.972 -0.1827 -0.1655  0.1994
42174W        W50974   9.941   7.528   5.780  0.0702 -0.1736  0.2821
42175W        W50975  15.230   2.610   9.076  0.1141  0.2132 -0.0012
42176W        W50976   9.530   5.123   0.389  0.1291 -0.1849  0.1938
42177W        W50977  10.625   4.742  10.143 -0.1033 -0.0252  0.0660
42178W        W50978  14.631   0.337   9.286 -0.2459  0.2411  0.1207
42179W        W50979   9.998   5.786  17.498 -0.1330  0.4248 -0.0040
42180W        W50980  14.125   5.633  24.844  0.1061 -0.0113 -0.2081
42181W        W50981   9.427   3.170  25.478 -0.2948 -0.5855 -0.1357
42182W        W50982  19.490   7.853  15.820  0.0484  0.0492 -0.0429
42183W        W50983  10.617   1.877   0.561  0.1613  0.0360 -0.0127
42184W        W50984  19.873   2.206  18.652  0.1327 -0.0655  0.1802
42185W        W50985  28.130   4.754  19.566 -0.2130  0.0927  0.0304
42186W        W50986   3.884   2.133  18.699 -0.0817  0.1182  0.1950
42187W        W50987  27.156   5.384  18.637 -0.0831 -0.2820  0.0387
42188W        W50988   0.102   0.904  25.654 -0.0517 -0.0276 -0.3137
42189W        W50989   8.734   1.715   1.719  0.0505 -0.0670  0.2549
42190W        W50990   9.193   2.127   6.174 -0.1359  0.0487 -0.1208
42191W        W50991   5.224   0.487  21.460  0.1894  0.0929 -0.1838
42192W        W50992   4.336   5.691   0.559  0.0440  0.0603 -0.1144
42193W        W50993  12.219   3.581   6.921 -0.1023  0.1459  0.0317
42194W        W50994  26.188   2.115   1.279 -0.0908 -0.1832 -0.2109
42195W        W50995   4.036   3.933  16.302 -0.1881 -0.1817  0.1337
42196W        W50996  30.480   4.227   2.717 -0.0697  0.0718  0.1090
42197W        W50997  30.970   2.283   8.179  0.0404 -0.1306 -0.2025
42198W        W50998  19.185   7.587   4.171  0.0101  0.2834  0.0670
42199W        W50999  27.812   5.316   6.782  0.1680  0.2048  0.3680
42200W        W51000  20.012   6.044  17.826 -0.1132 -0.0060 -0.4047
42201W        W51001   8.731   3.583   4.269  0.0180  0.0216 -0.4417
42202W        W51002  29.452   7.464  19.705 -0.5216  0.2566 -0.0937
42203W        W51003  17.258   2.396   8.776 -0.0010  0.0825  0.2544
42204W        W51004  11.661   0.346  17.850  0.0805 -0.0030  0.0739
42205W        W51005  30.289   4.691  22.157 -0.0523 -0.2990  0.0936
42206W        W51006  19.152   1.610  15.856  0.1751  0.1365 -0.3263
42207W        W51007   0.440   0.785  16.248 -0.0343  0.2741  0.2974
42208W        W51008  11.939   4.151  15.285 -0.1813  0.0990 -0.0182
42209W        W51009  18.867   2.458   7.269  0.1003  0.1761 -0.0527
42210W        W51010  14.722   4.958  18.981 -0.0814 -0.0191  0.0044
42211W        W51011   5.288   4.523   1.155  0.0541 -0.1193 -0.1426
42212W        W51012  23.406   6.894   8.159 -0.1373 -0.0772 -0.0016
42213W        W51013  20.391   0.690  23.801  0.1463  0.2466 -0.1422
42214W        W51014   8.131   4.005  24.887  0.0970  0.0255 -0.0220
42215W        W51015  20.335   6.750   2.272  0.1798  0.0249  0.0638
42216W        W51016  23.277   7.007  16.087 -0.1413  0.0479  0.0359
42217W        W51017   8.377   0.177   5.419 -0.3144  0.2026  0.1058
42218W        W51018  24.887   6.260   6.027 -0.0174  0.0777  0.0342
42219W        W51019   5.120   5.668   5.585  0.1413 -0.2558  0.2099
42220W        W51020   1.127   0.043  20.259  0.2130  0.1505 -0.2649
42221W        W51021  18.155   2.042  15.798 -0.0455  0.1015  0.2272
42222W        W51022  22.943   6.204   8.690  0.0282 -0.0051 -0.3903
42223W        W51023   6.043   6.904  14.824  0.1685 -0.0950 -0.1200
42224W        W51024   6.465   0.476  23.160  0.4020  0.1427 -0.0297
42225W        W51025  15.699   3.053   2.603  0.5834  0.3031  0.1876
42226W        W51026   5.210   5.070  22.794  0.1536  0.0302 -0.3299
42227W        W51027   9.574   6.992   2.047  0.0910  0.0048 -0.0438
42228W        W51028   4.564   5.800  20.739  0.1230  0.1173 -0.0652
42229W        W51029  26.306   5.655  17.592 -0.0014 -0.0972 -0.0846
42230W        W51030  23.197   0.298   9.999 -0.1466 -0.2094 -0.1439
42231W        W51031  17.472   3.504   4.477  0.0700  0.2841  0.1009
42232W        W51032   1.965   0.020  25.385 -0.1337 -0.0734 -0.3084
42233W        W51033  21.831   5.762  16.802 -0.1120 -0.2111  0.2756
42234W        W51034  18.686   7.181   9.533  0.2827  0.0176  0.0754
42235W        W51035  31.367   7.579   4.061  0.0857 -0.2675 -0.0198
42236W        W51036  10.774   6.499  23.305 -0.0188  0.1195  0.1906
42237W        W51037   8.662   1.710   3.788  0.4238  0.0949 -0.0328
42238W        W51038   4.520   0.745   2.595 -0.0973 -0.0203 -0.0602
42239W        W51039   8.714   5.449  24.304 -0.0763  0.4608 -0.0602
42240W        W51040  12.621   7.322   8.084 -0.0884 -0.3455 -0.1850
42241W        W51041   1.172   4.700  16.576 -0.2966  0.0251 -0.1216
42242W        W51042  16.371   5.356  16.370 -0.1426  0.0788  0.1892
42243W        W51043  29.060   2.059   2.620  0.1516  0.1314 -0.1238
42244W        W51044   6.143   7.775   9.921 -0.1345 -0.4215  0.1569
42245W        W51045  14.563   7.347   7.339 -0.1295 -0.0088  0.1994
42246W        W51046  21.977   7.001   2.095 -0.0213  0.1657 -0.1242
42247W        W51047  31.281   1.209  21.793  0.1840  0.0271  0.1360
42248W        W51048  25.005   4.706   5.232 -0.1607 -0.1645 -0.2701
42249W        W51049  26.075   5.563  25.538 -0.0686  0.0681 -0.0974
42250W        W51050  21.299   1.397  17.356  0.1133  0.1561 -0.0954
42251W        W51051  25.286   4.429   4.205 -0.0081  0.3646 -0.1103
42252W        W51052   0.740   6.974  10.086  0.1749  0.1821 -0.3197
42253W        W51053  14.595   0.541  20.112 -0.3226  0.1977  0.0528
42254W        W51054   7.691   4.346   4.098 -0.0508  0.2823  0.4192
42255W        W51055   5.336   4.984  10.114 -0.0093  0.0510  0.2502
42256W        W51056   1.061   1.661  24.274  0.0028 -0.2913 -0.0955
42257W        W51057   9.636   5.316   6.546  0.1999 -0.2524 -0.0436
42258W        W51058  30.309   1.177   6.432 -0.2195 -0.0981  0.3427
42259W        W51059  16.643   5.053  15.958 -0.1309 -0.1978  0.0932
42260W        W51060  10.535   7.249   7.364 -0.1409  0.1924  0.1823
42261W        W51061  25.658   4.446  11.173  0.0752  0.0903  0.2680
42262W        W51062  21.203   0.178  10.973 -0.0306 -0.1704  0.1143
42263W        W51063   3.962   7.141   6.232 -0.4209 -0.2276 -0.0469
42264W        W51064   1.956   0.399  22.963 -0.0302  0.0403  0.1528
42265W        W51065   5.471   2.175  24.465 -0.0509  0.0299 -0.0955
42266W        W51066   3.133   1.422  25.709  0.0149  0.0550 -0.1581
42267W        W51067   1.380   0.946   4.223  0.0265  0.4441  0.1981
42268W        W51068  27.870   4.093  21.557  0.2049 -0.3183  0.0014
42269W        W51069   0.452   3.538   0.343 -0.0041  0.2919  0.0823
42270W        W51070  29.849   2.156   7.961 -0.1128  0.1484 -0.2507
42271W        W51071   5.338   2.282   5.568  0.2836  0.2625  0.3508
42272W        W51072   8.705   0.864   9.437  0.0400 -0.0046  0.0026
42273W        W51073  15.727   1.442  22.594 -0.0035 -0.0514 -0.1789
42274W        W51074   8.111   3.433   6.671  0.1773  0.3562 -0.0187
42275W        W51075   2.682   2.826  17.977  0.2027  0.0671  0.2021
42276W        W51076  17.420   3.830  24.663  0.1526  0.1950 -0.1508
42277W        W51077   0.993   3.383  21.572 -0.1154  0.0619  0.1999
42278W        W51078   1.145   5.396  16.465  0.3054 -0.0002 -0.0652
42279W        W51079   3.712   3.624   4.278  0.2422  0.0200  0.1940
42280W        W51080  28.600   1.622  18.273  0.1437  0.1713  0.3738
42281W        W51081  14.862   3.718  21.928  0.0114 -0.1074 -0.3513
42282W        W51082  10.010   0.812  16.779 -0.1082  0.2289 -0.0889
42283W        W51083  18.408   7.455   4.750 -0.0565 -0.0253 -0.0090
42284W        W51084   8.108   5.598   4.652  0.1692 -0.0628 -0.2068
42285W        W51085  25.691   6.847  19.677  0.2396  0.1167 -0.1188
42286W        W51086  27.489   5.728  18.555  0.1023 -0.1210 -0.1759
42287W        W51087   7.851   7.038  23.678 -0.1192 -0.0960  0.1220
42288W        W51088  29.523   7.429   4.067  0.2796 -0.0709  0.1151
42289W        W51089  17.294   7.712  25.926  0.3104 -0.2394 -0.1499
42290W        W51090  28.411   5.138  20.654  0.1644 -0.4645  0.3445
42291W        W51091  12.534   4.341  17.350  0.0812 -0.3290  0.2235
42292W        W51092  11.256   0.143  23.159 -0.4416  0.4002 -0.0643
42293W        W51093  27.792   1.265  17.145  0.2763 -0.1295  0.3161
42294W        W51094  18.611   0.933   8.885 -0.0307 -0.1204  0.0269
42295W        W51095  15.927   2.121   4.423 -0.2981 -0.0598 -0.0698
42296W        W51096   6.068   0.624   2.177 -0.4178 -0.0140  0.0330
42297W        W51097  20.768   6.747  16.125 -0.1531  0.5282 -0.0504
42298W        W51098  24.653   5.147  22.655 -0.0924 -0.2475 -0.0935
42299W        W51099  31.276   1.247   7.150 -0.1169 -0.3953  0.0174
42300W        W51100  10.888   6.979  10.049 -0.1461 -0.0106  0.0474
42301W        W51101  25.468   3.495  24.425  0.3250  0.0844 -0.1176
42302W        W51102  21.912   4.303   4.648  0.1951  0.0049 -0.2013
42303W        W51103  20.164   3.412  25.260  0.0623 -0.3257 -0.3074
42304W        W51104  26.349   7.777   6.885 -0.1245 -0.0911 -0.3992
42305W        W51105  21.160   5.961   5.997 -0.0038 -0.2067 -0.0588
42306W        W51106  13.323   6.434   4.804  0.2397 -0.2974 -0.0524
42307W        W51107   9.013   2.659  25.553 -0.2189  0.0898  0.2030
42308W        W51108   1.056   0.656   5.045  0.0352 -0.0519 -0.0916
42309W        W51109  18.914   1.060   1.233  0.1150  0.2395 -0.4931
42310W        W51110  10.050   0.981  25.043 -0.2559  0.1492  0.3998
42311W        W51111  19.801   2.581  19.584  0.2070 -0.0086 -0.0855
42312W        W51112  20.343   2.317  23.363 -0.0946  0.2591 -0.0820
42313W        W51113  19.167   7.805  25.090 -0.0554 -0.1646 -0.1394
42314W        W51114  25.524   1.404  17.526 -0.1246 -0.0035 -0.0494
42315W        W51115   6.081   0.297   7.923 -0.0518 -0.0932  0.1160
42316W        W51116   3.781   2.668  25.233  0.1296  0.0619  0.1662
42317W        W51117   5.774   3.305   0.054  0.0275  0.1259  0.2264
42318W        W51118   1.342   2.155  18.960  0.1903  0.0777 -0.1201
42319W        W51119   3.048   1.306  17.356  0.1673 -0.1019 -0.0435
42320W        W51120  20.726   2.969  11.069 -0.1817 -0.1605  0.0325
42321W        W51121  29.202   2.333  10.324 -0.0343  0.2724  0.1063
42322W        W51122   6.126   3.305   2.940 -0.3971 -0.1139  0.0787
42323W        W51123   6.306   7.728   1.758  0.3994 -0.0184  0.0054
42324W        W51124  30.103   7.344  23.653  0.0924 -0.1407 -0.0434
42325W        W51125  18.576   6.191   4.498  0.1053  0.0544  0.0901
42326W        W51126   7.556   6.147  10.858  0.0988 -0.0905  0.3133
42327W        W51127  28.355   2.176   4.253  0.1548 -0.1539 -0.0975
42328W        W51128   9.734   5.636  16.508 -0.0629  0.3263 -0.2189
42329W        W51129  20.135   7.832  16.993 -0.3727  0.0788  0.2092
42330W        W51130  11.629   4.658   4.076  0.0110 -0.1694  0.2475
42331W        W51131  10.922   1.368  23.535  0.0753 -0.1930  0.0176
42332W        W51132  31.366   2.869  22.842  0.2011 -0.2700  0.2021
42333W        W51133  30.611   7.802  16.114  0.2152 -0.0531 -0.0542
42334W        W51134   7.380   5.487   5.195  0.0110  0.1245  0.1088
42335W        W51135  24.320   2.998  23.342  0.2827 -0.1814 -0.0403
42336W        W51136  15.879   0.300  10.940 -0.2171  0.1976 -0.1580
42337W        W51137   3.540   4.707   2.864  0.2042  0.2234 -0.0241
42338W        W51138   9.001   3.822  22.757  0.0457 -0.0164  0.0722
42339W        W51139   8.834   6.085  21.724 -0.0220  0.1267  0.4243
42340W        W51140   8.429   6.452   4.273  0.2719 -0.1070 -0.1803
42341W        W51141  21.667   1.023  20.118  0.0791  0.1438  0.2274
42342W        W51142  21.267   4.030  22.662  0.3869  0.1605  0.2443
42343W        W51143  22.064   1.297   3.945 -0.3893  0.0603  0.3669
42344W        W51144  20.576   7.286  24.488  0.0581  0.0691 -0.0255
42345W        W51145   3.081   5.216  20.119 -0.0137  0.1407  0.3448
42346W        W51146  21.408   3.408   8.608  0.3951  0.0434 -0.0566
42347W        W51147  13.462   7.744   4.580 -0.0617 -0.2138  0.3013
42348W        W51148   4.632   5.997   0.290  0.2742 -0.2234  0.0046
42349W        W51149  27.733   3.990   1.206  0.0273  0.1956  0.0022
42350W        W51150  12.572   0.364  16.078 -0.2417  0.1764  0.1375
42351W        W51151  17.343   7.458  18.613  0.3237 -0.0148 -0.0567
42352W        W51152  31.065   5.444  16.500 -0.0941 -0.0719  0.0467
42353W        W51153  24.994   0.100  18.953  0.3062  0.0026 -0.0739
42354W        W51154   8.318   5.081  22.477  0.2319  0.0793 -0.3479
42355W        W51155  10.095   6.174   9.123 -0.0249 -0.4811 -0.2329
42356W        W51156   5.196   3.583   5.122 -0.0974 -0.1661 -0.1177
42357W        W51157   1.643   3.815   2.328  0.1450  0.0239  0.1673
42358W        W51158  27.738   0.589  20.784 -0.0638 -0.3024 -0.0050
42359W        W51159  23.167   4.991  21.033 -0.2229 -0.2326  0.0755
42360W        W51160  30.662   3.543   9.785  0.0074 -0.0499 -0.0794
42361W        W51161   6.790   0.678  26.000  0.1913 -0.1927  0.1421
42362W        W51162   4.649   7.616   2.865 -0.0605 -0.0109 -0.2147
42363W        W51163  24.421   1.094  22.253  0.1519  0.2613 -0.3645
42364W        W51164   2.129   6.527  17.507  0.1728 -0.1024  0.1919
42365W        W51165   5.958   7.622  21.357 -0.1871  0.0882 -0.0497
42366W        W51166  27.016   6.809  21.666  0.1362  0.1727 -0.0500
42367W        W51167  21.486   4.238   1.194 -0.0458 -0.0918 -0.0041
42368W        W51168  19.133   6.037  18.020  0.4433 -0.0439 -0.0616
42369W        W51169   6.473   5.148  18.713 -0.2706  0.0711 -0.0273
42370W        W51170  29.136   5.989   8.053 -0.1031 -0.1747 -0.1440
42371W        W51171   0.428   2.032  10.310  0.1632 -0.1602 -0.1504
42372W        W51172  29.364   0.445  19.453  0.0008 -0.0503  0.0776
42373W        W51173   7.510   5.470  18.226  0.2558 -0.1985 -0.1687
42374W        W51174  16.746   6.676  22.626  0.2788  0.2674  0.2672
42375W        W51175   6.667   1.162   8.069 -0.0572  0.1018 -0.0252
42376W        W51176  15.588   5.166   4.415 -0.1974 -0.0711  0.0660
42377W        W51177  11.435   0.099  24.048  0.1185  0.1726  0.1073
42378W        W51178  28.396   4.372   5.322  0.2871  0.2770  0.1619
42379W        W51179  26.076   7.026  23.477  0.0898 -0.2634 -0.3055
42380W        W51180   7.060   1.245  17.887 -0.1040 -0.2092  0.0683
42381W        W51181  14.123   7.169  19.303 -0.0587 -0.0502 -0.0791
42382W        W51182  17.764   2.396  22.257  0.2259  0.0761  0.4327
42383W        W51183   4.641   0.962  21.058  0.0231 -0.1318  0.1608
42384W        W51184  17.537   1.682  25.910  0.2122  0.1417 -0.0601
42385W        W51185  19.574   4.884   5.106  0.2563 -0.1746  0.1238
42386W        W51186   0.149   0.809   5.492  0.0200 -0.1416  0.0406
42387W        W51187  19.263   6.207   7.946 -0.2658 -0.2657  0.1355
42388W        W51188   8.280   2.076   3.681  0.2247  0.0903  0.0087
42389W        W51189  13.917   5.454  15.936 -0.0229 -0.2573 -0.2606
42390W        W51190  27.985   3.380  16.176  0.0637  0.3610  0.0175
42391W        W51191  21.565   7.487   7.221  0.5008 -0.0566 -0.0850
42392W        W51192  26.533   3.332  16.139 -0.0100  0.4317 -0.4157
42393W        W51193  23.779   3.765   3.138  0.0418 -0.1452 -0.1135
42394W        W51194   9.010   3.144   6.996 -0.0947  0.1090  0.0375
42395W        W51195   0.350   5.571   6.629  0.1325  0.2217 -0.2261
42396W        W51196   6.125   6.785   6.227  0.1432  0.1958 -0.1695
42397W        W51197   5.967   0.527  25.584 -0.0980  0.0686 -0.1931
42398W        W51198   8.069   3.965   1.008  0.2606 -0.0314 -0.0796
42399W        W51199   6.160   3.481   9.136  0.3174 -0.1143  0.1152
42400W        W51200  30.813   4.310  16.075  0.2182 -0.1027 -0.0580
42401W        W51201  30.914   3.645  19.850  0.0882 -0.3033 -0.0733
42402W        W51202  11.476   1.747  19.655  0.1423 -0.0447 -0.1889
42403W        W51203  26.881   7.559  11.034  0.1602  0.0176 -0.0983
42404W        W51204  21.114   5.381  16.547  0.2086  0.1865  0.3388
42405W        W51205  29.521   0.858   8.283 -0.0518 -0.1154 -0.0799
42406W        W51206   7.244   0.286  18.856 -0.2115  0.0639  0.0374
42407W        W51207  15.179   3.886   8.742  0.2294 -0.0839 -0.0234
42408W        W51208  18.008   5.240  24.894 -0.0737  0.0374  0.5175
42409W        W51209   8.564   2.855  25.590 -0.0415 -0.0497  0.0536
42410W        W51210   0.104   5.141  19.373 -0.1872  0.0111 -0.1959
42411W        W51211  15.840   0.402  17.801  0.0943  0.1433 -0.1476
42412W        W51212   7.673   7.839  22.848 -0.2185 -0.1158  0.0878
42413W        W51213   2.525   6.086  19.635 -0.1278 -0.0024 -0.3434
42414W        W51214  25.758   2.870   5.880 -0.0736  0.1790  0.2625
42415W        W51215  17.060   0.475  18.705 -0.0162 -0.1955 -0.1934
42416W        W51216   9.100   4.720  19.949  0.1832 -0.3859 -0.2763
42417W        W51217  30.840   4.798   4.637 -0.0597 -0.1811  0.1015
42418W        W51218  18.846   6.444  18.320 -0.1210  0.0088  0.1013
42419W        W51219  16.722   5.725  19.790  0.0539  0.2478 -0.2187
42420W        W51220  25.115   1.553  24.618 -0.1250 -0.0431 -0.1791
42421W        W51221  29.883   0.109  16.713  0.1353 -0.0633  0.0245
42422W        W51222  19.700   0.664  16.005  0.0660 -0.0166 -0.0639
42423W        W51223  17.784   2.858   7.219 -0.1387 -0.0914 -0.0251
42424W        W51224  17.779   1.791   6.036 -0.0694  0.0354 -0.0787
42425W        W51225  12.175   6.480   9.916 -0.0454 -0.1959 -0.0918
42426W        W51226  16.052   7.530   6.041 -0.2194 -0.1064 -0.1193
42427W        W51227   6.600   3.277   6.844 -0.0118  0.1179  0.1582
42428W        W51228   9.390   1.784  19.334  0.1041  0.1260  0.0443
42429W        W51229  26.751   5.847  25.399  0.0573  0.1769 -0.2257
42430W        W51230   4.676   3.937   8.587 -0.0149 -0.1174 -0.1088
42431W        W51231  10.894   6.655  20.643  0.2877 -0.2004 -0.2979
42432W        W51232   1.856   3.737  19.494 -0.1875 -0.2669 -0.2165
42433W        W51233   2.840   6.292  22.636  0.0212  0.1378 -0.0361
42434W        W51234   2.282   2.381  25.710  0.0135 -0.0290  0.0402
42435W        W51235  15.965   6.306  16.112  0.0506 -0.1207 -0.1767
42436W        W51236   9.134   6.585  18.735 -0.1819 -0.1860 -0.1759
42437W        W51237  12.729   7.474   0.014  0.0651  0.3091  0.2865
42438W        W51238  13.545   2.517  20.324  0.0725 -0.2096  0.0527
42439W        W51239  16.667   5.233   5.406  0.2787  0.1995 -0.1103
42440W        W51240   8.007   3.740   2.879 -0.0016 -0.2861 -0.0353
42441W        W51241  16.676   0.203   8.454  0.0715  0.3156 -0.5208
42442W        W51242  29.146   1.910  24.769 -0.0941  0.1625  0.1787
42443W        W51243  19.937   3.860  25.317 -0.1285 -0.1459  0.0423
42444W        W51244  16.837   1.831   6.156  0.2377  0.2362  0.2488
42445W        W51245  13.214   3.895  18.585  0.2192 -0.0064  0.0777
42446W        W51246  10.679   2.944   2.632 -0.0968 -0.1032 -0.0805
42447W        W51247   5.706   2.388  17.370  0.1485 -0.1249  0.1083
42448W        W51248   3.655   5.312  17.659 -0.0876 -0.0641 -0.1328
42449W        W51249  16.555   5.720   6.929 -0.0622 -0.0725 -0.1823
42450W        W51250  21.935   7.038  22.273  0.0249 -0.3147  0.1963
42451W        W51251   2.040   0.510  21.039 -0.2543 -0.1791  0.3389
42452W        W51252  22.327   0.697  11.195 -0.2923  0.0101 -0.2284
42453W        W51253  12.917   5.501   6.015 -0.0139  0.2384  0.1517
42454W        W51254   3.374   3.016  16.795 -0.0553  0.2970 -0.3123
42455W        W51255  21.827   1.859   9.611 -0.2833 -0.1453 -0.0055
42456W        W51256   4.252   6.178   0.498 -0.2005  0.1414  0.0152
42457W        W51257  18.352   5.465  10.067 -0.2969  0.1062  0.0812
42458W        W51258  21.864   5.685   6.669  0.0987 -0.0788  0.0206
42459W        W51259   0.182   7.097  17.926 -0.1517  0.2964 -0.1656
42460W        W51260   5.317   2.623   2.309 -0.5225  0.5093  0.0631
42461W        W51261   1.912   5.263   4.267 -0.1119 -0.0595 -0.0529
42462W        W51262  27.599   2.344  22.450  0.1698  0.0116  0.3042
42463W        W51263   9.740   0.872  17.686  0.2993  0.1027  0.1526
42464W        W51264  24.915   2.086  22.086 -0.1236 -0.2149 -0.0492
42465W        W51265  11.931   3.345   1.872 -0.0420 -0.0743 -0.1106
42466W        W51266  18.368   0.353  18.628  0.1076  0.0517 -0.0102
42467W        W51267   5.995   2.730   3.640 -0.1111  0.2421  0.2590
42468W        W51268   0.580   2.022   5.540 -0.0618  0.1896  0.0025
42469W        W51269   7.984   0.550   7.223 -0.1203 -0.1246  0.2052
42470W        W51270  15.059   4.565   5.097 -0.4881 -0.1764 -0.1687
42471W        W51271  22.676   0.649  23.157 -0.2600  0.0521 -0.1162
42472W        W51272  27.557   3.686   4.413  0.1751 -0.0560 -0.0978
42473W        W51273   4.799   7.060   2.757  0.1674  0.2464 -0.0691
42474W        W51274  17.918   0.353  25.725  0.1073  0.2644  0.1550
42475W        W51275   7.998   6.418   8.311 -0.1723  0.0687  0.0189
42476W        W51276  27.144   5.517  25.106  0.0559 -0.2598  0.2023
42477W        W51277   3.774   0.208  23.264 -0.1429  0.0458 -0.1806
42478W        W51278  18.539   3.811   2.429  0.2712  0.0239  0.1712
42479W        W51279  20.862   6.616  20.960  0.1100 -0.0122 -0.1646
42480W        W51280  31.436   0.053   8.538 -0.0867  0.0223  0.1612
42481W        W51281  19.347   7.371   9.623  0.1107 -0.0249  0.0928
42482W        W51282   6.105   5.806  15.775  0.1763  0.2462 -0.0122
42483W        W51283  23.932   0.334   3.318 -0.0935 -0.0195 -0.2768
42484W        W51284  27.074   3.410   7.307  0.1399 -0.1836  0.1310
42485W        W51285  20.694   0.703  16.760 -0.1321  0.2837  0.1086
42486W        W51286  24.709   1.362  21.549 -0.2394 -0.0931  0.1737
42487W        W51287  16.834   6.434  18.167 -0.0467  0.0638  0.0538
42488W        W51288  14.742   0.664   3.798  0.3771  0.0171 -0.0895
42489W        W51289  28.050   0.574  22.666  0.0435 -0.0001  0.0921
42490W        W51290  30.327   0.492  24.136 -0.0269  0.1363 -0.2308
42491W        W51291  21.631   6.519  22.932  0.1202  0.0546  0.1481
42492W        W51292  19.644   6.459   4.083  0.1012  0.0203  0.0824
42493W        W51293   3.121   3.044  14.878 -0.1751 -0.0122  0.0373
42494W        W51294  25.046   5.742   6.672 -0.0082  0.1312 -0.2329
42495W        W51295  14.009   6.534  20.495  0.0167  0.2192  0.1392
42496W        W51296  18.317   6.343  21.017  0.0016  0.0717  0.6324
42497W        W51297  22.229   2.274   0.811  0.1639 -0.0883  0.1537
42498W        W51298  27.985   6.076   4.116 -0.2187 -0.1017  0.0328
42499W        W51299  18.895   7.777  23.418  0.2756 -0.0675 -0.3320
42500W        W51300   6.637   4.628   5.821  0.1932 -0.0322 -0.0402
42501W        W51301   6.716   2.213   8.387  0.0302 -0.1057  0.0319
42502W        W51302  18.036   0.903  21.542  0.1372  0.1748 -0.1260
42503W        W51303  14.897   5.309   8.077  0.3153  0.2033  0.1536
42504W        W51304  15.971   0.052  23.359 -0.0628 -0.2322  0.0389
42505W        W51305  17.250   1.947   1.717 -0.1471 -0.3185  0.0637
42506W        W51306  16.706   6.557   4.824 -0.0669 -0.3577 -0.0125
42507W        W51307  27.715   6.793  18.147  0.1044 -0.2304  0.0987
42508W        W51308  15.094   4.584  14.768  0.1859  0.1451  0.2370
42509W        W51309  20.099   2.639   3.397 -0.0410 -0.2229  0.1963
42510W        W51310   4.107   4.338  14.915 -0.1025  0.0524  0.0727
42511W        W51311   8.131   2.798  15.728 -0.1858 -0.0104 -0.0423
42512W        W51312  17.420   1.035  18.052  0.2885  0.1815 -0.1371
42513W        W51313  21.547   1.131  10.741  0.2689  0.0165  0.5700
42514W        W51314  17.121   3.961  19.402  0.3081  0.0119  0.1021
42515W        W51315   5.572   7.811  18.163 -0.2697  0.0646  0.3092
42516W        W51316  12.499   0.485   8.385  0.0744  0.0161  0.1585
42517W        W51317  14.901   1.500  18.812  0.1331 -0.0711 -0.1233
42518W        W51318  19.883   4.119   3.065  0.1289 -0.3521 -0.1132
42519W        W51319  20.168   7.701   7.649  0.2227  0.0607 -0.0031
42520W        W51320  20.128   4.621   6.074 -0.0413 -0.0064 -0.0969
42521W        W51321  10.797   1.995   6.110  0.0813 -0.2822  0.0444
42522W        W51322  21.654   0.403  22.850 -0.1005 -0.2891  0.1270
42523W        W51323   9.664   0.407   6.646 -0.2837 -0.2499  0.0147
42524W        W51324  19.852   6.551  16.165  0.2069  0.2718 -0.2189
42525W        W51325  16.255   7.323  20.059 -0.0231  0.1593 -0.1896
42526W        W51326   9.861   1.411  14.853 -0.0106  0.2111 -0.1029
42527W        W51327   4.005   6.421  23.915 -0.0520  0.0707 -0.0318
42528W        W51328   7.800   0.596   4.795  0.0806 -0.0194 -0.1196
42529W        W51329  22.846   3.453  19.926 -0.0970  0.1685  0.1699
42530W        W51330   5.918   7.058  15.938  0.0379  0.2913  0.1589
42531W        W51331  23.333   0.877   7.043  0.1386 -0.1090 -0.0958
42532W        W51332  21.464   2.430   3.878  0.4142 -0.1218 -0.0469
42533W        W51333  10.829   7.794   8.063  0.1347  0.2648 -0.2104
42534W        W51334  27.031   0.901   5.347 -0.3488  0.1735 -0.1217
42535W        W51335  27.616   4.418  16.799  0.0904 -0.1338  0.3290
42536W        W51336  16.843   2.580  17.760 -0.1574 -0.0042 -0.0536
42537W        W51337   1.380   4.649  15.121 -0.0622  0.2160  0.0005
42538W        W51338  20.481   7.469  24.946  0.0606 -0.1072  0.1514
42539W        W51339  21.168   3.793  23.580  0.0725  0.0521 -0.1423
42540W        W51340  26.675   3.645   3.056 -0.1431  0.1070 -0.1643
42541W        W51341  22.852   0.427  15.517  0.3285  0.1425  0.0951
42542W        W51342  23.854   6.659   5.342 -0.0457  0.3604  0.2211
42543W        W51343  13.574   3.107   0.447 -0.0764 -0.1306 -0.0948
42544W        W51344  23.793   5.521   6.223  0.0457 -0.0774 -0.1830
42545W        W51345   7.623   1.488  19.649 -0.0273 -0.3312 -0.3174
42546W        W51346   3.840   2.840   2.440  0.0527 -0.1762  0.1259
42547W        W51347  30.728   1.591   1.985  0.3269 -0.1387 -0.3167
42548W        W51348  15.918   6.419   2.871  0.3482  0.3335 -0.1561
42549W        W51349   5.956   6.194  18.842 -0.0392 -0.0898 -0.0444
42550W        W51350  28.604   2.186   8.464  0.2466 -0.0687  0.2781
42551W        W51351  30.578   1.322   1.013 -0.1231 -0.1829  0.1599
42552W        W51352  27.769   7.118  19.421  0.1540 -0.3602 -0.0258
42553W        W51353   8.197   6.446   4.698  0.2869 -0.0451  0.0616
42554W        W51354  18.801   1.293  23.826 -0.0809  0.2658  0.1813
42555W        W51355  25.828   0.373  24.010 -0.0403  0.1718 -0.1355
42556W        W51356   2.796   5.584   2.868  0.0469 -0.0473 -0.0769
42557W        W51357  22.552   6.457  11.081  0.0292  0.1271 -0.1362
42558W        W51358  29.670   7.206  21.413  0.0713 -0.0652 -0.3816
42559W        W51359  16.174   2.022  19.265  0.0748 -0.1712  0.1266
42560W        W51360  27.331   6.684  25.819 -0.1479 -0.1720  0.1362
42561W        W51361  29.998   0.423  24.781  0.0884 -0.0407  0.3040
42562W        W51362   4.687   0.226   4.308 -0.1116  0.0049 -0.1567
42563W        W51363  10.941   3.844   2.297  0.3005 -0.1629  0.0606
42564W        W51364  19.431   1.300  17.827  0.2813 -0.1685 -0.2310
42565W        W51365  17.042   6.385  15.776  0.1115 -0.1160  0.2094
42566W        W51366  17.172   6.855  18.694  0.3110 -0.0278 -0.0825
42567W        W51367  12.224   6.273   4.164  0.0334 -0.2093 -0.0545
42568W        W51368  16.290   7.706  18.913  0.0881 -0.2782  0.2128
42569W        W51369  15.981   7.151  10.381 -0.1578 -0.1954  0.2997
42570W        W51370  29.743   2.116   5.912 -0.0208 -0.0201 -0.2968
42571W        W51371  13.262   1.522  17.209 -0.2798 -0.1959 -0.0446
42572W        W51372   7.910   7.834   5.450 -0.0639 -0.3600  0.1178
42573W        W51373   8.794   0.173   6.928  0.3796  0.1531  0.3276
42574W        W51374  26.091   6.412   1.000  0.0430 -0.6566  0.0271
42575W        W51375  29.991   1.232   7.915  0.2012  0.2040 -0.1129
42576W        W51376  13.760   2.576   9.282  0.5169 -0.0507 -0.0676
42577W        W51377  10.014   6.224   2.645 -0.0812 -0.1961  0.1811
42578W        W51378   7.824   7.524  15.086 -0.3131 -0.2075  0.2315
42579W        W51379  21.451   7.327  23.125 -0.1910 -0.1279  0.0384
42580W        W51380   2.198   2.629  19.903 -0.0765  0.1365 -0.3603
42581W        W51381  15.912   2.325   9.818 -0.0327 -0.0551  0.1585
42582W        W51382  22.078   4.113  25.675  0.2812 -0.0381  0.2215
42583W        W51383  24.859   5.945   4.697 -0.0461  0.1410 -0.0480
42584W        W51384  15.273   0.697  21.643 -0.0911 -0.1016  0.1577
42585W        W51385   7.849   3.489   7.487  0.2606  0.1276 -0.1244
42586W        W51386  27.497   3.981  25.636 -0.0642 -0.2284  0.0866
42587W        W51387  15.841   4.817   8.237 -0.1556 -0.0526 -0.0322
42588W        W51388  25.130   7.594  25.421  0.1571  0.1961  0.1120
42589W        W51389   6.859   4.369  21.443  0.0147  0.1329  0.0136
42590W        W51390  15.699   4.933   0.828 -0.0102 -0.0246  0.0209
42591W        W51391   4.334   1.810  18.914  0.1842 -0.0810  0.3465
42592W        W51392  17.975   7.114  15.701 -0.1389  0.0600  0.1523
42593W        W51393   2.037   4.783   4.562 -0.1991 -0.0442  0.1516
42594W        W51394  21.217   3.747  19.125 -0.2241  0.2229 -0.0579
42595W        W51395  11.777   7.236   6.455 -0.1932  0.5124 -0.3226
42596W        W51396  23.868   7.639  21.441  0.1593 -0.1334  0.1065
42597W        W51397  18.907   5.576   8.410 -0.0320 -0.1094 -0.0115
42598W        W51398  29.806   0.707   3.285  0.2254 -0.1130 -0.3101
42599W        W51399  21.366   5.640  15.494 -0.1560 -0.0290  0.1167
42600W        W51400   5.825   3.893   0.070 -0.1115  0.1448 -0.1325
42601W        W51401  30.256   6.759   9.873  0.2296  0.1835  0.0950
42602W        W51402  28.248   3.250  18.503  0.1232 -0.0323  0.0322
42603W        W51403  17.646   5.300  11.859 -0.4417  0.0746  0.1081
42604W        W51404   3.965   7.274   3.533 -0.0391  0.3315  0.0876
42605W        W51405  29.358   3.275  20.395 -0.0925 -0.2503  0.0689
42606W        W51406  15.605   4.473   0.963  0.5350 -0.2121  0.0871
42607W        W51407  15.951   6.465   8.536  0.0974  0.1479 -0.0160
42608W        W51408  28.780   3.690  22.412  0.1804  0.1376  0.1083
42609W        W51409  28.687   2.687  19.242 -0.1817  0.2736 -0.1443
42610W        W51410  30.210   0.159   5.552  0.2156  0.0458 -0.1348
42611W        W51411  29.119   4.347   9.388 -0.0899 -0.0389  0.1103
42612W        W51412   4.290   7.119  15.607  0.2034 -0.2047  0.0170
42613W        W51413   0.920   3.208  24.723 -0.1041 -0.2806  0.2450
42614W        W51414  30.710   0.352  18.590 -0.0505  0.0167 -0.0840
42615W        W51415  21.933   2.198  20.274 -0.3173  0.1709  0.1707
42616W        W51416   8.726   1.269  23.050 -0.0486 -0.1154  0.1214
42617W        W51417  29.230   4.284  19.887  0.1092  0.0234 -0.1098
42618W        W51418   4.695   7.813   0.595 -0.3298 -0.0394  0.1441
42619W        W51419   4.387   6.969  18.240  0.1192  0.2021  0.1148
42620W        W51420   7.659   5.667  16.766  0.1131 -0.2609 -0.2752
42621W        W51421  29.647   6.099  19.609  0.3804  0.0603  0.3760
42622W        W51422  27.222   3.962  16.308 -0.0082 -0.0192 -0.0260
42623W        W51423  23.879   3.433  24.372 -0.1769 -0.4310 -0.0596
42624W        W51424  21.041   0.941   3.826 -0.2074  0.2465  0.0787
42625W        W51425   9.202   6.328  21.415  0.4064 -0.2032 -0.0049
42626W        W51426  12.600   2.676   5.326 -0.0851  0.1362  0.0553
42627W        W51427   5.765   7.509   8.409  0.2807  0.1433  0.2438
42628W        W51428   5.089   1.273  18.174 -0.0370 -0.2094 -0.2352
42629W        W51429   4.225   7.715   0.541  0.0554 -0.0275 -0.0240
42630W        W51430  14.247   5.906   0.942  0.2138 -0.1403 -0.0071
42631W        W51431  25.419   4.968  10.629 -0.0908 -0.3679 -0.1957
42632W        W51432   9.797   1.298  21.323  0.0529 -0.0313 -0.2964
42633W        W51433  16.434   4.018  20.264  0.0335 -0.0702  0.2237
42634W        W51434  25.411   2.791  10.358 -0.1336  0.1510  0.4487
42635W        W51435   6.189   5.105   8.462  0.1324 -0.2186 -0.0312
42636W        W51436  20.974   4.120  23.099  0.1936 -0.1533 -0.0937
42637W        W51437  10.223   3.576  20.035 -0.1384 -0.2655  0.4688
42638W        W51438   9.048   0.843  23.070  0.0467  0.0434  0.4639
42639W        W51439   6.233   3.102  15.843  0.1389 -0.0811 -0.0242
42640W        W51440   0.674   0.592   0.576 -0.3199 -0.0356 -0.1851
42641W        W51441  20.431   0.229   1.223  0.3622  0.0437  0.1045
42642W        W51442  19.382   4.959   7.340 -0.2173 -0.2599  0.1399
42643W        W51443   3.299   3.934  24.091  0.0402 -0.1791  0.1349
42644W        W51444  16.109   7.830  21.502 -0.0445  0.0502  0.0360
42645W        W51445  23.657   3.775   8.632 -0.0264 -0.1694  0.0015
42646W        W51446   8.602   3.631  25.522 -0.2822 -0.0697 -0.3351
42647W        W51447   1.132   4.272  20.841 -0.3370  0.2348 -0.2060
42648W        W51448   9.808   5.949   4.138  0.3033  0.0188 -0.1180
42649W        W51449  24.657   3.755  21.432  0.0780  0.1943 -0.0290
42650W        W51450  28.931   1.529  19.404 -0.3071 -0.0990 -0.1911
42651W        W51451   5.150   1.471   3.121  0.0009 -0.2520 -0.1539
42652W        W51452  11.704   0.363   0.585 -0.0287 -0.0918  0.1471
42653W        W51453   3.666   2.118  25.288  0.3960 -0.0551 -0.0690
42654W        W51454   3.766   0.590   8.138  0.1045  0.1076 -0.0657
42655W        W51455   0.482   7.513  21.972  0.0754  0.0114  0.3133
42656W        W51456  16.525   6.667   5.383 -0.0047 -0.0254  0.0927
42657W        W51457  22.509   6.571   2.581  0.0357 -0.0181 -0.0473
42658W        W51458  20.343   0.382   7.720 -0.3181  0.1399 -0.0048
42659W        W51459   1.601   6.000  24.858  0.0110  0.0135 -0.0329
42660W        W51460   2.039   2.913  16.441 -0.1146 -0.0928  0.1501
42661W        W51461  12.628   1.141  24.547  0.1532  0.0523  0.0592
42662W        W51462  23.848   3.554  21.672 -0.0071 -0.1876 -0.0390
42663W        W51463   2.932   1.305  19.307 -0.0248  0.2080 -0.2015
42664W        W51464  20.351   6.496  17.197  0.1269 -0.1929 -0.0178
42665W        W51465   9.263   3.194   6.145  0.0247  0.1889  0.1636
42666W        W51466  20.642   4.228   5.378 -0.2880  0.2403 -0.0385
42667W        W51467  22.990   0.370  24.282  0.0137  0.5284  0.1009
42668W        W51468  28.879   0.264  23.085 -0.1377 -0.1592  0.0397
42669W        W51469  10.068   3.127  25.487 -0.0701 -0.2849  0.2119
42670W        W51470  11.590   1.811  23.202 -0.1714 -0.0208 -0.0491
42671W        W51471   0.880   3.205  14.254 -0.3152  0.1900  0.0427
42672W        W51472  19.539   3.609   1.345 -0.1428 -0.0634  0.1742
42673W        W51473   1.948   5.109   3.751 -0.1863  0.0623 -0.1399
42674W        W51474  11.093   4.065  24.576  0.1599 -0.1313 -0.0439
42675W        W51475  28.362   2.577   6.215  0.2309  0.3440 -0.3480
42676W        W51476  10.408   5.746   3.290  0.0756 -0.1150 -0.0290
42677W        W51477   4.590   3.482   1.852  0.4699 -0.1116  0.0765
42678W        W51478  21.548   1.956   7.472  0.1459 -0.1087  0.1739
42679W        W51479  16.122   4.485  21.910 -0.1580  0.0710  0.0928
42680W        W51480  19.376   4.948   3.391  0.2833  0.1422 -0.0868
42681W        W51481   1.544   3.011   9.143 -0.0820  0.2561 -0.1865
42682W        W51482  18.929   0.654   0.809  0.1302 -0.2035  0.0107
42683W        W51483   3.867   7.492  22.588 -0.1031 -0.1396 -0.2378
42684W        W51484   6.260   5.222   9.796 -0.0355 -0.0559 -0.0492
42685W        W51485  13.739   5.058   9.332 -0.3091  0.2267  0.1410
42686W        W51486  21.152   1.835  19.114 -0.1893 -0.1510  0.1442
42687W        W51487  14.783   4.804   8.160 -0.0789  0.1133 -0.2752
42688W        W51488   4.805   7.447   1.477 -0.0644  0.0604 -0.0437
42689W        W51489  13.874   4.922   0.853 -0.3897 -0.0068 -0.0278
42690W        W51490  19.960   2.173   0.097 -0.0750  0.0972 -0.0251
42691W        W51491  14.434   4.620  10.676 -0.2338  0.0827  0.0706
42692W        W51492   9.573   7.787  11.464 -0.4896  0.1517  0.1387
42693W        W51493   0.683   0.135   5.813 -0.0767 -0.1410  0.2871
42694W        W51494  29.587   3.173   8.423  0.0160  0.1795  0.0012
42695W        W51495  10.526   3.810  11.255 -0.1335 -0.1520  0.0371
42696W        W51496  27.501   5.698   5.710 -0.0742 -0.0267 -0.0042
42697W        W51497   4.561   2.136  10.096  0.0727 -0.0456 -0.0152
42698W        W51498   5.004   7.857  20.272  0.1917  0.0189 -0.3262
42699W        W51499  21.311   1.553   7.711 -0.1803  0.0701  0.1125
42700W        W51500  22.274   4.310  24.275 -0.1317  0.0457 -0.2699
42701W        W51501  22.456   5.298  22.319 -0.0285  0.0827 -0.3744
42702W        W51502   1.344   0.758   5.443  0.2821  0.0916  0.1459
42703W        W51503  18.960   3.485  25.007 -0.0449  0.0069  0.2904
42704W        W51504   7.900   2.759   6.149 -0.2842 -0.0925 -0.0592
42705W        W51505  13.932   1.988  22.371 -0.1798 -0.2804 -0.0918
42706W        W51506  12.640   2.992   4.903  0.1148 -0.0125 -0.1440
42707W        W51507  10.395   2.237  21.713  0.2068 -0.0809 -0.2176
42708W        W51508   1.706   2.762  19.747  0.1229 -0.1754  0.0452
42709W        W51509   9.367   3.206  23.417 -0.1024 -0.2399  0.2140
42710W        W51510   1.754   0.362   8.243  0.1544  0.2005  0.3831
42711W        W51511  14.886   5.120  20.396 -0.2740  0.2643 -0.0662
42712W        W51512   4.612   5.149  19.311 -0.0721  0.1239  0.1970
42713W        W51513  25.336   1.162  24.851 -0.1126 -0.0034  0.0867
42714W        W51514  13.320   0.802   4.428 -0.2218  0.2043 -0.2505
42715W        W51515  16.990   0.045  23.265  0.2251 -0.1382  0.0028
42716W        W51516  22.579   1.259   4.385 -0.0402  0.1000  0.2932
42717W        W51517  22.050   3.338  18.085  0.0050 -0.1902 -0.0660
42718W        W51518   8.676   2.893  19.880 -0.1408 -0.0269  0.1763
42719W        W51519  29.454   7.571  23.262  0.3301 -0.1121  0.0051
42720W        W51520  25.756   3.757  10.040 -0.0550 -0.1282  0.1489
42721W        W51521  14.081   3.895   9.524 -0.3552  0.2269  0.0206
42722W        W51522  29.330   0.673  23.270  0.0069  0.0071  0.1029
42723W        W51523   0.497   0.059  25.846  0.0299  0.0234  0.0134
42724W        W51524  17.852   3.506  23.013 -0.2719  0.0084 -0.0200
42725W        W51525  30.701   6.597   4.851 -0.0717  0.0411  0.0597
42726W        W51526   1.433   0.157   7.244  0.2408  0.2485 -0.5557
42727W        W51527  21.966   1.499   8.381 -0.0195  0.0797 -0.0925
42728W        W51528  23.602   2.861   5.927  0.1244 -0.1674 -0.0567
42729W        W51529  14.027   6.001  22.442  0.0583 -0.3620 -0.0880
42730W        W51530   9.959   6.510  18.376  0.0944  0.2379  0.0483
42731W        W51531  26.114   2.355  15.239 -0.0208 -0.0563  0.1095
42732W        W51532  31.395   2.609   7.922 -0.1137  0.1649  0.0541
42733W        W51533  27.173   0.467  19.744  0.1323 -0.0194 -0.2040
42734W        W51534  26.537   7.199   6.378  0.0592  0.2804  0.0668
42735W        W51535  30.073   6.780  19.066 -0.1988 -0.1197  0.2262
42736W        W51536  30.362   7.122  24.397  0.0192 -0.1117  0.0248
42737W        W51537  15.334   4.094   2.249  0.1030  0.1160 -0.1813
42738W        W51538  20.220   7.765   3.270  0.0557 -0.2841  0.0099
42739W        W51539  14.404   3.731  21.676  0.0808 -0.0219  0.2477
42740W        W51540   2.557   0.771   6.766 -0.2115 -0.3453 -0.0910
42741W        W51541  19.061   5.510   3.024  0.1138  0.5240  0.0809
42742W        W51542  15.577   1.204   5.407  0.0105 -0.0009  0.5825
42743W        W51543   0.103   4.552  10.196  0.1752 -0.0829 -0.2009
42744W        W51544   9.212   4.288  22.574 -0.0480 -0.0435 -0.3578
42745W        W51545  12.209   2.128   5.064 -0.1097 -0.1444  0.0659
42746W        W51546  23.807   0.635  20.939  0.0410  0.0590 -0.1351
42747W        W51547   1.552   6.543   4.829 -0.1953 -0.0925  0.0873
42748W        W51548  13.314   2.027  20.238 -0.2290  0.1613  0.0578
42749W        W51549   0.833   6.337  23.308  0.2654  0.0064 -0.0263
42750W        W51550  22.967   7.537  18.348 -0.0293  0.1427  0.3343
42751W        W51551  23.511   2.226  18.584  0.0949 -0.0004 -0.2777
42752W        W51552  25.614   6.522  17.555 -0.0201 -0.1041  0.0014
42753W        W51553  22.921   0.689  21.857 -0.0148  0.0718  0.0875
42754W        W51554   5.293   6.411   6.021  0.1456 -0.2372 -0.1158
42755W        W51555  27.082   0.787  25.922 -0.0001 -0.1287  0.2812
42756W        W51556  28.702   3.260  21.708  0.2892  0.1769 -0.0679
42757W        W51557  23.401   4.630   7.540 -0.0758 -0.1190  0.1180
42758W        W51558  24.962   2.174   4.038 -0.2804 -0.0569  0.0530
42759W        W51559  10.356   7.455  16.876 -0.1518 -0.5426 -0.1915
42760W        W51560   8.487   1.369  19.949  0.0271  0.1294 -0.2112
42761W        W51561   3.520   2.738  24.500 -0.2164 -0.2183 -0.2370
42762W        W51562  25.601   1.398   4.583 -0.0540 -0.0631 -0.2548
42763W        W51563   6.794   6.972  21.345 -0.3085 -0.0486 -0.3716
42764W        W51564  27.927   6.137   1.117  0.0916 -0.0030  0.1530
42765W        W51565   2.576   2.517  22.881 -0.1152  0.0424 -0.1780
42766W        W51566  10.570   1.324  15.486  0.1574 -0.1097  0.0428
42767W        W51567   0.481   1.834   7.950 -0.0525  0.2161 -0.1656
42768W        W51568  15.249   0.287  18.405 -0.2485  0.2753 -0.1542
42769W        W51569  26.614   5.134  20.886  0.1039 -0.2718 -0.1778
42770W        W51570  30.539   2.164  25.818  0.0242 -0.0412  0.2371
42771W        W51571  10.347   6.058  24.462 -0.1326 -0.0895  0.0475
42772W        W51572  10.777   3.070  15.312  0.0125 -0.1459  0.0246
42773W        W51573  17.835   3.662   8.749 -0.1577 -0.0487 -0.1538
42774W        W51574  23.099   5.863   0.592  0.2800 -0.0588  0.0872
42775W        W51575  27.332   7.154  21.797  0.1106 -0.1912 -0.0064
42776W        W51576   7.807   4.883  15.252 -0.1634  0.2482  0.0250
42777W        W51577  12.018   7.822  20.799  0.0113  0.1944 -0.0936
42778W        W51578  25.647   1.875   0.784 -0.1116  0.0055  0.3438
42779W        W51579  12.660   3.897  22.951 -0.0506  0.0787 -0.2005
42780W        W51580  16.074   0.581  24.796 -0.0918  0.1273 -0.1020
42781W        W51581   6.503   5.257  10.651  0.2597  0.2748 -0.1795
42782W        W51582   2.003   4.212  23.328 -0.0358  0.2736  0.0841
42783W        W51583  26.879   5.995   7.342 -0.1670 -0.2322 -0.3076
42784W        W51584  28.087   0.937  15.720  0.1739 -0.1059 -0.1063
42785W        W51585  14.476   3.451   7.599 -0.4379  0.1283  0.1491
42786W        W51586  12.182   0.630   3.715 -0.2112 -0.3016 -0.1301
42787W        W51587  12.351   1.314  23.137  0.0249  0.1772 -0.1412
42788W        W51588  27.389   2.047  11.218 -0.0767  0.0482 -0.0180
42789W        W51589   3.993   6.280   6.085  0.1203  0.1717 -0.3010
42790W        W51590  18.309   0.444   6.984  0.0875 -0.1943 -0.0111
42791W        W51591  10.741   2.630  22.338 -0.0417  0.1149  0.0284
42792W        W51592  16.530   2.926  20.129 -0.1378 -0.2272 -0.1712
42793W        W51593  15.655   3.778   0.047  0.0724 -0.0518  0.1265
42794W        W51594  19.826   6.400   4.579  0.3792  0.2521  0.3866
42795W        W51595  15.257   4.529   0.593  0.3331  0.0005  0.1484
42796W        W51596  17.222   5.291  23.124  0.3876  0.0219  0.0522
42797W        W51597  10.776   2.012  20.449  0.1435  0.0064  0.0805
42798W        W51598   2.443   1.547  21.941  0.0275  0.1825  0.0305
42799W        W51599  24.998   1.277  22.854  0.0599 -0.1764 -0.2029
42800W        W51600  29.219   3.610   9.937  0.1051  0.0839  0.3571
42801W        W51601  22.674   7.499   2.083  0.0452  0.4445  0.0294
42802W        W51602  28.942   6.362  15.303  0.4365 -0.1241 -0.1109
42803W        W51603   7.999   6.941   5.099 -0.1013 -0.0334 -0.3589
42804W        W51604  30.800   6.148   7.315  0.2079 -0.3681 -0.1222
42805W        W51605  30.089   6.760   3.727  0.1088  0.0219  0.0403
42806W        W51606  28.504   4.089  21.399 -0.0925 -0.1574  0.3377
42807W        W51607  10.312   6.156  10.343  0.4216  0.0612 -0.0196
42808W        W51608   2.576   2.121  19.696  0.1425 -0.0274  0.2182
42809W        W51609  20.024   6.906  16.561  0.0377 -0.0541 -0.2127
42810W        W51610  14.523   3.870   7.971 -0.2825  0.2638  0.2929
42811W        W51611   3.105   7.528   3.863  0.0325  0.2486  0.1411
42812W        W51612   7.930   1.551  24.495  0.0784  0.0713  0.2153
42813W        W51613  26.260   3.003   9.936 -0.0732 -0.2516 -0.0135
42814W        W51614  28.343   6.111  19.800  0.0915 -0.0136  0.0155
42815W        W51615  31.076   0.959  18.119  0.3082  0.0428 -0.1132
42816W        W51616  24.353   2.762   6.101 -0.0346  0.2064  0.1307
42817W        W51617   9.431   3.027   5.286  0.2388  0.3338  0.0323
42818W        W51618  23.651   4.940  19.109 -0.0052 -0.3641  0.0802
42819W        W51619   3.480   7.578   4.225  0.1168 -0.1899 -0.0704
42820W        W51620  20.077   6.687  10.663  0.0554  0.0619 -0.1449
42821W        W51621   2.959   3.673  18.293 -0.0663 -0.0343  0.0464
42822W        W51622  24.838   4.239  14.978 -0.3238 -0.0142  0.0177
42823W        W51623  13.710   7.846   2.186  0.2217 -0.0332 -0.3359
42824W        W51624  24.929   1.373  25.924  0.1160 -0.0167 -0.1644
42825W        W51625  23.674   4.819  24.999  0.0748 -0.1054  0.3032
42826W        W51626  18.282   2.009   1.794 -0.1203 -0.2012 -0.1304
42827W        W51627  20.074   4.498  24.959  0.1390 -0.1550  0.0738
42828W        W51628  20.445   2.879  18.273  0.3482 -0.3663 -0.1361
42829W        W51629  10.166   6.675  25.604  0.0151 -0.0124 -0.0191
42830W        W51630   7.415   5.302  24.435 -0.1691  0.0933 -0.1771
42831W        W51631  10.507   4.961  16.914 -0.0253  0.0053  0.1312
42832W        W51632   8.366   3.630  19.558  0.2880 -0.1110  0.1342
42833W        W51633  19.936   1.785  15.708 -0.2339  0.2324 -0.1932
42834W        W51634   5.066   1.619  15.366  0.0605  0.1649 -0.2256
42835W        W51635  22.719   4.753  15.692 -0.1885  0.1011 -0.0754
42836W        W51636  13.269   1.463   1.477 -0.2888  0.0878  0.4124
42837W        W51637  28.850   3.882  17.753 -0.0097  0.1100 -0.0577
42838W        W51638  27.448   5.747  15.489  0.1295  0.1142  0.1702
42839W        W51639   1.344   5.509   4.463  0.0241  0.3155  0.1939
42840W        W51640  28.183   2.262  21.036 -0.2042 -0.1932 -0.0781
42841W        W51641  16.153   2.170   3.406 -0.0881 -0.0195 -0.0020
42842W        W51642  22.133   3.253  11.493 -0.2047 -0.1412 -0.0991
42843W        W51643   6.053   7.240   2.901  0.2138  0.0280  0.0455
42844W        W51644  17.634   4.877   1.395  0.2471  0.0244 -0.0739
42845W        W51645  24.841   1.998  25.267  0.1446 -0.0844 -0.3819
42846W        W51646  14.625   4.874   1.798 -0.0686 -0.0215  0.0344
42847W        W51647   7.762   7.112   1.009 -0.0789  0.1347  0.0017
42848W        W51648  25.883   1.371  22.719 -0.1014 -0.2877  0.0194
42849W        W51649   1.442   1.999   3.166  0.0530 -0.0040 -0.0870
42850W        W51650   5.731   2.038   2.929  0.1635 -0.1438  0.1129
42851W        W51651   4.898   5.616   9.489 -0.1345  0.0582 -0.0034
42852W        W51652   4.810   2.590  20.358  0.1424  0.0532 -0.1921
42853W        W51653  26.613   4.769   2.955 -0.1416  0.1719  0.0479
42854W        W51654  22.565   2.560  17.354  0.0213  0.1991 -0.0507
42855W        W51655   4.436   7.273   0.680  0.1895  0.1542 -0.3400
42856W        W51656   8.718   5.681  19.426 -0.0250  0.3564  0.0332
42857W        W51657  28.426   6.073   9.501  0.1058  0.0268 -0.1915
42858W        W51658  24.343   0.670  20.333 -0.0737 -0.4177 -0.1282
42859W        W51659  20.857   2.009   3.147 -0.0851  0.0773 -0.0271
42860W        W51660   9.265   0.768  17.730  0.2113  0.0920  0.1895
42861W        W51661   7.826   5.742   6.367  0.0193  0.1173  0.1746
42862W        W51662  24.007   3.449   8.507  0.0863  0.1475 -0.1517
42863W        W51663   6.188   3.737  22.670  0.1123  0.1898  0.1009
42864W        W51664  13.957   2.388   5.096  0.2585 -0.1229  0.0567
42865W        W51665  12.708   3.230  19.874 -0.1125 -0.2538 -0.4517
42866W        W51666   3.492   0.362  22.425  0.0571  0.0069 -0.1002
42867W        W51667   9.178   2.706  22.045  0.0430  0.4293  0.0273
42868W        W51668  22.121   1.225   1.671 -0.1977 -0.1380 -0.1222
42869W        W51669   0.514   3.455   5.202  0.3236  0.0973  0.1095
42870W        W51670   2.021   0.760  15.900  0.0526  0.6124  0.0041
42871W        W51671  13.881   0.320  21.495  0.1480 -0.0190  0.1992
42872W        W51672  12.066   5.020   7.093  0.0953 -0.3197  0.0060
42873W        W51673  25.378   0.240  19.316 -0.0358  0.0682 -0.0720
42874W        W51674   2.518   5.392   2.127  0.1829  0.0887 -0.1254
42875W        W51675  13.781   5.683   7.280 -0.3134 -0.4698 -0.0824
42876W        W51676  12.181   3.373  16.894  0.2136  0.0859 -0.0989
42877W        W51677  23.822   1.319   6.422 -0.0495  0.2377  0.0025
42878W        W51678  23.599   6.118   9.925  0.0890 -0.2777 -0.1406
42879W        W51679  11.317   7.437   3.899  0.1336  0.1729 -0.0993
42880W        W51680  26.598   6.455  18.676 -0.0961 -0.0333  0.2700
42881W        W51681  29.322   6.669  20.026  0.0484  0.1007  0.0703
42882W        W51682  29.523   4.506  22.281 -0.0067  0.3404 -0.2825
42883W        W51683  20.072   0.359  10.269  0.2720  0.1015  0.0138
42884W        W51684  22.834   3.372  21.886 -0.0959 -0.2533 -0.0550
42885W        W51685  12.346   5.306   3.161  0.1711  0.1270 -0.0955
42886W        W51686   4.913   4.895  15.609 -0.1261  0.1623 -0.1912
42887W        W51687  16.883   1.471   1.416 -0.1328 -0.1382  0.1793
42888W        W51688  27.672   6.715  21.708  0.1228  0.1904 -0.0600
42889W        W51689  13.311   3.358  18.576  0.0242 -0.1469  0.1332
42890W        W51690  24.283   6.798  17.486 -0.0759  0.2033  0.1203
42891W        W51691  28.306   7.614  18.185 -0.2351 -0.1901  0.3577
42892W        W51692  15.630   6.102  24.691 -0.3104 -0.2162 -0.2920
42893W        W51693  25.300   5.477  16.210 -0.1697 -0.0313 -0.3292
42894W        W51694  20.101   3.321  10.515 -0.1683 -0.0710  0.2555
42895W        W51695  26.694   4.185  22.672 -0.1658 -0.0142  0.0693
42896W        W51696  24.130   7.462   6.896  0.3554 -0.1441  0.3277
42897W        W51697  28.790   0.767   1.071  0.0732 -0.2143  0.2688
42898W        W51698  10.358   0.276   1.649  0.1626  0.1647 -0.0849
42899W        W51699  14.663   0.882   6.726 -0.1132  0.1455  0.1161
42900W        W51700  28.270   4.194  26.065 -0.0797 -0.1058  0.2060
42901W        W51701  20.270   5.795  24.935 -0.1663 -0.0074  0.2266
42902W        W51702   7.775   4.010  23.843 -0.0378  0.2082 -0.1923
42903W        W51703  23.072   4.830  21.539 -0.0350  0.0935 -0.4693
42904W        W51704   3.683   4.565   4.533  0.0205  0.0622 -0.1477
42905W        W51705  29.755   4.107  22.842  0.2213  0.2547 -0.1307
42906W        W51706  23.685   2.033  22.671  0.2820  0.2429  0.1124
42907W        W51707  15.143   5.410   2.149 -0.4045 -0.3936  0.1954
42908W        W51708   9.192   1.979   0.576 -0.0202 -0.2559  0.0761
42909W        W51709   5.699   4.000   0.545  0.1415  0.0313 -0.4229
42910W        W51710   3.939   2.294   4.259  0.0153  0.3201 -0.1022
42911W        W51711  12.242   3.415  19.614 -0.0866  0.0498  0.1440
42912W        W51712   5.695   5.204   7.778 -0.4010 -0.3298 -0.2187
42913W        W51713  14.921   1.863  20.880  0.1254  0.0993 -0.0517
42914W        W51714  18.080   2.445  25.566  0.1846 -0.3442 -0.2712
42915W        W51715  25.149   0.426  21.253 -0.0273 -0.2212  0.2995
42916W        W51716  21.969   5.951  19.077 -0.0445  0.0976  0.0872
42917W        W51717  11.574   6.139   8.955  0.0840 -0.2127 -0.0999
42918W        W51718  31.147   4.646   5.243 -0.2060 -0.0558 -0.1784
42919W        W51719  28.399   3.830  17.876  0.4683  0.1194 -0.0283
42920W        W51720  21.045   7.041   6.260  0.1782  0.0795  0.0428
42921W        W51721   3.399   4.297  21.225 -0.0417 -0.2810  0.0508
42922W        W51722  23.959   7.341  10.165  0.0665  0.1156  0.0746
42923W        W51723  26.296   4.472   8.982  0.1268 -0.2750  0.0749
42924W        W51724  14.414   1.447   1.578  0.0209 -0.0102  0.1752
42925W        W51725   8.212   4.369   3.919 -0.1503 -0.0996  0.0625
42926W        W51726  12.942   2.032   6.851 -0.0436  0.0632 -0.0565
42927W        W51727  13.905   7.848  15.464  0.0588 -0.0191 -0.1029
42928W        W51728  16.175   1.888   9.853 -0.0687 -0.0049 -0.1160
42929W        W51729  18.915   3.196   4.413 -0.0307  0.1241 -0.0938
42930W        W51730  16.784   0.863   6.008  0.2345 -0.1653 -0.0613
42931W        W51731  16.178   7.403  20.593  0.1745 -0.0787  0.1427
42932W        W51732  17.753   6.392   0.497  0.1642  0.0823  0.2192
42933W        W51733  25.373   4.839   5.549 -0.0499  0.1266  0.1800
42934W        W51734  24.954   1.038   7.165  0.0831 -0.0434 -0.1347
42935W        W51735   7.206   3.508  20.950 -0.0896 -0.0845  0.0301
42936W        W51736  23.867   2.311   0.009 -0.2287  0.3144 -0.2026
42937W        W51737  27.644   4.776  23.216  0.4047 -0.0807  0.0498
42938W        W51738   8.524   2.857  16.912 -0.1511  0.0221  0.0717
42939W        W51739  13.905   1.922   6.747 -0.2096  0.1145 -0.2544
42940W        W51740  22.434   3.883  17.515 -0.0216 -0.1172  0.0373
42941W        W51741   3.655   5.857   7.290 -0.2740  0.2132 -0.0502
42942W        W51742  13.370   7.347  17.968  0.0260 -0.0081 -0.1295
42943W        W51743  23.558   2.396   3.229 -0.0777  0.0229 -0.1087
42944W        W51744  11.668   2.859   5.031 -0.1157 -0.0966  0.0648
42945W        W51745  14.951   7.679   9.161 -0.3859  0.2818 -0.1511
42946W        W51746  17.167   7.642  22.850 -0.1202  0.0426 -0.1274
42947W        W51747   4.604   3.859  25.299  0.2545 -0.0108  0.1506
42948W        W51748  15.193   3.797   3.188  0.0079 -0.1043 -0.1482
42949W        W51749  19.502   5.936   0.586  0.0595 -0.3103 -0.1560
42950W        W51750   1.737   3.079   7.208  0.1766 -0.2556  0.0452
42951W        W51751  11.517   3.593   4.554 -0.0010  0.0635 -0.3333
42952W        W51752   6.097   7.118   3.947 -0.0947  0.0293  0.4041
42953W        W51753  21.288   6.017  20.026  0.0063  0.0947  0.3216
42954W        W51754  22.411   1.054   3.639  0.0396 -0.1718 -0.1195
42955W        W51755  13.648   6.703   4.081  0.1446  0.0852 -0.2850
42956W        W51756   0.006   4.075   3.221  0.4018 -0.2492  0.0299
42957W        W51757   4.138   0.503  16.459 -0.0892  0.0600 -0.0358
42958W        W51758  22.026   4.576   5.064 -0.1117  0.2766 -0.1223
42959W        W51759   9.684   3.392   0.245 -0.0466  0.1774  0.1003
42960W        W51760  13.015   1.682  23.574 -0.4940 -0.1749  0.2052
42961W        W51761   0.365   1.872  21.395  0.0982  0.3848  0.0602
42962W        W51762  21.670   3.199  19.443 -0.1179  0.1449  0.0563
42963W        W51763   9.482   7.828  20.985 -0.0297  0.1571 -0.1859
42964W        W51764  17.934   3.039   6.713 -0.2195  0.0284  0.0275
42965W        W51765  12.584   1.647  21.344  0.0623 -0.1819 -0.0309
42966W        W51766  30.702   2.728  10.050 -0.0709  0.2200  0.2876
42967W        W51767   9.539   5.899  26.075 -0.3174 -0.0492 -0.4206
42968W        W51768  14.404   3.809   1.625 -0.0330  0.0306  0.0090
42969W        W51769  20.195   2.707  16.101 -0.1406 -0.2603  0.0120
42970W        W51770  19.067   4.092   8.381  0.1971  0.0093 -0.1296
42971W        W51771   1.179   4.844   5.427 -0.3206  0.1543 -0.0151
42972W        W51772   1.050   1.345  26.058  0.0002  0.5046  0.1164
42973W        W51773   6.912   1.688  17.278 -0.3293 -0.0098  0.2221
42974W        W51774   3.075   7.665  16.861  0.1231  0.1194 -0.1118
42975W        W51775   6.027   4.239   5.179 -0.0773  0.0730  0.0439
42976W        W51776   0.998   2.231  24.950  0.2495 -0.0584 -0.2097
42977W        W51777  17.913   2.746   3.149  0.1329 -0.2006 -0.0224
42978W        W51778  16.460   4.908  18.566 -0.0885  0.2102  0.0698
42979W        W51779  11.438   4.486   2.932 -0.0772  0.3889 -0.1438
42980W        W51780  29.913   1.122  16.570  0.0975 -0.3100 -0.2607
42981W        W51781  17.828   0.212   7.026 -0.3744 -0.0702 -0.0419
42982W        W51782   4.777   0.247   0.177 -0.0086 -0.1160 -0.0119
42983W        W51783  12.642   6.387   0.871  0.0444  0.1049 -0.0142
42984W        W51784  23.499   5.789  22.083 -0.1437  0.1688  0.2251
42985W        W51785  10.829   6.657   5.112  0.0955 -0.1553  0.0878
42986W        W51786  25.105   0.572  18.035  0.2223 -0.2532 -0.1229
42987W        W51787  14.723   4.730  25.863 -0.1143  0.0156  0.1967
42988W        W51788   7.149   0.185   6.011 -0.1877  0.2624  0.1023
42989W        W51789  24.697   6.695  10.556 -0.0309  0.0831  0.1453
42990W        W51790  13.554   7.217   0.177 -0.1741 -0.0403  0.0543
42991W        W51791   3.057   3.523   0.847 -0.0064  0.3262 -0.2935
42992W        W51792  29.260   6.521  10.103  0.2929  0.1699  0.2254
42993W        W51793  25.231   1.302   1.848 -0.1785 -0.0202 -0.3118
42994W        W51794   7.975   5.002   1.900  0.1746 -0.0465  0.0949
42995W        W51795  28.584   7.078  25.111 -0.0643 -0.1095 -0.0514
42996W        W51796   5.223   6.038  19.382 -0.2730 -0.0608 -0.0032
42997W        W51797   9.884   5.349  10.102 -0.2873  0.0275 -0.0630
42998W        W51798   9.071   2.520  25.075 -0.0648  0.1148  0.2107
42999W        W51799  21.689   3.418  24.941 -0.0919  0.1151  0.1227
43000W        W51800   5.692   3.963   6.181 -0.0583 -0.3352 -0.0191
43001W        W51801  24.532   6.217   6.401 -0.2195 -0.0570 -0.1192
43002W        W51802   8.354   1.386  21.803  0.1615 -0.2213  0.0597
43003W        W51803   3.830   6.471   1.393  0.0807  0.2433 -0.1314
43004W        W51804  20.662   7.569   7.377 -0.1144  0.0647  0.1259
43005W        W51805  30.253   5.885   3.549 -0.1145 -0.1311 -0.2114
43006W        W51806  15.056   2.508   0.818 -0.0816 -0.1343 -0.1480
43007W        W51807  16.736   5.249  24.675  0.1335  0.0656  0.0948
43008W        W51808  12.771   2.375   2.370  0.0750 -0.0929  0.0323
43009W        W51809   7.957   3.957  21.603  0.3752  0.3099 -0.5618
43010W        W51810  27.655   5.268  17.877 -0.2308 -0.1415  0.0094
43011W        W51811  25.811   1.660  15.462 -0.0353  0.1288 -0.2148
43012W        W51812  10.789   4.045  17.555 -0.0783 -0.4054  0.0059
43013W        W51813   7.432   2.495   7.971 -0.1628  0.2504 -0.2230
43014W        W51814  17.620   1.092  25.271  0.0126 -0.3476 -0.1156
43015W        W51815  15.579   0.680  15.183  0.0243 -0.0844  0.0109
43016W        W51816  24.826   3.632   7.735  0.3788  0.3917 -0.0096
43017W        W51817  22.191   0.437  22.969  0.1073  0.0799 -0.2931
43018W        W51818  13.185   6.783   1.661 -0.0371 -0.0564  0.0067
43019W        W51819  22.924   0.738   5.099  0.1064 -0.1220  0.0874
43020W        W51820  28.330   6.474  18.813 -0.2281 -0.1608  0.1725
43021W        W51821   9.686   5.845  18.346 -0.0696 -0.1817 -0.0675
43022W        W51822   5.387   3.171   6.146  0.0491 -0.1874  0.1310
43023W        W51823  27.382   7.128   7.578 -0.1493  0.1892  0.2155
43024W        W51824  22.540   0.562  19.612  0.4450 -0.0241  0.0103
43025W        W51825   3.805   5.749   3.599  0.0706 -0.2887  0.0194
43026W        W51826   1.183   4.580  25.638  0.0104 -0.0770  0.0628
43027W        W51827  14.785   2.545  15.625 -0.0328 -0.1532  0.0208
43028W        W51828  27.312   1.139  18.703  0.4099 -0.2203 -0.3663
43029W        W51829   3.719   6.947  16.418 -0.1007  0.0804 -0.0154
43030W        W51830  24.294   5.798  22.749  0.3463  0.1313  0.0956
43031W        W51831  11.706   2.926  20.148  0.0184 -0.2515 -0.0892
43032W        W51832  29.410   1.249  23.887 -0.1256  0.0517  0.0288
43033W        W51833  28.923   0.265  20.330 -0.2640 -0.2528  0.2451
43034W        W51834   0.303   2.668  20.327 -0.0769 -0.0491  0.1385
43035W        W51835  18.836   4.848   6.421  0.0238 -0.1756  0.0059
43036W        W51836   2.669   3.269   0.711 -0.1292 -0.1159  0.0370
43037W        W51837  17.998   7.121  17.548  0.0575 -0.1152 -0.0212
43038W        W51838   1.973   2.270  17.701  0.3863  0.0446  0.1116
43039W        W51839  13.221   2.324  25.666 -0.1475  0.0328 -0.0847
43040W        W51840   1.922   1.494   8.863  0.0012 -0.0679 -0.1577
43041W        W51841  24.086   0.317  19.020 -0.1367 -0.0558  0.1060
43042W        W51842  28.924   7.705  15.747 -0.2109  0.0626 -0.1585
43043W        W51843   2.958   5.740   0.097 -0.0672 -0.0406  0.2025
43044W        W51844   2.419   6.178  24.064 -0.0077 -0.0347 -0.0138
43045W        W51845   8.505   0.773  21.410  0.1774  0.1525 -0.1663
43046W        W51846  25.729   1.949  16.272 -0.2284 -0.1812 -0.0077
43047W        W51847  12.625   3.326   6.901  0.2110  0.1346  0.0685
43048W        W51848   2.641   3.558   5.297 -0.0231  0.1789  0.3961
43049W        W51849  24.715   7.442   7.807 -0.2697  0.3999 -0.3581
43050W        W51850  13.938   1.149   2.212  0.1471 -0.3239 -0.0069
43051W        W51851   8.306   1.898  21.008 -0.2462  0.0049  0.2345
43052W        W51852   1.578   5.675   3.063  0.1162 -0.1940 -0.0161
43053W        W51853   3.137   6.611  24.029  0.2119  0.1535 -0.2423
43054W        W51854  19.422   7.117  21.872 -0.1753  0.0149  0.0188
43055W        W51855  22.141   7.089  21.786  0.2890 -0.0349  0.4000
43056W        W51856  20.680   0.493   3.773 -0.2115 -0.1007 -0.1757
43057W        W51857  12.207   4.530  22.100 -0.1751 -0.1381 -0.3901
43058W        W51858  15.885   0.018   7.311  0.4391  0.0624 -0.3253
43059W        W51859  11.950   6.799   5.783  0.1094  0.2603  0.0286
43060W        W51860   6.439   5.648   6.115 -0.0337 -0.1371  0.1737
43061W        W51861  10.319   5.721   8.169  0.0681  0.0487  0.0807
43062W        W51862   3.070   5.129  20.617  0.3490  0.1326  0.1437
43063W        W51863  12.152   0.278  17.809 -0.0565  0.2441 -0.0987
43064W        W51864  12.335   5.106   6.688 -0.0331 -0.0826  0.1843
43065W        W51865  23.532   0.515  10.381  0.0588  0.2362  0.2381
43066W        W51866   8.785   0.799  24.419  0.0141 -0.3308  0.0417
43067W        W51867   9.356   5.038   7.488 -0.1288  0.4948  0.0979
43068W        W51868  14.221   4.189  23.836 -0.0504 -0.0522 -0.1047
43069W        W51869  13.522   3.002  20.472 -0.2073  0.0332  0.1787
43070W        W51870  20.351   1.036   5.659 -0.0149  0.2963  0.1742
43071W        W51871  18.624   3.529   8.019  0.3518 -0.0751 -0.3858
43072W        W51872  18.378   0.947   0.071 -0.0949  0.0836  0.0431
43073W        W51873   4.483   1.591   2.868  0.4987  0.2248  0.1244
43074W        W51874  23.344   2.437  15.856  0.1025 -0.3096  0.1512
43075W        W51875  29.404   3.804  19.041 -0.1456 -0.3065 -0.0764
43076W        W51876  15.158   0.631  19.603 -0.2240  0.1629  0.2053
43077W        W51877  23.645   7.625  22.205 -0.1283 -0.2511 -0.0838
43078W        W51878  17.346   1.378   2.664  0.1060  0.1644 -0.0821
43079W        W51879  19.767   5.923   2.934 -0.0342  0.0570 -0.0556
43080W        W51880   9.485   2.584  18.431 -0.0114 -0.2467  0.0773
43081W        W51881  11.895   5.055  23.045 -0.3356  0.1472  0.1029
43082W        W51882   9.616   4.332   2.112 -0.0880  0.1967 -0.0549
43083W        W51883  20.684   3.577   9.664 -0.1309 -0.2315 -0.0493
43084W        W51884  13.133   4.279   1.967 -0.2986  0.4046 -0.0031
43085W        W51885   1.338   5.900  18.716  0.0625 -0.1710 -0.0954
43086W        W51886  12.230   7.796  19.499 -0.3313  0.2902  0.5859
43087W        W51887  20.121   4.606  18.152  0.0943  0.1593 -0.3713
43088W        W51888  19.615   4.234   4.420  0.2672 -0.2553 -0.0179
43089W        W51889  27.213   5.230  17.702  0.1604  0.0845 -0.0067
43090W        W51890  30.528   2.135   6.193  0.1298 -0.1239  0.0181
43091W        W51891  25.688   0.898  23.998 -0.3328  0.0831 -0.3173
43092W        W51892  22.272   3.272   8.639 -0.1535  0.0246 -0.3352
43093W        W51893  10.564   2.282  16.164  0.1333  0.0688 -0.0008
43094W        W51894  11.859   6.875   0.401 -0.1272 -0.0992 -0.1259
43095W        W51895  30.186   2.326  25.506  0.1792 -0.3837  0.1705
43096W        W51896  11.066   5.626  23.909 -0.0289  0.1194 -0.0495
43097W        W51897  27.747   0.675   5.409  0.2271  0.1444  0.0917
43098W        W51898  30.148   0.384  18.300 -0.0842 -0.0920 -0.0650
43099W        W51899  23.779   1.393   0.718  0.1841  0.3596  0.1423
43100W        W51900  10.820   1.857   8.585  0.1453  0.1204  0.2450
43101W        W51901   3.951   5.400   0.302  0.0479  0.2887 -0.2031
43102W        W51902  23.571   2.727   7.556  0.0295  0.1830  0.3189
43103W        W51903   1.408   2.702   4.775 -0.0491 -0.2153 -0.0832
43104W        W51904   6.745   6.051   2.346 -0.2567 -0.0895 -0.0211
43105W        W51905   4.602   4.525   3.825  0.0450 -0.0471  0.0639
43106W        W51906   2.034   5.637   3.854  0.2512  0.0518 -0.1642
43107W        W51907  12.045   0.878  19.702  0.0491 -0.0277  0.0997
43108W        W51908  11.854   6.373   5.994 -0.3128 -0.1563  0.0942
43109W        W51909  30.049   0.873   8.328 -0.1103 -0.0606 -0.1199
43110W        W51910   2.612   6.438   0.883  0.1250 -0.2032 -0.0852
43111W        W51911  16.910   7.742  17.733  0.2804  0.1113 -0.0311
43112W        W51912   8.387   2.865  19.072  0.1224 -0.1609  0.0678
43113W        W51913  11.328   3.054   4.645 -0.2057  0.0268  0.0985
43114W        W51914   4.209   1.442  24.005  0.1518 -0.2175  0.0494
43115W        W51915  18.165   0.436  16.600 -0.0797  0.2612 -0.1318
43116W        W51916  14.227   7.564  23.940 -0.3018 -0.0276  0.0368
43117W        W51917   8.045   3.205   7.118 -0.0474 -0.0494  0.2137
43118W        W51918  22.187   2.511   3.671  0.0037 -0.1839  0.1348
43119W        W51919  30.695   0.932  23.901  0.3303 -0.2204 -0.0362
43120W        W51920  15.303   6.922   0.839 -0.3631  0.1895 -0.2525
43121W        W51921  28.933   4.060   6.914  0.2118 -0.0608 -0.0036
43122W        W51922  12.202   1.694  16.649 -0.0687  0.0571  0.1275
43123W        W51923  17.076   3.301  17.867 -0.0351  0.3260  0.3228
43124W        W51924  15.742   5.206  20.743 -0.0183 -0.1847 -0.1715
43125W        W51925  17.074   1.615  19.106 -0.0549  0.0148 -0.0784
43126W        W51926  18.377   1.245  21.607 -0.0660  0.0021 -0.2291
43127W        W51927   3.385   5.770   8.666  0.1659  0.3712 -0.1364
43128W        W51928  21.104   1.936   2.651 -0.0605 -0.1574  0.2313
43129W        W51929  19.279   6.095   0.074  0.0917 -0.1184 -0.0012
43130W        W51930  31.398   4.857  23.166  0.1133  0.1765  0.3147
43131W        W51931  14.789   5.401   7.495  0.0258 -0.2923  0.1862
43132W        W51932   9.841   0.924   6.306  0.0064 -0.0785  0.0600
43133W        W51933   2.779   5.611  24.878 -0.1065  0.0034  0.1703
43134W        W51934  29.263   6.256  18.725 -0.1170 -0.2082 -0.1211
43135W        W51935   6.330   6.729   0.458  0.2292  0.1450 -0.1591
43136W        W51936  23.493   1.959   6.947 -0.2592 -0.1831 -0.1700
43137W        W51937  10.714   3.183   9.363  0.1572 -0.1753  0.1824
43138W        W51938  28.219   3.296   4.751 -0.0304 -0.1961 -0.2520
43139W        W51939  15.673   6.081   2.531  0.1201 -0.5310  0.0692
43140W        W51940  24.488   4.670  18.923  0.2739  0.0446  0.1705
43141W        W51941  14.487   1.805   6.106 -0.0937 -0.0184 -0.1457
43142W        W51942  26.477   6.027   4.839 -0.1648 -0.1302 -0.0371
43143W        W51943  23.635   3.020  10.159 -0.0079 -0.0608  0.0644
43144W        W51944  13.769   0.087   3.698  0.1329 -0.1147 -0.0959
43145W        W51945  13.068   5.551   1.772 -0.0366 -0.1281 -0.0601
43146W        W51946   8.069   4.048   6.699  0.0387  0.0337 -0.0041
43147W        W51947   9.406   0.999   1.380  0.3100  0.0220 -0.2088
43148W        W51948  21.981   4.096  17.387 -0.1103  0.0934 -0.0186
43149W        W51949  17.093   1.496  17.123  0.0426 -0.1834  0.0371
43150W        W51950  26.717   5.515  18.989 -0.2973 -0.3320 -0.0623
43151W        W51951  28.315   2.048   3.792 -0.0840 -0.2156 -0.0154
43152W        W51952  11.906   1.599   0.926 -0.1663  0.1674 -0.0179
43153W        W51953   3.236   5.443  18.396  0.0047 -0.0016 -0.0599
43154W        W51954  28.442   4.186   5.935  0.0018 -0.0075 -0.0307
43155W        W51955   8.762   2.714  14.673 -0.3292 -0.1250 -0.0191
43156W        W51956   4.398   2.224   4.129  0.1673  0.2228 -0.0481
43157W        W51957  20.703   2.144   9.712  0.1370  0.0310 -0.2618
43158W        W51958  26.457   1.950   4.609 -0.1909 -0.1124  0.3678
43159W        W51959  16.390   3.470  19.111  0.2291  0.2219  0.3028
43160W        W51960   3.820   2.358  23.925 -0.2323  0.2358  0.2785
43161W        W51961  19.136   2.992  23.691  0.0325  0.0688 -0.1950
43162W        W51962   1.998   2.179  24.130  0.0485  0.0114  0.2936
43163W        W51963  13.997   2.026   7.763 -0.1290  0.1926  0.2107
43164W        W51964   4.243   1.389   8.406 -0.1387 -0.1197 -0.2361
43165W        W51965  21.485   2.504  11.249 -0.0048  0.1296 -0.0858
43166W        W51966   8.347   3.109   8.059  0.1198  0.1779  0.2663
43167W        W51967  14.399   7.406   2.973 -0.1186  0.0675 -0.0367
43168W        W51968  15.955   6.873  20.593  0.1058 -0.1805 -0.1678
43169W        W51969  28.877   0.393   4.626  0.1407 -0.0926  0.2110
43170W        W51970  27.028   6.923  21.201 -0.0670 -0.1781 -0.0662
43171W        W51971  28.086   4.463  21.139 -0.3259 -0.3221  0.1404
43172W        W51972   7.513   3.029   4.530 -0.1925 -0.0089  0.1150
43173W        W51973   0.020   5.537  19.002 -0.0343  0.4144  0.0937
43174W        W51974   2.904   7.290  16.040  0.0126  0.1987  0.0199
43175W        W51975   3.889   0.580  23.511 -0.2945 -0.0760 -0.1895
43176W        W51976  22.948   3.684   0.026  0.0945  0.0719  0.1159
43177W        W51977  25.265   4.625   2.354 -0.3376  0.1536  0.1407
43178W        W51978  30.740   7.354  24.202  0.3071  0.0670 -0.0821
43179W        W51979  21.048   2.599  10.275  0.2112 -0.1855  0.0048
43180W        W51980  21.066   6.468   8.602  0.0092  0.0519  0.0037
43181W        W51981  20.322   0.451   9.713 -0.1773  0.2444  0.0203
43182W        W51982  12.568   4.899   5.383  0.2414  0.0790  0.0949
43183W        W51983   6.937   3.648   6.875  0.2086  0.1374 -0.0377
43184W        W51984   4.568   2.527  25.394  0.1101  0.1367 -0.2443
43185W        W51985  20.495   7.033   4.209 -0.2920  0.1409 -0.0517
43186W        W51986   3.267   7.330   7.630 -0.1621 -0.1376 -0.0915
43187W        W51987  15.649   7.664  23.075 -0.1702 -0.1070 -0.1263
43188W        W51988  28.630   0.139  18.211 -0.3352  0.1487  0.0182
43189W        W51989  13.506   5.083  24.301  0.3357  0.1526 -0.0640
43190W        W51990  24.660   3.853   8.770  0.2380 -0.1923  0.4208
43191W        W51991  18.521   5.072  18.418 -0.1151 -0.0954 -0.2351
43192W        W51992  29.507   3.149   6.902 -0.0316  0.0689  0.3452
43193W        W51993  17.726   7.585  22.727  0.1067 -0.2482 -0.1672
43194W        W51994   9.694   0.858   4.984 -0.1416  0.0554  0.0531
43195W        W51995   4.090   4.355  24.265 -0.2090  0.1152  0.1931
43196W        W51996   7.181   6.739  16.162 -0.2465  0.1805  0.0189
43197W        W51997   1.421   6.814  15.090 -0.0132  0.0816  0.0758
43198W        W51998   5.432   6.848   0.625 -0.0103  0.0592  0.1139
43199W        W51999  23.240   4.995  22.526  0.1113  0.1159 -0.4330
43200W        W52000  24.958   6.697  24.754  0.0291  0.1781  0.1579
43201W        W52001   3.481   5.049   9.705 -0.0550 -0.0578  0.3298
43202W        W52002  10.263   5.419   3.683 -0.1227 -0.2219 -0.0131
43203W        W52003  10.551   5.188   5.933  0.2240  0.0922 -0.0210
43204W        W52004  19.629   6.442  25.955 -0.0001 -0.1754 -0.1523
43205W        W52005   6.869   1.972   6.492  0.2010 -0.1470  0.2357
43206W        W52006   9.466   0.241  23.674  0.2381  0.0200  0.1280
43207W        W52007  24.954   6.697   1.444  0.2079 -0.3118  0.1606
43208W        W52008  19.645   7.779   1.553 -0.1269 -0.2520 -0.2519
43209W        W52009  19.255   3.256   9.370  0.2955  0.1773 -0.3500
43210W        W52010  27.713   5.803  17.894 -0.1469 -0.1255  0.2055
43211W        W52011  24.024   4.738   8.157  0.0832  0.1580 -0.2927
43212W        W52012  20.494   2.902  25.965  0.1782  0.0089 -0.0201
43213W        W52013  11.176   4.885   8.040  0.0034 -0.0149 -0.1336
43214W        W52014  30.445   0.705   6.209 -0.1791  0.1914 -0.1698
43215W        W52015  25.466   6.729  17.133  0.0331  0.0998  0.2566
43216W        W52016   2.965   3.702   8.033  0.3717 -0.3351  0.1639
43217W        W52017  28.311   1.716  17.465 -0.1059 -0.0112 -0.2006
43218W        W52018  26.334   3.292   2.902  0.3157 -0.1881 -0.1020
43219W        W52019  25.093   2.151   5.511  0.1935 -0.2186  0.1952
43220W        W52020  26.525   4.027  24.552  0.2629 -0.0440  0.0053
43221W        W52021  28.089   0.040   3.316  0.0994  0.0679  0.0324
43222W        W52022  19.505   6.982   7.501 -0.0383 -0.3023 -0.0892
43223W        W52023  22.918   3.138  22.743  0.1562 -0.0988 -0.2713
43224W        W52024  27.290   5.387   1.693 -0.0269  0.0812  0.0676
43225W        W52025  10.125   4.411  24.502 -0.0626  0.0990  0.4139
43226W        W52026  22.383   5.310   4.114  0.1086 -0.0779  0.0583
43227W        W52027   4.180   2.683  21.478  0.2990  0.0930 -0.2479
43228W        W52028  19.388   1.885  24.868  0.1178  0.1608  0.0249
43229W        W52029   5.445   2.782  15.792  0.1082 -0.0375  0.2029
43230W        W52030  16.183   3.356  18.213  0.3831  0.0079  0.0356
43231W        W52031  19.094   6.678   5.196  0.3301  0.2567 -0.0459
43232W        W52032  18.384   0.921  23.832 -0.4193 -0.1821  0.3744
43233W        W52033  21.428   7.007  25.810  0.0031 -0.1391  0.2001
43234W        W52034  13.623   5.800  22.776 -0.3727 -0.0047 -0.1009
43235W        W52035  13.004   1.960  10.632  0.1464  0.0349  0.4632
43236W        W52036  22.144   5.637  24.716  0.0005  0.0825  0.2326
43237W        W52037  10.683   6.252   3.880  0.0474 -0.1061  0.2359
43238W        W52038  19.950   0.122   5.609 -0.1791 -0.0684 -0.0287
43239W        W52039   8.294   5.284   4.328 -0.1131  0.0471  0.1175
43240W        W52040  30.439   4.525  15.285  0.1240  0.0932 -0.0218
43241W        W52041  23.359   7.589  10.038 -0.0020  0.0024  0.1217
43242W        W52042  14.275   7.625   5.243 -0.1710 -0.1925  0.1986
43243W        W52043   3.153   4.807   2.476  0.0253  0.1550  0.1960
43244W        W52044   2.850   1.875   0.822  0.1065 -0.1020  0.0306
43245W        W52045   1.903   7.214  17.674  0.2788 -0.3565 -0.1559
43246W        W52046  25.960   5.661  16.663 -0.2464  0.0619 -0.0479
43247W        W52047   8.508   3.459  22.581 -0.1041  0.0512  0.1461
43248W        W52048  27.994   1.311   2.507  0.0049  0.1089  0.0340
43249W        W52049   4.964   6.803  22.209 -0.2099 -0.0642  0.4557
43250W        W52050  30.707   2.622   5.375 -0.0323 -0.0745  0.0723
43251W        W52051  13.308   1.718  10.910 -0.0753 -0.0531  0.0681
43252W        W52052  30.390   6.197   6.970 -0.0360 -0.0743  0.2162
43253W        W52053  20.363   3.211   1.661 -0.0502  0.0028  0.2082
43254W        W52054  22.933   3.991   3.635 -0.1136 -0.0079 -0.1859
43255W        W52055   6.075   4.503  22.329  0.2763 -0.1615  0.4496
43256W        W52056  24.590   6.164  10.317  0.0923 -0.6527  0.2689
43257W        W52057  21.841   2.638  19.964 -0.1898 -0.0533 -0.2490
43258W        W52058   1.658   7.190  18.534 -0.2827  0.0795 -0.0448
43259W        W52059  27.501   4.156   7.718  0.1720 -0.0937  0.0910
43260W        W52060   9.164   5.059  24.656 -0.0875  0.1708  0.0382
43261W        W52061  15.400   5.003  21.601 -0.2105  0.1019 -0.1872
43262W        W52062   6.729   2.669  19.006 -0.3562 -0.2383  0.1512
43263W        W52063  12.011   5.956  20.128  0.0195 -0.2019  0.1616
43264W        W52064  17.842   7.698  19.606 -0.3710 -0.2233 -0.2739
43265W        W52065  25.732   5.211   0.740  0.0946 -0.0111 -0.0509
43266W        W52066  23.488   7.077  10.229 -0.2663  0.5616  0.3351
43267W        W52067  25.625   4.365  25.515 -0.2713 -0.0958 -0.0333
43268W        W52068   6.124   4.222  16.919  0.5426  0.2841 -0.0313
43269W        W52069  15.035   2.740   6.391  0.0857 -0.1525  0.2512
43270W        W52070  30.326   3.481  26.066 -0.1459 -0.2950 -0.0963
43271W        W52071  30.946   5.106  15.690  0.0666  0.0655 -0.1487
43272W        W52072  22.309   4.143  25.196 -0.2407  0.0997 -0.3406
43273W        W52073  16.057   2.504   9.311  0.0079  0.0014 -0.0395
43274W        W52074  10.150   2.336   3.191 -0.3407 -0.2856  0.3199
43275W        W52075   7.480   3.744  21.777  0.2552 -0.2306  0.0363
43276W        W52076  12.190   4.198   0.507  0.1826  0.1834  0.1010
43277W        W52077  13.664   2.050   3.644 -0.2838  0.0086 -0.0868
43278W        W52078  27.484   2.126  25.985  0.0372 -0.2627 -0.0332
43279W        W52079   0.369   0.672  18.328  0.5369  0.0377  0.0368
43280W        W52080  22.984   5.376  22.291 -0.1506 -0.1784 -0.1230
43281W        W52081   5.869   0.026  14.629 -0.3943  0.0964  0.0209
43282W        W52082  29.372   5.386   1.008 -0.0315 -0.1941  0.2427
43283W        W52083  20.953   7.081  23.046 -0.0321 -0.2301  0.0352
43284W        W52084  18.051   7.297   5.836  0.0551 -0.0165 -0.2116
43285W        W52085  19.930   4.218  22.786  0.0536 -0.1659 -0.2951
43286W        W52086  20.800   3.996  21.424  0.0394 -0.6188 -0.1179
43287W        W52087  26.067   5.130   2.053 -0.0383 -0.0135 -0.1719
43288W        W52088  30.009   6.481  17.338 -0.2494 -0.1547 -0.0008
43289W        W52089  19.149   2.553  22.555 -0.5360  0.0620  0.2843
43290W        W52090  18.625   3.267  22.139 -0.0427 -0.0805  0.0856
43291W        W52091   9.113   4.747   0.389 -0.0848 -0.1254  0.0720
43292W        W52092   7.318   4.252   9.589  0.0505 -0.1069  0.0706
43293W        W52093  10.576   1.474   3.233  0.2809 -0.0670 -0.0701
43294W        W52094  11.549   4.086  16.596  0.2446  0.0071  0.3514
43295W        W52095  17.111   3.512  19.539  0.1697 -0.1167  0.2589
43296W        W52096  22.834   5.994  24.362  0.1969  0.0500  0.4016
43297W        W52097   2.219   2.889   4.305 -0.1241 -0.3010  0.2155
43298W        W52098   2.202   7.340   9.356 -0.2893  0.1699 -0.0266
43299W        W52099  31.124   7.046  24.358  0.0906  0.0437 -0.1997
43300W        W52100  24.418   5.592  15.443  0.1854  0.0081  0.1806
43301W        W52101  28.009   1.885   9.885 -0.0464  0.1244  0.1744
43302W        W52102  24.646   5.354  20.199  0.1299 -0.2014  0.1584
43303W        W52103  21.883   6.287  16.060 -0.0006 -0.1570  0.1341
43304W        W52104  28.627   3.245  23.592  0.2069 -0.1221  0.1180
43305W        W52105  16.003   6.568   0.941  0.0323  0.2341  0.1160
43306W        W52106  15.385   6.660  25.703 -0.1271 -0.1088  0.0434
43307W        W52107  12.244   4.225   7.538  0.1281  0.2867  0.0525
43308W        W52108  27.593   7.716  17.584 -0.1557 -0.0217  0.3804
43309W        W52109  26.563   5.708   2.120 -0.4004  0.0880 -0.0794
43310W        W52110  30.700   2.592  22.183 -0.0181  0.3004 -0.2072
43311W        W52111  31.306   3.374  22.833  0.2656  0.0181 -0.1041
43312W        W52112  21.797   3.745  16.950  0.0054 -0.1191 -0.2239
43313W        W52113   6.604   4.728  24.710  0.0985  0.1897  0.0018
43314W        W52114  18.850   1.862  21.133 -0.2511 -0.1806  0.0004
43315W        W52115  11.569   3.326  18.045 -0.0543  0.2273  0.0984
43316W        W52116  26.047   7.739  20.462  0.4580  0.0244 -0.1645
43317W        W52117  18.769   5.056   9.475 -0.1774  0.0962 -0.0433
43318W        W52118  11.281   1.694   2.374 -0.0322 -0.0723 -0.2473
43319W        W52119  23.409   1.875   4.809 -0.2934 -0.0525  0.0955
43320W        W52120  23.822   7.294  24.313 -0.0241 -0.3358  0.1221
43321W        W52121   1.387   4.643  24.005  0.0558  0.0193 -0.1841
43322W        W52122   5.777   6.603  23.173 -0.4488 -0.0183 -0.0918
43323W        W52123   3.049   0.566   6.568  0.0967 -0.2712  0.1168
43324W        W52124  16.422   5.551  24.935 -0.1019  0.3482  0.1373
43325W        W52125  20.859   2.741  22.094 -0.1022 -0.1649 -0.2261
43326W        W52126  22.012   2.224  19.245 -0.2228  0.0586  0.1948
43327W        W52127   2.987   0.255  17.051  0.1848  0.2960 -0.0212
43328W        W52128  11.895   5.100   9.617  0.1988 -0.0052 -0.2712
43329W        W52129   1.531   0.714   1.604  0.2274  0.0260 -0.1258
43330W        W52130  20.717   4.926   1.500 -0.0526  0.2738 -0.0732
43331W        W52131  20.745   6.863   8.253 -0.0759  0.2121  0.1312
43332W        W52132   5.130   1.940  16.104  0.1409 -0.0617 -0.1142
43333W        W52133   6.807   6.565  11.003  0.0078  0.1949 -0.2389
43334W        W52134   6.135   2.455   6.788  0.0269  0.0450  0.1911
43335W        W52135  22.173   1.928   5.030 -0.0026 -0.0368  0.0013
43336W        W52136   3.061   1.506  14.443 -0.0743 -0.1272  0.0652
43337W        W52137  10.575   3.632  21.537  0.1724 -0.1434 -0.0092
43338W        W52138   8.886   1.169  16.414  0.0294  0.0384  0.0670
43339W        W52139   8.314   6.589  21.214 -0.1750 -0.2017  0.1104
43340W        W52140  19.033   1.617   5.705 -0.3502 -0.0944  0.1029
43341W        W52141   0.984   2.004  23.921  0.3687  0.1386  0.1295
43342W        W52142  30.143   3.931  20.856  0.0465 -0.2119 -0.0024
43343W        W52143  23.805   1.911   6.585  0.1351  0.1566 -0.0662
43344W        W52144  23.950   2.842   9.288 -0.1236 -0.0055  0.0927
43345W        W52145  29.463   2.453  23.136 -0.0551 -0.1946  0.2217
43346W        W52146   1.436   5.073   8.957 -0.1968 -0.3136 -0.2638
43347W        W52147   3.449   3.139   5.008 -0.1466  0.0335 -0.3443
43348W        W52148  23.956   5.343  15.242  0.1763 -0.0232  0.1229
43349W        W52149  17.603   5.610   7.242  0.0647  0.0056  0.1612
43350W        W52150   1.989   6.835  15.064 -0.0492 -0.1064 -0.1787
43351W        W52151   4.956   6.568   7.370 -0.0305 -0.3609  0.2652
43352W        W52152   3.591   2.277   7.384  0.0486 -0.2685  0.1589
43353W        W52153  12.521   7.347  10.776  0.0951 -0.4029  0.0385
43354W        W52154   5.133   6.230  22.012  0.2135  0.0256 -0.2361
43355W        W52155  18.057   6.554  25.099  0.1252  0.0981  0.1609
43356W        W52156  28.171   6.296  21.441 -0.1821 -0.0224 -0.2001
43357W        W52157   1.868   0.808   4.021  0.0510 -0.0779 -0.2185
43358W        W52158  21.774   2.565   5.097  0.2752  0.0478 -0.3526
43359W        W52159   0.382   6.039   0.084  0.0616  0.0656  0.1772
43360W        W52160  23.355   6.824   6.010 -0.2619  0.0612  0.0197
43361W        W52161   3.157   3.719  18.871  0.0510  0.1424 -0.0652
43362W        W52162  25.388   0.441  16.884 -0.0479 -0.2361 -0.1222
43363W        W52163   1.097   7.829   2.294  0.2003  0.0921  0.0243
43364W        W52164  26.169   5.957   3.213 -0.1247  0.1342  0.2563
43365W        W52165   1.973   1.818   0.825 -0.0331 -0.1699 -0.1762
43366W        W52166   6.588   3.556   2.015  0.0752  0.0279 -0.1369
43367W        W52167  19.576   7.572   1.061  0.1175 -0.2425 -0.0090
43368W        W52168  25.039   1.266   6.699  0.0599 -0.3383 -0.3634
43369W        W52169   1.727   3.018  20.833 -0.1309 -0.1573 -0.1446
43370W        W52170  21.590   4.054   9.383  0.1261 -0.3155  0.0790
43371W        W52171  27.004   1.841   3.796  0.1851  0.0525  0.0233
43372W        W52172  27.488   2.292  16.497  0.2752 -0.1990 -0.0670
43373W        W52173   2.035   6.995  17.235  0.0042  0.0345  0.0848
43374W        W52174  27.542   2.869  23.755  0.0581 -0.3888 -0.1223
43375W        W52175   1.216   2.652  24.922 -0.0067 -0.1744 -0.2282
43376W        W52176  22.910   6.144  21.526 -0.2170 -0.1171 -0.0940
43377W        W52177   8.653   3.837  16.914 -0.1191 -0.1819  0.1416
43378W        W52178   1.997   2.549   7.316  0.0346 -0.1115 -0.1830
43379W        W52179  11.965   1.198  21.849 -0.0577  0.2145 -0.0691
43380W        W52180  26.469   4.944   6.316  0.0052 -0.1177  0.2057
43381W        W52181   4.826   6.709  20.018  0.2836  0.0818 -0.0614
43382W        W52182  16.529   0.525  24.995 -0.0160 -0.1157 -0.1008
43383W        W52183  22.518   7.416  18.529 -0.1424 -0.0587 -0.1008
43384W        W52184  30.509   6.683  19.448 -0.1002  0.1789  0.1259
43385W        W52185   8.706   2.516   3.206 -0.0867 -0.0711 -0.1840
43386W        W52186  29.569   5.747   6.424  0.2245  0.0285 -0.0863
43387W        W52187  30.478   2.980   2.852  0.0894 -0.0101 -0.0798
43388W        W52188   3.283   7.634  21.523  0.1542 -0.0339 -0.1309
43389W        W52189   4.990   1.905  22.474  0.1327  0.0635 -0.0065
43390W        W52190  28.266   0.097   0.179  0.3288  0.0473  0.1563
43391W        W52191  26.472   2.681  24.230 -0.1467 -0.0980 -0.1366
43392W        W52192  18.234   1.744   0.308 -0.1748  0.0179  0.1103
43393W        W52193   7.207   0.006   2.579 -0.1651  0.0038 -0.1708
43394W        W52194   5.907   4.768   2.351 -0.0705  0.2963  0.0495
43395W        W52195  12.300   2.186   7.100 -0.0190 -0.0188  0.0793
43396W        W52196   2.580   2.306   6.226 -0.0005 -0.3819  0.0609
43397W        W52197   5.683   3.662   4.418  0.1247 -0.0112  0.1554
43398W        W52198   7.387   3.277  17.311 -0.1276  0.3793 -0.0550
43399W        W52199   8.178   0.579  10.499 -0.2104 -0.1481  0.1928
43400W        W52200  19.225   7.446  18.151  0.2686 -0.1104  0.3391
43401W        W52201   7.502   6.822  18.402  0.1287  0.1252  0.0199
43402W        W52202   1.905   0.553  19.215  0.1509 -0.2149 -0.1218
43403W        W52203  27.971   4.335   5.668  0.0195 -0.1437  0.0325
43404W        W52204  11.330   4.824  25.731  0.0333  0.0570  0.2072
43405W        W52205  14.646   0.582  24.436 -0.1633  0.0174 -0.0824
43406W        W52206   9.281   0.513   2.751  0.4175  0.0158 -0.2846
43407W        W52207  12.796   3.848   3.985  0.1389  0.1563 -0.1286
43408W        W52208  30.647   0.978   3.242 -0.1220 -0.0827  0.2479
43409W        W52209  23.601   1.331  19.721  0.1289 -0.1725  0.3683
43410W        W52210  18.334   2.615   0.243 -0.0659 -0.2955 -0.1492
43411W        W52211  12.559   4.970  22.962 -0.3205 -0.0735  0.0793
43412W        W52212  15.649   6.072  15.761 -0.0933  0.0897  0.0605
43413W        W52213  20.717   1.588   2.923 -0.0721 -0.1383  0.0798
43414W        W52214  11.164   1.952  21.176 -0.0069  0.1564 -0.3554
43415W        W52215  26.761   3.826  25.354  0.1148  0.2681  0.0202
43416W        W52216  29.580   3.235   5.796  0.1172 -0.0151  0.1581
43417W        W52217  29.401   1.007   2.090  0.4478 -0.1595  0.1053
43418W        W52218   6.040   7.462  16.578  0.1048 -0.0975 -0.1378
43419W        W52219   5.302   0.287   0.207  0.0644  0.0709  0.2350
43420W        W52220  15.722   1.033  14.903 -0.2274  0.1576  0.0804
43421W        W52221  20.889   0.299  24.575  0.1309 -0.0500  0.0318
43422W        W52222  24.132   6.749   9.399  0.0095 -0.2268  0.1534
43423W        W52223  26.883   5.520   3.650  0.0116 -0.0434 -0.1920
43424W        W52224  22.765   7.171  18.037 -0.1453  0.2394  0.0144
43425W        W52225   3.831   5.278   9.317  0.0084 -0.1631 -0.1013
43426W        W52226  29.595   6.488  25.145  0.0861 -0.0230 -0.4395
43427W        W52227  18.497   0.583   9.875 -0.3225 -0.0204 -0.0500
43428W        W52228  12.597   0.582   3.232 -0.2979 -0.2255  0.0273
43429W        W52229  22.330   2.702  21.172 -0.2004  0.1077  0.1529
43430W        W52230  28.256   0.196  21.335 -0.1254  0.1406  0.1828
43431W        W52231  25.953   5.310   2.488 -0.0490  0.0692  0.0941
43432W        W52232  20.450   4.453  23.339  0.1416  0.1795 -0.2808
43433W        W52233  30.426   3.500   2.147 -0.1377 -0.0508 -0.2081
43434W        W52234  11.281   5.071  25.215  0.0917 -0.1874  0.1978
43435W        W52235  15.793   2.620  15.533 -0.1706 -0.1825 -0.2219
43436W        W52236  10.329   2.683  22.022  0.1197 -0.2599 -0.1525
43437W        W52237  16.116   4.792  19.872 -0.1861  0.0006 -0.0512
43438W        W52238   9.154   6.342   2.546  0.1079 -0.1648 -0.3032
43439W        W52239  16.193   4.467   4.943 -0.2489 -0.0862 -0.1258
43440W        W52240  31.056   3.845  20.274 -0.0620 -0.0156 -0.0851
43441W        W52241   8.189   3.393   0.234  0.0273 -0.0653  0.2245
43442W        W52242  26.072   1.518  17.339 -0.0605 -0.1512  0.2378
43443W        W52243  12.270   0.866   7.639  0.1701  0.3121 -0.1097
43444W        W52244   9.922   3.767   7.111  0.1320  0.0446 -0.1285
43445W        W52245   9.306   0.452   0.858 -0.1863 -0.0118 -0.2675
43446W        W52246  16.283   7.134  21.019 -0.0532  0.0902  0.0148
43447W        W52247  20.795   1.252  11.031 -0.0332 -0.1579  0.1911
43448W        W52248  18.188   0.280   9.507 -0.2122 -0.0300  0.1694
43449W        W52249  17.237   4.962   8.240 -0.2135  0.0922  0.0823
43450W        W52250   9.027   0.291  17.896 -0.1579 -0.3617  0.3052
43451W        W52251   4.544   6.664   6.943 -0.1410 -0.0913  0.1203
43452W        W52252   9.038   6.725  23.319  0.0053 -0.1371  0.2425
43453W        W52253  15.773   5.017  24.466  0.0390  0.0720  0.1563
43454W        W52254  30.371   4.369  20.641 -0.2929 -0.0904  0.1094
43455W        W52255   2.366   2.961  20.245 -0.2256  0.0193  0.1558
43456W        W52256  28.501   0.360   7.475  0.1493  0.0938  0.2252
43457W        W52257  28.610   6.475  21.213 -0.0860 -0.0169  0.1114
43458W        W52258   5.132   2.222   7.230  0.0668  0.4028 -0.3456
43459W        W52259   9.710   0.833   8.309 -0.1683 -0.0075  0.0272
43460W        W52260   4.421   5.125   4.147  0.1111  0.0550 -0.1221
43461W        W52261  22.332   4.985   2.046 -0.1496  0.2878 -0.1332
43462W        W52262  10.733   5.248  16.423  0.3216 -0.2554 -0.1519
43463W        W52263  29.913   7.812  20.722 -0.0787  0.0611  0.0770
43464W        W52264  11.016   4.976  17.856  0.1694 -0.0204 -0.0342
43465W        W52265  29.071   3.256  24.260  0.1000 -0.0356 -0.1123
43466W        W52266   8.514   2.222  22.514  0.0323 -0.0879 -0.1212
43467W        W52267  16.534   0.645  17.189  0.0466 -0.0731 -0.1340
43468W        W52268  13.105   2.149   9.800  0.0612  0.3119 -0.1760
43469W        W52269  24.704   2.069  10.956 -0.0793 -0.1618 -0.0788
43470W        W52270  24.264   2.863  20.783  0.0149  0.3624 -0.0222
43471W        W52271  30.511   2.091   1.993  0.1822  0.0596 -0.1350
43472W        W52272  12.880   5.843   9.702 -0.0261 -0.2684  0.0258
43473W        W52273   1.186   4.081  25.902 -0.2879  0.0626  0.2536
43474W        W52274  18.488   5.513  19.299  0.1516  0.2494 -0.2360
43475W        W52275  26.526   0.337   7.102  0.0471 -0.0832  0.0099
43476W        W52276  20.234   3.849  24.905  0.1197 -0.1389 -0.1054
43477W        W52277  28.298   1.086   2.184 -0.2203 -0.2191  0.0891
43478W        W52278  30.565   4.932  21.256 -0.0792  0.1336  0.0042
43479W        W52279  30.863   7.277  22.031 -0.2031  0.2483 -0.2629
43480W        W52280  19.109   6.630  23.973 -0.4361 -0.1261 -0.3577
43481W        W52281  30.789   0.283   3.170 -0.1628  0.1551  0.0655
43482W        W52282  16.373   6.588  11.041  0.0618  0.0092  0.0725
43483W        W52283   5.980   6.984  16.431  0.0403  0.2721  0.0027
43484W        W52284   1.508   1.574  25.950 -0.0077 -0.0522 -0.0834
43485W        W52285   8.971   2.104   4.846 -0.1000  0.1342 -0.1121
43486W        W52286  29.711   2.171   8.755 -0.0093  0.1213  0.1329
43487W        W52287  11.528   0.788  10.303 -0.1035 -0.0186 -0.0168
43488W        W52288  19.393   2.842  20.382 -0.1478  0.2862 -0.2830
43489W        W52289   1.153   5.685   1.755 -0.1000 -0.1289  0.2038
43490W        W52290  27.185   5.397  24.236 -0.0121 -0.1989 -0.2448
43491W        W52291  27.089   6.034  25.042 -0.0362 -0.2659 -0.0252
43492W        W52292  14.033   3.291   3.446 -0.0030 -0.2213 -0.0454
43493W        W52293  20.512   7.394   6.876 -0.1741 -0.0621 -0.0763
43494W        W52294  12.866   5.443   8.911  0.0526 -0.1951 -0.2386
43495W        W52295  11.499   6.879  25.058  0.0208 -0.1853  0.1757
43496W        W52296  27.495   6.106   2.160 -0.2578  0.1567  0.2128
43497W        W52297   3.635   7.398  10.789  0.1789 -0.1056 -0.1504
43498W        W52298  22.691   6.480  17.457  0.2135 -0.1304 -0.2597
43499W        W52299  18.630   4.577   8.038 -0.0812  0.1784  0.2289
43500W        W52300  22.342   3.002  15.940  0.2291 -0.0166  0.3273
43501W        W52301  29.005   6.211  23.772 -0.0245 -0.2138 -0.0187
43502W        W52302  12.222   2.428   6.300 -0.2642  0.0721 -0.1850
43503W        W52303   8.600   6.285   2.024 -0.3583  0.1621  0.1814
43504W        W52304  18.202   5.745  24.223 -0.0272  0.2313  0.1516
43505W        W52305  16.152   7.785  24.211 -0.0667  0.1250 -0.1855
43506W        W52306  23.152   5.087   1.077 -0.0573  0.3211 -0.1202
43507W        W52307  30.464   4.405  23.869 -0.2733 -0.0355 -0.0040
43508W        W52308  19.801   6.523  23.165 -0.4391  0.1454  0.1670
43509W        W52309  13.093   1.123  23.949  0.1621  0.0127 -0.2456
43510W        W52310  24.968   3.340  25.999  0.3014  0.0194 -0.0070
43511W        W52311   0.461   5.050   4.106  0.0392 -0.2539  0.1203
43512W        W52312  15.215   5.480   8.529  0.1066 -0.2346 -0.3462
43513W        W52313  25.872   7.766   0.554  0.2029  0.0783 -0.2174
43514W        W52314  27.230   4.833  17.377  0.1353  0.0417  0.1104
43515W        W52315  11.388   0.965  16.748  0.1989  0.0126 -0.1403
43516W        W52316   0.048   2.219   3.515 -0.1108 -0.2555 -0.1342
43517W        W52317  18.851   7.650  15.257  0.2292  0.0651  0.3241
43518W        W52318  16.528   3.056   7.964  0.2040  0.1490 -0.1829
43519W        W52319   9.898   1.646  16.310  0.4238  0.1574  0.1239
43520W        W52320  18.533   3.564   9.941  0.3531  0.1292 -0.1236
43521W        W52321  17.002   1.939   1.262  0.0015  0.1117  0.0872
43522W        W52322   5.265   6.040  17.648  0.1453 -0.1465 -0.1339
43523W        W52323  29.939   7.279  18.991 -0.0020  0.3200  0.1472
43524W        W52324  16.867   5.660  21.313  0.1266  0.0979  0.3127
43525W        W52325  20.022   4.151  11.013  0.2194  0.0730  0.0467
43526W        W52326   1.857   3.453   9.229  0.0247  0.0781 -0.3213
43527W        W52327  27.320   5.202  23.127  0.0888  0.0080 -0.1094
43528W        W52328  26.644   7.383   8.270  0.2119 -0.0567  0.2243
43529W        W52329  11.030   3.659  21.619  0.0072 -0.3640  0.3510
43530W        W52330  27.011   1.285   8.370  0.1908 -0.4065 -0.1763
43531W        W52331  13.462   0.119   5.387 -0.1583 -0.2772  0.1780
43532W        W52332  22.594   3.866   7.314  0.3582 -0.2498 -0.0558
43533W        W52333  19.116   5.600  16.969  0.1847 -0.0310  0.0011
43534W        W52334  25.565   0.805   9.918 -0.1210  0.3927  0.1044
43535W        W52335  17.784   7.073  10.018 -0.1445 -0.0378  0.0142
43536W        W52336  28.851   2.466  25.209 -0.1060  0.3825  0.0443
43537W        W52337  18.114   0.254   1.953  0.2478 -0.0484  0.2825
43538W        W52338  13.399   3.078  10.842  0.0463  0.1179  0.0865
43539W        W52339  14.918   1.018   1.777 -0.1850 -0.1865  0.0422
43540W        W52340   0.613   5.286   7.780 -0.1780 -0.0776 -0.1263
43541W        W52341  16.311   2.472   1.048  0.1050  0.1865  0.1072
43542W        W52342  27.896   4.923  25.373  0.0273 -0.1325 -0.0741
43543W        W52343  22.862   3.058  15.813 -0.2663  0.1466  0.2316
43544W        W52344  18.200   4.207  20.068 -0.1235  0.0333 -0.4166
43545W        W52345  18.430   5.056  22.557  0.0393 -0.1186 -0.0873
43546W        W52346  21.877   2.907   4.332  0.4140  0.2808  0.0654
43547W        W52347   9.006   3.985   5.630 -0.0091  0.0296  0.2739
43548W        W52348  21.544   0.166  19.434  0.2841  0.0901 -0.1304
43549W        W52349  18.818   2.061   5.110 -0.0327  0.0166  0.2132
43550W        W52350   3.226   0.012   9.226 -0.0863  0.2498 -0.0911
43551W        W52351  15.043   0.171   1.271 -0.2886  0.1905  0.2203
43552W        W52352  28.906   1.470   6.876  0.1451  0.1856  0.2863
43553W        W52353  18.107   7.724  25.351  0.0188  0.4421  0.0352
43554W        W52354   4.725   1.377   1.129 -0.1454  0.0288 -0.3400
43555W        W52355  26.070   7.599  19.478  0.1257  0.1935  0.1236
43556W        W52356  20.059   5.992  21.445 -0.0176  0.1439 -0.2711
43557W        W52357   2.657   1.089   1.751  0.1160 -0.2145 -0.1543
43558W        W52358  24.397   1.592  19.490  0.0561 -0.0202  0.1988
43559W        W52359  20.407   1.749  19.200 -0.0714  0.2906 -0.1863
43560W        W52360  14.619   1.813  23.337  0.0357  0.0150 -0.3337
43561W        W52361  13.246   2.839  24.962 -0.1502 -0.1484 -0.2571
43562W        W52362  14.847   5.102   6.270 -0.2384 -0.1087 -0.4036
43563W        W52363  10.324   6.055  23.902  0.0894  0.1757 -0.0138
43564W        W52364  12.539   4.933  24.302  0.2758  0.0914  0.0960
43565W        W52365  27.376   3.271  18.418  0.0070 -0.0084 -0.1906
43566W        W52366  20.769   0.472  18.922  0.1496 -0.2060 -0.0229
43567W        W52367  22.488   0.164  15.269 -0.1064  0.1117  0.1239
43568W        W52368  29.465   4.477   2.321  0.0229  0.0123  0.0954
43569W        W52369   5.698   3.421   1.031  0.2212  0.0707  0.2495
43570W        W52370  24.514   1.595   2.514  0.0648  0.0092 -0.0888
43571W        W52371  19.211   5.620  10.234  0.0068  0.0824 -0.0862
43572W        W52372  29.593   1.697   4.532 -0.0432 -0.1133 -0.2772
43573W        W52373  13.419   5.971  21.481 -0.0486 -0.2091 -0.0747
43574W        W52374  20.368   3.806  11.036  0.0340  0.1578  0.1252
43575W        W52375   9.784   1.410   2.973 -0.2475  0.1246 -0.2748
43576W        W52376  12.146   6.402  25.001  0.2032  0.0151  0.0377
43577W        W52377  24.044   7.189  23.022  0.1716 -0.2155  0.1534
43578W        W52378   1.681   5.234   1.885 -0.1257  0.2092 -0.0561
43579W        W52379  24.290   0.953  21.727 -0.3852  0.1804 -0.2208
43580W        W52380  14.478   0.378  22.049 -0.3300  0.0529  0.0633
43581W        W52381  30.114   3.241   6.238 -0.1036  0.1330  0.0053
43582W        W52382  20.784   0.309   8.712 -0.3351 -0.0086  0.2995
43583W        W52383  11.140   7.676   1.487 -0.0897 -0.0925 -0.1480
43584W        W52384  26.365   2.081  18.910  0.2066  0.0656  0.2010
43585W        W52385   9.798   2.284   3.514  0.0411  0.2128 -0.2106
43586W        W52386   8.577   5.684  25.166 -0.3392  0.0389 -0.1638
43587W        W52387  15.896   1.658  20.594 -0.0784 -0.1425  0.0654
43588W        W52388   7.439   6.686  10.250  0.1391 -0.2096 -0.0020
43589W        W52389  15.723   3.844  16.392  0.2948 -0.0564 -0.2253
43590W        W52390  31.190   7.200   2.949 -0.0612  0.0797  0.1512
43591W        W52391   6.304   7.070  24.880  0.0657  0.0962  0.0611
43592W        W52392   4.316   2.825  21.039 -0.1326 -0.0477 -0.2427
43593W        W52393   8.353   2.575  18.127 -0.2407 -0.1354  0.1206
43594W        W52394   5.862   0.329  17.054 -0.1595 -0.0259  0.0954
43595W        W52395  10.086   7.185  15.953 -0.1693  0.0127  0.2681
43596W        W52396   3.230   6.433   4.565 -0.3718  0.0696 -0.1275
43597W        W52397  29.682   4.740   9.914  0.0738 -0.1025 -0.0545
43598W        W52398   0.024   4.358  22.936 -0.1027 -0.0206  0.0837
43599W        W52399  29.642   1.713   7.900 -0.1555  0.0791 -0.2840
43600W        W52400  27.262   5.859   8.801 -0.2269  0.0111 -0.0780
43601W        W52401  12.451   1.234   1.787 -0.0501 -0.1354  0.0992
43602W        W52402   2.414   7.558  24.129 -0.1009 -0.0489  0.1703
43603W        W52403  18.508   2.500  21.322  0.1084 -0.2106  0.0575
43604W        W52404   4.060   1.499   7.976 -0.0989 -0.1499  0.1409
43605W        W52405  22.431   3.903   2.110 -0.3580  0.1303  0.1528
43606W        W52406  24.877   6.294  20.161 -0.1454  0.1194  0.0462
43607W        W52407  27.032   1.308   0.912 -0.0449  0.2792 -0.0167
43608W        W52408  27.053   0.743  14.916 -0.3819  0.4881  0.1445
43609W        W52409  14.963   5.604  15.781 -0.0850 -0.2309 -0.1648
43610W        W52410  28.869   7.308  10.068 -0.0987  0.0896 -0.0570
43611W        W52411   7.621   5.768  22.198  0.1000  0.4430 -0.1453
43612W        W52412  17.160   1.623   5.495 -0.0024 -0.2387 -0.0019
43613W        W52413  11.544   1.404   0.665  0.2427  0.1851 -0.2647
43614W        W52414  29.369   5.600   7.784  0.1033  0.1127  0.0188
43615W        W52415   5.697   5.537  25.068  0.1289  0.2658 -0.0943
43616W        W52416  17.241   7.659  22.311  0.0618  0.1599 -0.1589
43617W        W52417   8.554   1.208   2.934 -0.0145 -0.2026  0.2215
43618W        W52418   5.459   0.844   8.573 -0.1080  0.3514 -0.0503
43619W        W52419  19.627   2.803   5.895  0.1040 -0.3478  0.2113
43620W        W52420   5.330   4.357   5.785 -0.2785 -0.1958  0.3864
43621W        W52421  26.784   3.929  20.741 -0.2161  0.0013  0.0154
43622W        W52422  25.395   0.295  22.907 -0.0438 -0.0788  0.1929
43623W        W52423  19.642   2.495  17.809  0.2826  0.4297  0.0723
43624W        W52424  21.307   2.348   2.102  0.0999  0.2443 -0.1169
43625W        W52425  16.556   0.266   3.127 -0.2427  0.3786 -0.1035
43626W        W52426  12.860   7.855   6.992 -0.0406  0.2162 -0.1350
43627W        W52427  16.007   6.517   8.055 -0.2246 -0.0676  0.4302
43628W        W52428  28.508   7.493  16.007  0.1378  0.4237  0.2373
43629W        W52429   2.513   6.002   2.549 -0.0750 -0.0874  0.1056
43630W        W52430  17.684   2.501   9.328 -0.0597  0.0523 -0.0516
43631W        W52431  20.264   3.290   9.704 -0.0853  0.0334 -0.1016
43632W        W52432   5.702   4.869   5.149 -0.0901  0.0262  0.2952
43633W        W52433   1.213   5.252   3.549 -0.0971  0.1167 -0.0224
43634W        W52434  11.926   1.125  10.201  0.0386  0.2281 -0.1519
43635W        W52435  13.861   6.919  20.273  0.0886  0.0926 -0.0777
43636W        W52436  30.993   3.705   3.346  0.2026 -0.3108  0.2142
43637W        W52437  27.846   3.441   1.073  0.0420  0.1825  0.2915
43638W        W52438   9.328   7.846  25.098 -0.1698  0.1691 -0.1599
43639W        W52439  17.897   2.591  26.034 -0.0080 -0.0283 -0.0244
43640W        W52440  12.062   6.328   2.468 -0.0191 -0.0941  0.1327
43641W        W52441  15.449   4.197  16.140  0.0941  0.0525  0.0033
43642W        W52442  30.356   7.151  19.285 -0.0583 -0.2100  0.1860
43643W        W52443  14.152   4.016   2.961  0.0970  0.1247 -0.3518
43644W        W52444  16.787   4.778   6.912 -0.0878  0.0563 -0.0994
43645W        W52445   1.012   7.089  22.020 -0.1551  0.1725  0.2004
43646W        W52446  27.182   3.225  23.936  0.2870  0.1448  0.0447
43647W        W52447  14.967   1.614  17.194  0.0594  0.0367  0.0930
43648W        W52448   8.482   1.069  15.696 -0.1062 -0.2311  0.1829
43649W        W52449   7.226   6.572  22.370 -0.3399  0.1054 -0.0571
43650W        W52450  27.437   4.853  22.732 -0.1027  0.1303  0.2945
43651W        W52451  23.756   6.483  19.015 -0.1809 -0.2934 -0.1559
43652W        W52452  19.682   2.652  15.891  0.3359 -0.2248  0.0116
43653W        W52453  29.977   6.125  16.972  0.2281 -0.0457 -0.1003
43654W        W52454  29.637   1.337   8.333  0.1387  0.2736  0.2210
43655W        W52455  17.876   1.638  15.992 -0.0545 -0.0881 -0.0481
43656W        W52456  11.300   3.440   6.320  0.2100 -0.0933  0.0386
43657W        W52457   5.137   7.608  19.804 -0.3222 -0.1790 -0.2553
43658W        W52458   4.854   2.729  19.374  0.0844  0.1699 -0.0187
43659W        W52459   1.119   5.971  21.960 -0.3804 -0.1403 -0.0621
43660W        W52460   6.081   5.135   7.416 -0.0620  0.0373 -0.0217
43661W        W52461  12.824   2.428  21.551 -0.0956 -0.0403 -0.0219
43662W        W52462  15.571   5.718  20.594  0.0870  0.1831  0.2313
43663W        W52463   3.384   5.768  24.549 -0.0516  0.0955  0.4018
43664W        W52464  19.592   5.554   4.536  0.2211  0.1738 -0.2023
43665W        W52465  24.372   4.722  18.021  0.0753 -0.2535 -0.4191
43666W        W52466   9.290   1.923   2.582 -0.1226 -0.0560  0.0378
43667W        W52467  18.776   5.417   1.609  0.4051 -0.2647 -0.0464
43668W        W52468   7.010   3.086  21.697  0.0010  0.0444  0.1732
43669W        W52469   8.732   7.007  19.776  0.1514  0.0355  0.3868
43670W        W52470  19.206   1.175   2.125 -0.3515 -0.1514 -0.0397
43671W        W52471   4.845   2.838   3.444  0.2943  0.0338  0.3412
43672W        W52472  29.508   6.540   6.907  0.3135  0.2048  0.1387
43673W        W52473  15.071   6.295   4.524  0.3176 -0.1657  0.2766
43674W        W52474  27.072   6.065   0.250  0.2952  0.2864  0.1302
43675W        W52475  19.467   1.051  21.546  0.0674 -0.0100 -0.1518
43676W        W52476   6.335   6.076  14.581 -0.0025  0.0656  0.2485
43677W        W52477  15.274   5.350  10.470 -0.1713 -0.1700  0.0553
43678W        W52478  16.675   3.702   5.118 -0.2513 -0.0173  0.2763
43679W        W52479  30.136   6.313  10.004 -0.0886  0.1069  0.2796
43680W        W52480  17.645   3.650  25.072 -0.0341  0.2128  0.0587
43681W        W52481  16.366   4.413  18.309  0.0230 -0.0187  0.1173
43682W        W52482  10.654   0.678  22.464  0.1198 -0.0426  0.0811
43683W        W52483  18.865   0.892   6.496 -0.4433 -0.2097 -0.0020
43684W        W52484  15.932   4.210  21.504 -0.2736  0.1910 -0.0191
43685W        W52485  21.702   0.998   7.291 -0.3031  0.0174 -0.0927
43686W        W52486  16.645   3.429   5.570  0.0721 -0.1639  0.1675
43687W        W52487  11.387   3.191   7.424  0.1811 -0.2413  0.3966
43688W        W52488  26.265   6.957  10.601 -0.4431  0.0104 -0.0350
43689W        W52489   7.003   7.154  15.401 -0.2131 -0.1523  0.0985
43690W        W52490  20.508   3.925   7.221  0.0703  0.1479 -0.0503
43691W        W52491  10.669   7.757   1.496  0.2145 -0.0292 -0.0301
43692W        W52492  20.990   0.663   3.309 -0.1953  0.2018  0.2431
43693W        W52493  23.719   4.226   1.888 -0.0716 -0.0627 -0.0267
43694W        W52494   3.230   1.244   3.081 -0.1763  0.0428  0.0606
43695W        W52495  27.854   2.424  23.589  0.2625 -0.0948 -0.1059
43696W        W52496  19.126   1.586   9.185 -0.0229  0.0520  0.1449
43697W        W52497  28.164   0.900   5.062 -0.2241  0.1312  0.1915
43698W        W52498   5.761   0.210  19.581  0.2041  0.0458 -0.0517
43699W        W52499  12.355   1.155  19.382 -0.1204  0.1098 -0.0373
43700W        W52500  22.605   6.578   7.829  0.3416  0.1167  0.0405
43701W        W52501  18.493   7.386  20.121 -0.1373  0.1105 -0.1835
43702W        W52502  21.516   4.155   8.842  0.0121  0.0734 -0.0842
43703W        W52503  11.204   0.327   9.359  0.0355 -0.0590 -0.1034
43704W        W52504  22.197   1.631   7.814  0.0586 -0.1436  0.0932
43705W        W52505   5.445   5.974  24.606 -0.1309  0.0285  0.1462
43706W        W52506  18.755   5.811  23.652 -0.2420 -0.0506  0.1954
43707W        W52507   3.178   4.063   8.328 -0.0767 -0.2352 -0.0308
43708W        W52508  26.468   3.242   5.148 -0.0081 -0.0415  0.0691
43709W        W52509   2.527   3.819  22.157 -0.0482  0.0405  0.2223
43710W        W52510  14.601   5.355   9.753 -0.1473 -0.2297  0.3444
43711W        W52511  22.609   7.095   2.451  0.0899 -0.3055  0.2399
43712W        W52512  19.713   0.072   0.700 -0.0443 -0.0114 -0.2095
43713W        W52513  25.821   3.734   2.503  0.0036 -0.1435  0.3148
43714W        W52514  28.562   5.670  16.691 -0.0675 -0.1366 -0.2562
43715W        W52515  22.433   3.254   4.861  0.2017 -0.2030  0.3635
43716W        W52516  27.176   7.076   8.061  0.0585  0.0799 -0.0245
43717W        W52517  13.609   1.706   9.522 -0.0335 -0.2450  0.2139
43718W        W52518   6.970   3.987  18.530 -0.1175 -0.2545  0.1682
43719W        W52519  13.374   5.805  20.515 -0.4101  0.0528 -0.0476
43720W        W52520  23.225   2.531  18.063 -0.0896  0.3254 -0.3881
43721W        W52521   7.425   3.267   4.103 -0.1085 -0.1128  0.0430
43722W        W52522  17.261   2.258   4.184 -0.1110  0.1298 -0.0065
43723W        W52523  17.320   1.961   0.172  0.0188  0.2939  0.0908
43724W        W52524  11.802   2.212   5.605 -0.0911  0.0754  0.0465
43725W        W52525  14.226   5.661  23.786 -0.0180 -0.0914 -0.0560
43726W        W52526   0.758   0.554   8.431  0.0497 -0.1788  0.2226
43727W        W52527   2.611   0.289   6.200 -0.0856  0.1932  0.0910
43728W        W52528  27.270   5.954   3.915  0.2205 -0.0841  0.0522
43729W        W52529   2.558   7.446  10.125 -0.0788 -0.0258  0.0361
43730W        W52530  27.670   4.305   4.351  0.0714 -0.1333  0.0205
43731W        W52531  17.002   6.301  22.298  0.1664  0.3807 -0.0527
43732W        W52532  17.794   1.234   6.205 -0.0896 -0.1650 -0.0044
43733W        W52533  23.340   1.378  20.672  0.1523 -0.0453 -0.3493
43734W        W52534  20.577   4.984  23.307  0.0958 -0.2141  0.0784
43735W        W52535   4.455   7.851   5.407  0.1070  0.0118 -0.0122
43736W        W52536  23.194   0.776  15.761  0.0740 -0.1001 -0.1852
43737W        W52537  10.448   4.690  15.810 -0.1173 -0.1170 -0.2703
43738W        W52538  13.811   1.628   8.424  0.0094 -0.1069 -0.2281
43739W        W52539   5.844   1.415  19.834 -0.0690  0.1576 -0.3362
43740W        W52540  27.730   0.359  17.815  0.2242 -0.0094  0.2130
43741W        W52541  22.955   0.874   1.365 -0.4205 -0.3391 -0.0036
43742W        W52542  11.758   6.678   9.858  0.3033 -0.1248 -0.3904
43743W        W52543   6.419   7.658  17.642 -0.1419  0.2258  0.1454
43744W        W52544  10.311   1.575   8.052 -0.1268 -0.2712  0.0379
43745W        W52545  19.800   1.044  16.335  0.0164  0.2150 -0.0125
43746W        W52546  25.031   3.563   0.820  0.1071  0.0488 -0.2201
43747W        W52547   8.598   1.313  19.333 -0.1407 -0.1726  0.2198
43748W        W52548  18.790   6.987  20.520  0.1670  0.0379  0.1481
43749W        W52549   3.286   4.053  18.540 -0.1123  0.1295 -0.0321
43750W        W52550  19.538   0.397   5.739 -0.2261  0.0673 -0.1360
43751W        W52551  20.366   7.637   6.265  0.4286  0.2204 -0.0593
43752W        W52552  18.602   6.435   3.465  0.2648 -0.1418 -0.0874
43753W        W52553   7.997   4.176  15.626 -0.5254 -0.0213  0.0652
43754W        W52554  13.711   0.091  20.118 -0.0381 -0.0123  0.0327
43755W        W52555  15.541   5.938   3.046 -0.1739  0.0128  0.0965
43756W        W52556  30.923   4.007  26.060  0.3410 -0.0708 -0.1437
43757W        W52557  17.205   5.133  21.652  0.1420 -0.0934 -0.3801
43758W        W52558  14.223   2.105  19.350  0.4940  0.2790 -0.2714
43759W        W52559  28.731   0.815  14.327  0.1813  0.1864 -0.0847
43760W        W52560  19.147   7.408   2.198 -0.0589  0.1216  0.1733
43761W        W52561   4.445   4.869  20.825 -0.0659  0.1850  0.0611
43762W        W52562  29.004   6.813  25.944 -0.2936 -0.0157 -0.1886
43763W        W52563  22.842   6.710   5.829  0.1280 -0.0469  0.1867
43764W        W52564  24.588   0.933   1.800 -0.0402 -0.0360  0.1877
43765W        W52565  12.277   4.516  20.345 -0.3485  0.2085  0.0818
43766W        W52566   4.528   3.176  20.593 -0.0744  0.1487 -0.2772
43767W        W52567  23.420   1.734  19.479 -0.2237  0.0910 -0.1303
43768W        W52568  13.695   7.841  15.917  0.2310 -0.3212  0.2046
43769W        W52569  25.573   6.048  10.096 -0.3587 -0.2596 -0.1041
43770W        W52570  30.023   2.035  18.670  0.0695 -0.0548  0.2616
43771W        W52571  10.380   3.766   5.770 -0.2390  0.0537  0.0979
43772W        W52572   1.765   6.680  18.588 -0.2359 -0.3771  0.0341
43773W        W52573  13.184   0.216  11.093 -0.0504  0.0252 -0.1680
43774W        W52574   7.556   5.895  18.544  0.0288 -0.1371 -0.1376
43775W        W52575  10.877   7.424  25.598  0.1107  0.0385  0.3018
43776W        W52576  28.341   1.944   1.815  0.3754  0.1336 -0.0666
43777W        W52577   5.265   3.578  10.463 -0.1821 -0.2289 -0.2173
43778W        W52578   2.707   3.957   5.547 -0.0262  0.0128 -0.1280
43779W        W52579  17.374   6.698  21.934  0.2078 -0.0143  0.2028
43780W        W52580   2.269   6.136  22.034  0.2694  0.0819 -0.0493
43781W        W52581  20.325   1.731  17.514  0.1089  0.2685 -0.1744
43782W        W52582   8.945   4.237  19.816 -0.2229 -0.2257 -0.0154
43783W        W52583  26.232   3.987   9.973  0.0945  0.1828  0.2026
43784W        W52584  21.772   4.786  18.712  0.0948  0.2001 -0.1529
43785W        W52585  25.209   1.092   4.662  0.0174  0.1894  0.0862
43786W        W52586   4.288   6.540   7.853  0.1463 -0.1475  0.1257
43787W        W52587  27.094   2.258  19.564  0.0239 -0.0391 -0.1249
43788W        W52588  23.605   0.387   8.285 -0.1998 -0.3241  0.0372
43789W        W52589  15.203   1.382   4.921 -0.3033 -0.0484 -0.1681
43790W        W52590   4.690   6.814   1.922  0.0114 -0.0478  0.2025
43791W        W52591   1.865   4.278   0.172  0.0289 -0.1656  0.2063
43792W        W52592  29.550   4.723  16.189  0.0405  0.2408  0.1757
43793W        W52593  18.572   6.497  23.246 -0.2852  0.1651 -0.0273
43794W        W52594   9.015   0.300  18.404  0.0562 -0.2158  0.0188
43795W        W52595  29.747   4.886   5.851 -0.0550  0.1507  0.1990
43796W        W52596  10.259   2.492  21.126  0.0758  0.0197  0.1886
43797W        W52597   5.643   5.896  21.783 -0.3021 -0.2973 -0.2475
43798W        W52598  16.005   7.649   3.991 -0.1413 -0.0250  0.0090
43799W        W52599  21.610   1.450  24.604 -0.1000  0.2644  0.2519
43800W        W52600   9.008   7.466   4.122 -0.2454  0.0767  0.1662
43801W        W52601  23.213   6.403  10.520 -0.0394  0.0205 -0.0777
43802W        W52602   8.194   2.239  10.905  0.0271 -0.0402 -0.0735
43803W        W52603  26.321   3.296  25.952  0.0397  0.0075 -0.0580
43804W        W52604   6.769   0.031  20.182 -0.0735  0.0159  0.0061
43805W        W52605  23.269   3.336   1.862  0.0530  0.2501 -0.1221
43806W        W52606   5.207   4.080  24.140  0.1069  0.0416  0.2579
43807W        W52607  26.028   3.027   7.768  0.0800 -0.0613  0.1093
43808W        W52608  10.426   3.770   3.232  0.1262  0.1531 -0.0940
43809W        W52609  13.026   0.275  22.962  0.1082  0.1561 -0.2493
43810W        W52610  11.621   7.163  15.645  0.0795  0.0733 -0.5166
43811W        W52611  22.754   0.015  24.010 -0.1792  0.3744 -0.2971
43812W        W52612  19.291   3.714  25.823  0.1855 -0.1707 -0.2027
43813W        W52613  21.885   5.704   1.919 -0.1923  0.1328  0.2289
43814W        W52614  25.677   6.474   4.250  0.1478 -0.1639 -0.2618
43815W        W52615   8.403   5.876  18.580  0.1160 -0.2609 -0.0058
43816W        W52616   7.547   2.873  23.133  0.1534  0.0539 -0.0037
43817W        W52617  23.144   1.654  24.001  0.0684  0.1491  0.1381
43818W        W52618   6.014   0.104  25.910  0.0740 -0.2547  0.0648
43819W        W52619   1.606   4.900  16.732 -0.1267  0.0467  0.1293
43820W        W52620  16.444   5.067  19.240  0.1316 -0.2342 -0.1794
43821W        W52621  26.648   2.415  10.239 -0.1577  0.0392 -0.1071
43822W        W52622  28.590   6.095   1.218  0.1112 -0.0826  0.2004
43823W        W52623   2.045   4.404   1.908 -0.0771 -0.0570 -0.1564
43824W        W52624  23.790   2.625  18.528 -0.0529  0.0880 -0.0151
43825W        W52625   2.685   7.122   4.548  0.2703  0.0877  0.1911
43826W        W52626   8.257   6.251   3.870  0.1603  0.1130 -0.2603
43827W        W52627  29.094   1.129  17.038  0.2963  0.1816 -0.1491
43828W        W52628   5.315   1.462   1.148 -0.2187 -0.2133  0.1684
43829W        W52629  20.591   3.076   9.283  0.0380  0.1255 -0.0922
43830W        W52630   6.990   2.995   7.230 -0.0829  0.1440 -0.1913
43831W        W52631  26.972   2.784  24.931 -0.0728  0.2306  0.1392
43832W        W52632  21.448   0.495  16.527 -0.2325  0.0992  0.1026
43833W        W52633  10.947   2.227   2.859 -0.0606  0.1590  0.0147
43834W        W52634  26.940   7.714  23.426 -0.2207 -0.1440  0.2887
43835W        W52635  28.232   7.574  15.498 -0.0205  0.1130 -0.1367
43836W        W52636   8.239   2.335   3.205 -0.0276 -0.1846 -0.3675
43837W        W52637  14.599   6.922  19.466  0.0514 -0.1638 -0.4210
43838W        W52638  29.982   4.015  18.316 -0.1207 -0.3257  0.1253
43839W        W52639  25.590   5.052  16.258 -0.0303 -0.1136  0.0462
43840W        W52640  10.171   1.381  24.516  0.1257 -0.1753  0.2450
43841W        W52641  18.853   5.997  18.626  0.0412  0.0403  0.3087
43842W        W52642  23.958   6.614   4.214  0.1125 -0.1797 -0.1523
43843W        W52643  30.540   3.255  17.387  0.2541 -0.0451  0.3150
43844W        W52644  13.900   1.739  21.904 -0.1034 -0.1181  0.2652
43845W        W52645  18.911   1.395   6.319 -0.0009  0.2228  0.2179
43846W        W52646  29.311   4.598   7.731  0.0938 -0.1136  0.1097
43847W        W52647  28.902   6.741  15.700  0.1637  0.1039 -0.1843
43848W        W52648  30.802   4.067  20.919  0.0498  0.0977 -0.2172
43849W        W52649   6.610   1.390  10.873  0.3447 -0.1543 -0.2379
43850W        W52650  29.898   1.086   1.869  0.0372 -0.2797 -0.1163
43851W        W52651  27.755   4.609  17.405  0.1331 -0.2207 -0.0146
43852W        W52652  26.749   6.378  23.499 -0.2668 -0.0073  0.2093
43853W        W52653   4.835   5.347   9.004  0.0950  0.2860 -0.0734
43854W        W52654  29.643   4.531  24.207 -0.0676  0.1671  0.3297
43855W        W52655  12.539   0.640  17.660 -0.0535 -0.0637  0.3473
43856W        W52656  28.952   7.214  15.912  0.3320  0.0420  0.3749
43857W        W52657   8.475   3.275  25.832  0.1096  0.0081 -0.0374
43858W        W52658   7.869   0.047   7.382  0.1509 -0.1495 -0.1221
43859W        W52659  12.280   6.858   0.172 -0.1429  0.0922  0.1527
43860W        W52660  21.041   1.757  25.601  0.0031 -0.4404 -0.1013
43861W        W52661  30.893   1.372   3.339 -0.0689 -0.0061 -0.1494
43862W        W52662  23.900   6.251  20.392  0.0402  0.1841  0.0994
43863W        W52663   7.034   0.553  24.752  0.1226 -0.2307  0.1535
43864W        W52664  26.242   5.615   6.850 -0.0748  0.0363  0.1561
43865W        W52665  16.675   1.048  21.030  0.1195  0.0415  0.5832
43866W        W52666  21.084   2.756  24.678 -0.3287  0.3944  0.2853
43867W        W52667  16.616   5.656  10.985  0.1721 -0.1535  0.0561
43868W        W52668  13.956   4.942  16.140 -0.1696 -0.1265  0.1330
43869W        W52669  15.442   4.090  10.068 -0.2257  0.0213  0.0510
43870W        W52670  19.920   3.546  18.633  0.1533  0.0162 -0.1952
43871W        W52671  30.605   2.619   9.588  0.1581  0.1758 -0.1371
43872W        W52672  28.501   7.410  24.283 -0.3036  0.1896 -0.0207
43873W        W52673  17.069   6.651   5.094 -0.0366 -0.5319  0.1314
43874W        W52674   2.942   7.111   5.407  0.0053 -0.0334 -0.0011
43875W        W52675  21.799   7.443   1.199 -0.1326  0.4588 -0.0215
43876W        W52676  22.607   6.698   2.120  0.1068 -0.0685  0.2322
43877W        W52677  16.695   6.815   3.326  0.1172  0.3670 -0.1353
43878W        W52678  13.696   3.504  26.053  0.1854 -0.0446  0.0667
43879W        W52679  14.186   3.933   4.314  0.1198 -0.1299 -0.1653
43880W        W52680  25.171   5.069  22.746 -0.0915  0.2472 -0.1448
43881W        W52681  24.546   3.307  25.341  0.2363  0.0881 -0.3284
43882W        W52682   0.800   6.891   3.703 -0.2705  0.3661  0.2434
43883W        W52683  24.382   2.506  17.751 -0.3358  0.0781 -0.1713
43884W        W52684  22.049   6.462  23.838  0.0244 -0.0783  0.0163
43885W        W52685   8.057   4.391  19.220 -0.1741 -0.2103  0.0464
43886W        W52686  17.085   1.628  24.827  0.1597  0.2222 -0.1338
43887W        W52687  11.637   2.593  19.221 -0.1904 -0.1279  0.0651
43888W        W52688  22.909   6.431   1.276 -0.3497  0.0288 -0.0958
43889W        W52689   1.119   5.485  18.636 -0.2091  0.2099  0.2287
43890W        W52690   0.916   5.766   9.534  0.0269  0.1730  0.1022
43891W        W52691  10.851   2.058  24.256 -0.4042  0.0508  0.1148
43892W        W52692  26.334   4.993   7.894 -0.0145 -0.0371  0.1867
43893W        W52693  25.383   7.113   3.646  0.0111  0.0262  0.1040
43894W        W52694  24.736   2.728   2.177  0.2891 -0.0020  0.0630
43895W        W52695  19.261   1.064  23.996  0.2667 -0.0412  0.2536
43896W        W52696  16.959   3.833   7.523  0.1517 -0.0642 -0.2500
43897W        W52697  11.328   2.198   9.314  0.2012  0.0042 -0.1539
43898W        W52698  25.912   1.032   5.712 -0.1005 -0.0690  0.2860
43899W        W52699   8.086   6.560  22.186  0.0782  0.0589 -0.0609
43900W        W52700  20.688   0.615   6.571 -0.3997 -0.1643  0.0259
43901W        W52701  29.238   3.331   9.387  0.0663  0.1492 -0.0759
43902W        W52702  27.643   3.179   2.974 -0.0302 -0.0899 -0.0215
43903W        W52703  25.150   3.365   2.187  0.0739 -0.1364  0.2451
43904W        W52704   5.515   2.477  24.905 -0.1158  0.0505 -0.1151
43905W        W52705  21.748   6.616  19.439 -0.3368  0.1891 -0.0387
43906W        W52706  10.729   7.356   7.925  0.1460 -0.2958  0.1488
43907W        W52707  11.758   7.510  19.841 -0.0842 -0.1856  0.0973
43908W        W52708  16.385   7.214  18.565 -0.2146 -0.0456  0.2052
43909W        W52709  30.192   7.722  16.384 -0.0436  0.2517 -0.4480
43910W        W52710  30.954   0.578   6.136 -0.1580 -0.2063  0.1729
43911W        W52711  21.210   3.265  17.963  0.0202 -0.0127 -0.2410
43912W        W52712  28.337   6.735  24.326  0.0897 -0.4729 -0.1748
43913W        W52713  24.822   7.344   8.960 -0.0217 -0.1519 -0.2375
43914W        W52714  15.530   0.299  23.185  0.1410  0.0470  0.1036
43915W        W52715  24.556   7.215   6.287  0.0910 -0.4484 -0.2081
43916W        W52716  10.468   5.469  17.760  0.0343  0.0252  0.0895
43917W        W52717  26.068   5.209  10.662 -0.0449  0.1560  0.1125
43918W        W52718  28.384   3.165   0.235 -0.0325  0.2581 -0.0640
43919W        W52719  28.079   5.973  22.322  0.0878  0.0639 -0.0090
43920W        W52720  13.528   6.677  18.727 -0.0603 -0.1645 -0.0657
43921W        W52721  12.507   4.610  10.623 -0.1268  0.1963  0.0945
43922W        W52722   3.430   3.155  24.838  0.3346 -0.0176  0.1146
43923W        W52723  12.512   1.857  17.727 -0.1586  0.3000  0.1605
43924W        W52724   5.353   1.930  15.648  0.1666 -0.0836  0.2796
43925W        W52725  20.966   2.527  17.485  0.0346 -0.2196  0.1500
43926W        W52726   9.392   7.136  25.733  0.1414  0.0302 -0.1671
43927W        W52727   2.445   3.375  20.970  0.0499  0.4254  0.0259
43928W        W52728   9.167   1.967  15.951 -0.2301 -0.0223 -0.3013
43929W        W52729  27.216   4.133   6.649 -0.1700  0.0024  0.1209
43930W        W52730   2.123   5.434  25.919 -0.0655 -0.0082  0.0804
43931W        W52731  23.241   4.479  17.042 -0.0091  0.1080 -0.1442
43932W        W52732  27.470   5.902   1.178  0.0170  0.2156 -0.1633
43933W        W52733  16.460   2.396   9.691 -0.1438 -0.1210  0.1471
43934W        W52734  29.508   6.273  23.841  0.0134  0.1627 -0.3566
43935W        W52735   4.313   4.682  22.263 -0.0465  0.1701 -0.1032
43936W        W52736   1.410   7.028   1.518 -0.0585 -0.1365  0.1160
43937W        W52737   0.683   0.296   3.272 -0.0404  0.0609 -0.0846
43938W        W52738  14.129   5.918  25.699  0.0515  0.0320 -0.2846
43939W        W52739  23.052   2.955   4.995  0.0103 -0.3639 -0.0973
43940W        W52740  29.352   4.093  10.104  0.3779 -0.1985 -0.1256
43941W        W52741   8.511   1.339  23.727 -0.2026 -0.2636 -0.2312
43942W        W52742  20.113   1.207   4.513  0.0341  0.1758  0.2994
43943W        W52743  12.419   6.599   5.854 -0.0651  0.2296 -0.1458
43944W        W52744  10.401   4.871  21.257  0.0459  0.0317  0.2522
43945W        W52745  11.474   0.389   8.053  0.0974 -0.1059  0.1514
43946W        W52746  26.741   5.238   9.782 -0.1626  0.1416  0.0198
43947W        W52747  18.148   2.718  20.334  0.0009 -0.4339  0.2002
43948W        W52748  22.744   2.464   4.482 -0.2589 -0.1335 -0.0865
43949W        W52749  25.954   4.512   6.414 -0.3306  0.0349 -0.0647
43950W        W52750  25.249   0.711   5.013 -0.0293  0.3100  0.1198
43951W        W52751  24.831   6.056   9.799  0.0713  0.1320 -0.1302
43952W        W52752  17.935   1.415  24.558 -0.1440 -0.1259 -0.1190
43953W        W52753  24.218   5.360   6.525 -0.0538  0.0137  0.0598
43954W        W52754  28.799   1.154  19.810  0.1124  0.0597  0.2396
43955W        W52755  28.468   2.716  22.720 -0.1260 -0.0468  0.2376
43956W        W52756   6.086   4.218   7.500 -0.1118  0.1144  0.0968
43957W        W52757  29.365   3.798  19.799  0.5318 -0.1389 -0.2807
43958W        W52758  21.324   7.067  11.096 -0.2120  0.6810 -0.1029
43959W        W52759  26.103   2.788   6.526  0.1467 -0.1021  0.1132
43960W        W52760   6.080   4.015  20.676 -0.0925 -0.2456 -0.0371
43961W        W52761   4.837   7.576   6.627  0.3454  0.1143  0.0799
43962W        W52762  22.238   3.769   9.698 -0.1352  0.1206 -0.0079
43963W        W52763  29.891   2.506  16.506  0.2478  0.1106 -0.0228
43964W        W52764  12.006   2.824   7.878  0.0846  0.0281 -0.4759
43965W        W52765  24.845   3.206  21.576 -0.0277 -0.2824  0.0586
43966W        W52766  19.777   5.732   3.467  0.4804 -0.0873 -0.1621
43967W        W52767  17.616   2.946  20.048  0.3741  0.1487  0.0907
43968W        W52768  13.764   7.556   7.679 -0.0027  0.1361 -0.0347
43969W        W52769   7.262   1.642   4.931 -0.1781  0.4067 -0.4851
43970W        W52770  10.827   0.736  14.560  0.1885 -0.2728  0.0008
43971W        W52771  17.049   7.444   4.720  0.0761 -0.0411  0.0621
43972W        W52772   0.106   6.958   2.113 -0.2822 -0.2217 -0.5125
43973W        W52773   5.956   7.334  10.169 -0.2579 -0.0909  0.0312
43974W        W52774  24.702   0.345   8.034  0.0112 -0.2055  0.2861
43975W        W52775  30.568   5.931  19.054  0.0497  0.1487  0.2901
43976W        W52776   9.130   5.768  22.182 -0.0620 -0.0456 -0.2464
43977W        W52777   7.395   0.403   4.348  0.0653  0.0008 -0.4840
43978W        W52778   9.823   2.217  10.058 -0.1529  0.0866 -0.2136
43979W        W52779   2.001   6.948  16.020  0.1798 -0.1389 -0.1777
43980W        W52780  12.481   0.747   4.841  0.2805  0.0791 -0.0779
43981W        W52781  30.777   3.615   5.858  0.2942 -0.1783 -0.0948
43982W        W52782  22.756   5.092  17.472  0.1379  0.1707 -0.2315
43983W        W52783   2.257   7.747   3.735  0.4808 -0.1463 -0.0425
43984W        W52784  10.639   0.182  19.230 -0.0008  0.0085  0.3148
43985W        W52785  24.926   2.238  20.314  0.1557  0.2316 -0.0487
43986W        W52786  10.875   4.903  21.330 -0.0769 -0.2137 -0.1085
43987W        W52787  19.450   0.496  11.060  0.3514 -0.0933 -0.0488
43988W        W52788  25.615   0.513   8.961 -0.1412  0.0729  0.1709
43989W        W52789   4.926   6.944   1.483  0.1838  0.0746 -0.1429
43990W        W52790   7.328   4.102  26.036  0.0133 -0.0633 -0.0707
43991W        W52791  11.736   0.773  25.777  0.0078 -0.0586  0.0571
43992W        W52792  10.062   4.173   8.018 -0.2240  0.0068  0.2007
43993W        W52793   0.903   6.111   3.081 -0.1000 -0.1705 -0.3927
43994W        W52794  27.860   0.144   4.805  0.0393 -0.1305  0.1588
43995W        W52795  27.188   7.001  18.203 -0.2748  0.4791  0.0329
43996W        W52796   1.627   5.774   4.126  0.0253 -0.1304 -0.1966
43997W        W52797  21.463   2.800   1.337  0.0032  0.0584  0.0049
43998W        W52798  10.257   3.094   6.528  0.4614  0.0377  0.3843
43999W        W52799  28.110   2.093  23.905 -0.1093 -0.0994  0.0239
44000W        W52800   9.168   1.425   4.217 -0.0403 -0.1775 -0.0450
44001W        W52801  21.393   5.178   8.803  0.3086 -0.0360  0.0686
44002W        W52802   0.980   6.623  18.112  0.1474 -0.0250 -0.0281
44003W        W52803  24.883   0.253  15.168 -0.0455  0.3823 -0.2520
44004W        W52804   8.261   2.162  23.423 -0.4071 -0.2698 -0.3740
44005W        W52805  13.303   4.503   8.841  0.0408 -0.2211 -0.0850
44006W        W52806  16.845   4.840  10.598 -0.0984  0.1190  0.0498
44007W        W52807  10.273   5.044  19.504 -0.0930 -0.0827  0.1642
44008W        W52808  11.272   6.861   5.102 -0.0971  0.2750 -0.4005
44009W        W52809  14.609   3.463   1.165 -0.2226  0.0515 -0.0927
44010W        W52810  17.587   6.317  22.303 -0.3939  0.0656  0.3873
44011W        W52811   8.921   4.824   5.960 -0.0530  0.0526 -0.5885
44012W        W52812   2.839   3.366   4.259 -0.1133 -0.1385 -0.0038
44013W        W52813  24.110   3.715  23.981 -0.1721 -0.0785  0.0380
44014W        W52814   7.398   4.659   1.493  0.1710  0.0666 -0.0470
44015W        W52815   9.375   5.530   9.152 -0.0351  0.1110 -0.1055
44016W        W52816   7.794   3.635  14.682 -0.0199  0.3399 -0.2242
44017W        W52817  12.867   7.258   8.524 -0.3523 -0.0139  0.0222
44018W        W52818  15.368   1.463   0.785  0.0006 -0.0797 -0.0786
44019W        W52819  18.484   0.999   6.168 -0.0687 -0.1959  0.0474
44020W        W52820   3.839   4.827   5.368  0.0754  0.2570  0.3018
44021W        W52821   2.253   7.647   6.953  0.1944  0.2196 -0.0232
44022W        W52822   8.596   4.314   1.913 -0.1493  0.0097 -0.2219
44023W        W52823  26.550   7.637  21.706  0.0528  0.1180  0.3156
44024W        W52824  13.480   2.873   2.275 -0.2587 -0.0919 -0.1226
44025W        W52825  23.976   3.346  22.524 -0.5226  0.2466 -0.4575
44026W        W52826  22.776   3.807  25.055 -0.0609 -0.0956  0.0451
44027W        W52827  27.966   0.675  25.554  0.0478  0.0334  0.1733
44028W        W52828   2.537   4.475   5.297 -0.3084 -0.2469 -0.0453
44029W        W52829  17.622   7.524  16.762  0.0129 -0.0507  0.1632
44030W        W52830   5.302   4.818   6.665  0.2218 -0.1157 -0.2982
44031W        W52831  15.385   6.687  24.723  0.0856 -0.0034  0.0264
44032W        W52832  27.537   3.163  21.695 -0.0372  0.2268 -0.0580
44033W        W52833  25.219   2.878   9.367  0.1056 -0.2904 -0.0293
44034W        W52834  27.259   3.751  20.741  0.0508  0.0091  0.0795
44035W        W52835   2.076   1.429   4.481  0.1758  0.0523  0.1504
44036W        W52836  15.199   3.263  15.192  0.2390 -0.2146 -0.1002
44037W        W52837   1.975   1.021  19.620 -0.0495 -0.0684 -0.5462
44038W        W52838  15.240   7.213  20.858 -0.0643  0.0893 -0.0462
44039W        W52839   9.930   1.283   7.827  0.1142 -0.1334  0.0119
44040W        W52840  24.423   6.813   3.045 -0.2370  0.1909  0.0691
44041W        W52841  19.047   4.132  18.932 -0.0929 -0.3079 -0.0925
44042W        W52842  21.617   5.831  24.790 -0.0281 -0.0140  0.3869
44043W        W52843  24.449   7.815   1.583  0.0484 -0.1415 -0.0746
44044W        W52844  22.452   2.718   1.190 -0.0395 -0.0513  0.0836
44045W        W52845   2.137   6.884  19.903  0.4146  0.0636  0.1215
44046W        W52846   0.741   5.333   4.969  0.0315 -0.0287 -0.0281
44047W        W52847  27.132   3.969  18.862  0.2380 -0.2607  0.1751
44048W        W52848   4.531   7.072   4.888  0.0587  0.1017  0.0510
44049W        W52849  19.026   6.777   0.876 -0.0400  0.0647  0.0660
44050W        W52850  25.582   3.282  17.837 -0.0306  0.0797  0.2257
44051W        W52851  26.193   1.570  11.018 -0.1582  0.3857 -0.0923
44052W        W52852   3.698   7.103   1.190 -0.0192 -0.2933 -0.0653
44053W        W52853   9.113   1.155   5.704  0.2120 -0.1358  0.1270
44054W        W52854  12.954   1.422   5.088 -0.4915 -0.2564  0.0373
44055W        W52855  12.224   3.202  20.315 -0.1297  0.0587 -0.0349
44056W        W52856   7.841   7.451   0.638  0.0147  0.2249  0.2722
44057W        W52857  17.899   0.133  10.660  0.1540  0.3813  0.1949
44058W        W52858  14.335   3.642  10.931  0.0324 -0.0955  0.2757
44059W        W52859   9.746   4.888  17.324 -0.3025 -0.1033 -0.0026
44060W        W52860  19.290   5.930   2.913  0.1638 -0.2569 -0.0678
44061W        W52861  14.487   6.876   7.786 -0.0494  0.1823 -0.0826
44062W        W52862  18.537   2.738  25.030 -0.1240 -0.1597  0.0278
44063W        W52863   2.949   1.379  20.853  0.0654 -0.0300 -0.1078
44064W        W52864  21.417   7.846  16.296  0.1273  0.0962  0.0507
44065W        W52865  26.342   4.810   3.785 -0.0423  0.0103  0.0934
44066W        W52866   9.120   5.672  19.768  0.0468  0.0617 -0.2204
44067W        W52867  25.936   6.736   0.079 -0.3584  0.1739 -0.1902
44068W        W52868  25.902   1.882  19.769 -0.2565  0.1505  0.4105
44069W        W52869   4.587   0.712  16.248  0.1325  0.1328 -0.3326
44070W        W52870  14.191   6.735  10.869  0.1326  0.3215 -0.1365
44071W        W52871  22.472   2.097  22.036 -0.0865  0.1531 -0.2067
44072W        W52872   5.367   2.274  23.927 -0.0406  0.1009  0.0045
44073W        W52873   1.468   5.716  10.709  0.1846 -0.3320  0.0228
44074W        W52874  18.554   5.805   2.309  0.0102  0.0088  0.1190
44075W        W52875  23.726   3.666   2.535  0.2447  0.0908 -0.2408
44076W        W52876  18.795   2.626   0.542  0.4447  0.2481  0.2118
44077W        W52877  19.248   1.177   3.097 -0.0953 -0.1417 -0.1144
44078W        W52878  21.154   1.267   9.738 -0.2957 -0.2633 -0.0361
44079W        W52879  12.193   5.144  16.211 -0.0207  0.0633  0.1812
44080W        W52880  12.383   4.164  22.472  0.2298  0.0798  0.0650
44081W        W52881   0.574   0.247  25.012  0.1622 -0.0544 -0.0636
44082W        W52882  23.611   1.567  10.000  0.0396 -0.0789  0.1122
44083W        W52883  26.200   2.026  10.232  0.1163 -0.1066 -0.2151
44084W        W52884  11.646   7.030  23.043 -0.3101  0.2620 -0.0466
44085W        W52885  28.593   7.005   9.055 -0.0688 -0.1615 -0.1104
44086W        W52886  18.135   0.300  15.635 -0.1552  0.2624  0.2270
44087W        W52887  15.220   7.172   6.632 -0.1979 -0.0124  0.2518
44088W        W52888  16.978   1.841   6.690  0.0420  0.1905  0.0113
44089W        W52889  19.931   6.611   2.630 -0.0116 -0.2185  0.0423
44090W        W52890  19.642   5.984   1.287 -0.4460  0.0404  0.0082
44091W        W52891  11.340   6.734   5.608 -0.1956 -0.1653 -0.0456
44092W        W52892   3.135   5.012   4.805  0.2704 -0.0167 -0.0957
44093W        W52893  23.391   5.344  23.012 -0.2239 -0.1221 -0.1398
44094W        W52894  20.737   2.885  20.648 -0.0291  0.0783  0.2740
44095W        W52895   2.586   1.866  21.556  0.0256  0.2243 -0.1889
44096W        W52896   0.458   5.951   3.517 -0.4923  0.0342  0.0012
44097W        W52897  11.873   0.816  24.184 -0.0433 -0.1141 -0.3640
44098W        W52898   5.194   1.413  16.338 -0.0187 -0.0781  0.0345
44099W        W52899  24.245   0.105   6.193 -0.0491  0.3034  0.1820
44100W        W52900  30.514   0.800  21.865 -0.3129 -0.1430  0.1198
44101W        W52901   4.387   2.950   9.550 -0.1508 -0.0692 -0.3649
44102W        W52902  19.881   7.770   6.360  0.0451 -0.0591  0.2216
44103W        W52903  22.224   5.174   3.660  0.4676  0.2121 -0.1984
44104W        W52904  27.761   2.182   5.192  0.2913  0.1005 -0.2308
44105W        W52905   2.336   7.850   9.764  0.1442 -0.2374  0.3012
44106W        W52906  20.150   6.521   5.346  0.1052  0.0942 -0.1056
44107W        W52907  27.042   2.982  16.543  0.0170  0.1323 -0.1034
44108W        W52908  13.466   6.234   2.008 -0.1805  0.0331 -0.2101
44109W        W52909   7.201   2.488  24.536 -0.3324 -0.0119 -0.1241
44110W        W52910   2.426   3.296  14.676  0.3491  0.2071  0.1089
44111W        W52911  19.718   6.109  16.415 -0.2765  0.1967 -0.2888
44112W        W52912  29.390   6.013  22.158 -0.4335  0.1535  0.1053
44113W        W52913   0.407   3.547   7.348 -0.0598 -0.3385 -0.0302
44114W        W52914  14.540   7.273   3.683 -0.0553  0.0715 -0.0185
44115W        W52915   9.389   7.112  10.092 -0.1431 -0.2402 -0.0201
44116W        W52916   2.204   5.672   4.357 -0.1281 -0.1877 -0.0146
44117W        W52917  23.294   7.619  23.349  0.0568 -0.0386 -0.0868
44118W        W52918   5.982   6.099   2.795 -0.3073  0.2627 -0.3006
44119W        W52919  26.559   1.986  24.865 -0.4155  0.1884 -0.0514
44120W        W52920   3.183   7.095   8.975  0.2313 -0.2184 -0.1151
44121W        W52921  22.810   7.773  10.888 -0.0687 -0.2705  0.0793
44122W        W52922  28.849   2.659  18.727 -0.3094  0.0963  0.0018
44123W        W52923   1.392   4.962  16.239 -0.0336 -0.1232 -0.0793
44124W        W52924  22.025   2.677   1.601  0.3610 -0.1068 -0.1710
44125W        W52925   4.128   0.755   1.813 -0.0587 -0.0883  0.1711
44126W        W52926  19.794   4.547   2.666 -0.5585 -0.0474 -0.1876
44127W        W52927  31.249   1.481   9.626 -0.1435 -0.1074  0.1484
44128W        W52928  21.843   2.216   9.211  0.0826 -0.0230  0.0134
44129W        W52929  12.262   7.044   1.949 -0.2020  0.0548  0.1222
44130W        W52930   1.424   6.730   2.091 -0.1179 -0.2608  0.3489
44131W        W52931  28.680   2.965   3.661 -0.1816  0.0208 -0.3281
44132W        W52932  22.641   7.478  19.954  0.0877  0.1412 -0.2034
44133W        W52933  19.287   5.615  22.270 -0.2035  0.1118  0.2577
44134W        W52934   3.084   6.558  18.908 -0.1608 -0.1029 -0.2653
44135W        W52935  29.622   7.029   0.966  0.0160  0.0722 -0.1087
44136W        W52936   9.814   4.937   8.341  0.0425 -0.1990 -0.1678
44137W        W52937  14.944   0.630   9.628 -0.0610  0.0769 -0.4294
44138W        W52938  23.608   5.073  10.806 -0.0183 -0.1449  0.0129
44139W        W52939   1.194   6.591  16.429 -0.0508  0.3774 -0.0982
44140W        W52940  18.377   5.507   5.801  0.1263  0.0260  0.3402
44141W        W52941  12.862   3.529  18.891  0.1346 -0.0246  0.0393
44142W        W52942   2.911   5.879   7.912 -0.0631  0.2000  0.1135
44143W        W52943  28.618   6.357   7.031 -0.0009  0.2593  0.1581
44144W        W52944  21.413   1.601   9.973  0.0252 -0.2966  0.0275
44145W        W52945  30.113   6.741   7.504  0.1197  0.0818 -0.0714
44146W        W52946  12.192   1.522  17.434 -0.0516 -0.1843 -0.2365
44147W        W52947  28.258   6.606  20.034  0.0153  0.2508  0.1899
44148W        W52948  29.559   0.495  21.892 -0.1068  0.1681  0.0497
44149W        W52949  10.238   7.300   4.699 -0.3465 -0.2294  0.3133
44150W        W52950  10.084   1.383   8.878 -0.1805 -0.0740  0.0103
44151W        W52951  11.579   7.377   0.529  0.2987 -0.1347  0.0742
44152W        W52952   9.990   7.547  19.441 -0.2646 -0.1241 -0.1633
44153W        W52953  25.960   6.517  10.293  0.1937 -0.1222 -0.2684
44154W        W52954   2.837   2.969   6.097 -0.4682  0.0452  0.4799
44155W        W52955   7.610   5.095   4.855  0.0999 -0.0570 -0.2106
44156W        W52956   3.224   1.252  21.390  0.2306  0.1456  0.0180
44157W        W52957  22.552   1.105  17.797 -0.0057  0.1233  0.2791
44158W        W52958  30.967   5.723  18.832 -0.2234  0.1561 -0.0053
44159W        W52959  17.104   1.376   0.943 -0.0799  0.2138  0.1358
44160W        W52960   6.022   1.959   6.820  0.3277 -0.2462  0.0008
44161W        W52961   3.236   4.459   3.814  0.0409 -0.0750  0.0165
44162W        W52962  16.030   0.054  25.783  0.1806 -0.0595 -0.1317
44163W        W52963  20.897   5.821  16.730 -0.0090 -0.1573 -0.1460
44164W        W52964  28.644   6.552  24.006  0.0358  0.0831  0.0464
44165W        W52965   5.506   7.041   4.010 -0.2213  0.0292 -0.1373
44166W        W52966  15.376   2.243   2.316 -0.1639 -0.0070 -0.1021
44167W        W52967  27.898   3.148  17.421 -0.0102 -0.0025  0.0863
44168W        W52968  31.169   3.694   9.243  0.2980 -0.1139  0.5324
44169W        W52969  23.185   2.166  14.853 -0.1406  0.0620 -0.1594
44170W        W52970   8.766   1.229   0.679  0.1582  0.0300  0.1624
44171W        W52971  27.136   0.336  25.712 -0.0487  0.3588  0.1395
44172W        W52972  11.490   2.784  21.414  0.1672 -0.2526 -0.0452
44173W        W52973   7.970   4.796  22.911  0.0113  0.0587  0.0512
44174W        W52974  28.396   5.684   0.824  0.2988  0.2482  0.0903
44175W        W52975   9.467   6.075   1.017  0.1879  0.1687 -0.2899
44176W        W52976  11.498   1.940  16.238 -0.1446 -0.0276 -0.1656
44177W        W52977  30.343   6.674   7.017  0.0661  0.1798  0.1518
44178W        W52978   6.763   1.901   8.016 -0.0177  0.1113  0.1373
44179W        W52979  23.640   1.078  24.797 -0.0065 -0.1274 -0.0751
44180W        W52980  31.221   0.068   6.040 -0.2111 -0.1796 -0.0376
44181W        W52981   5.799   0.560   8.950  0.0346  0.2016 -0.1610
44182W        W52982   1.782   1.228   0.080 -0.2339  0.2412 -0.0132
44183W        W52983   7.114   3.660  18.862  0.1715  0.0048 -0.2424
44184W        W52984  25.724   4.069  10.440 -0.1626 -0.0894  0.0325
44185W        W52985  11.030   3.001   6.168  0.1870 -0.1411 -0.4315
44186W        W52986  31.257   1.817   0.895 -0.1282 -0.4580  0.2690
44187W        W52987   9.833   2.898  25.057  0.3754  0.1372  0.0594
44188W        W52988  28.231   4.542  18.660  0.0788  0.1791  0.0212
44189W        W52989   4.439   5.685   2.692 -0.1554  0.2950 -0.0824
44190W        W52990   7.850   2.174  10.101 -0.1284 -0.0184 -0.0099
44191W        W52991   7.898   1.811  20.544  0.0312 -0.0386 -0.0474
44192W        W52992  18.790   0.285   5.204  0.1303  0.0004 -0.2411
44193W        W52993  21.089   5.580   4.052 -0.1587 -0.1604  0.1067
44194W        W52994   0.429   1.270  10.110 -0.2162  0.2530  0.1350
44195W        W52995  21.203   5.821  25.831 -0.2107  0.2860 -0.1465
44196W        W52996  17.621   5.239  21.976  0.1735 -0.0481  0.3511
44197W        W52997  30.887   7.478   6.515 -0.1370  0.0420 -0.3105
44198W        W52998   9.091   0.526  19.892  0.0268 -0.0570  0.3497
44199W        W52999  26.026   1.145  15.329 -0.0303 -0.1872  0.0132
44200W        W53000   3.119   7.116   8.109 -0.0629  0.1606  0.1008
44201W        W53001  24.859   0.514  22.092 -0.1856  0.1321  0.1767
44202W        W53002  27.144   5.663  20.270  0.0139 -0.3199  0.0435
44203W        W53003   9.119   2.559  22.849 -0.0263 -0.0352  0.2104
44204W        W53004  29.171   3.532  21.973 -0.1936  0.2257  0.0306
44205W        W53005  31.428   3.623  20.702  0.0291  0.0358  0.1390
44206W        W53006  11.943   4.019   5.356  0.0883 -0.0580  0.0645
44207W        W53007  20.385   7.154   9.627  0.2782 -0.1279 -0.1215
44208W        W53008  29.418   1.870  21.005  0.0880  0.2550 -0.1163
44209W        W53009  24.693   5.876  24.177 -0.0049  0.1720  0.0631
44210W        W53010   9.059   7.602   6.538  0.1150  0.0498 -0.0279
44211W        W53011  20.962   4.443  21.054  0.0049 -0.0821 -0.1362
44212W        W53012  24.572   5.663   7.737 -0.0212  0.2448 -0.2734
44213W        W53013  30.362   1.270   1.754  0.0537  0.0348 -0.0448
44214W        W53014  31.396   6.124  16.406 -0.1694 -0.0085  0.0157
44215W        W53015   7.235   6.985   9.868 -0.4734  0.3793 -0.3227
44216W        W53016  27.960   7.460  17.312  0.1217  0.0548 -0.2591
44217W        W53017  18.144   6.717   9.187  0.1779 -0.1268 -0.0348
44218W        W53018  16.981   3.999  17.662 -0.1121  0.1878  0.0299
44219W        W53019  20.448   5.396  21.952  0.1397 -0.0380  0.1073
44220W        W53020  31.295   6.029   0.101  0.1299 -0.3170 -0.2339
44221W        W53021   0.570   1.315  15.964 -0.0622 -0.1330  0.1312
44222W        W53022  22.274   7.703  17.187 -0.2243  0.2989  0.1818
44223W        W53023  14.802   1.367   8.500  0.0922  0.0017 -0.0197
44224W        W53024  22.702   6.929   0.325  0.5101 -0.0532 -0.0627
44225W        W53025  26.125   2.071   8.340 -0.0599  0.1212  0.1149
44226W        W53026  24.795   2.696  15.571  0.0372 -0.2174  0.2015
44227W        W53027  30.437   0.881  21.318  0.1462  0.1188 -0.0390
44228W        W53028  23.616   7.492  22.972  0.3452 -0.0359  0.4081
44229W        W53029   1.915   7.391   6.043  0.2683  0.0745  0.0207
44230W        W53030  12.030   2.872  19.040 -0.2553  0.0246  0.0177
44231W        W53031   1.181   0.934   0.486 -0.2432  0.0188  0.0289
44232W        W53032   5.776   5.493   8.563  0.0546  0.0907  0.3330
44233W        W53033  24.168   0.269  17.230  0.1961  0.0435  0.0690
44234W        W53034  25.054   0.377   8.861 -0.1084 -0.1217  0.2646
44235W        W53035  15.699   5.614  17.186 -0.2209  0.1508 -0.1403
44236W        W53036  12.126   6.611   0.778  0.1385 -0.3933 -0.1998
44237W        W53037  15.063   0.477  24.748  0.3944 -0.2534 -0.2107
44238W        W53038   2.866   1.612  22.220  0.0947  0.1323 -0.0029
44239W        W53039  24.184   0.228  22.460  0.0353 -0.3238 -0.2188
44240W        W53040  26.740   3.630  18.922  0.2210 -0.0188 -0.1319
44241W        W53041  14.889   3.632  19.357 -0.1110  0.0870 -0.1537
44242W        W53042  13.946   3.625   5.348  0.1050 -0.0115 -0.0280
44243W        W53043  23.139   7.715  24.622 -0.0001  0.1209  0.1788
44244W        W53044   8.376   2.579   3.660  0.3253  0.0593 -0.0379
44245W        W53045  14.648   3.014   0.150 -0.0533  0.0858  0.0382
44246W        W53046  21.973   2.963   3.396 -0.1953  0.1200  0.0740
44247W        W53047  24.537   3.166  16.871 -0.0167  0.1697  0.1535
44248W        W53048   7.278   1.997   2.627  0.0285 -0.2059 -0.0137
44249W        W53049  23.397   3.150   7.945  0.0134 -0.0888  0.5268
44250W        W53050   8.358   4.815  21.602 -0.2880 -0.2431 -0.2321
44251W        W53051  20.171   5.200  19.029 -0.1154 -0.0897  0.0033
44252W        W53052   9.920   3.087  25.994  0.1883 -0.0857  0.1272
44253W        W53053  16.687   1.183   8.313 -0.0682  0.0036 -0.2465
44254W        W53054   0.615   5.192  19.566  0.0480 -0.0182 -0.1689
44255W        W53055  19.572   7.210  23.349  0.3446 -0.2731 -0.0860
44256W        W53056   2.035   4.217  14.841 -0.0214 -0.4849  0.2216
44257W        W53057  25.066   2.614   6.499 -0.0461 -0.0396 -0.0376
44258W        W53058  10.404   5.716   9.356 -0.0011 -0.1551 -0.1781
44259W        W53059  22.225   3.314   2.709 -0.1684  0.0309 -0.1137
44260W        W53060  13.603   5.825   7.773  0.0778  0.3032 -0.0633
44261W        W53061   7.428   4.688   8.793 -0.1529 -0.2081  0.1207
44262W        W53062   4.642   5.866  22.632  0.2460  0.0623  0.1956
44263W        W53063  30.032   4.577  18.420  0.1140  0.0037  0.0770
44264W        W53064  28.360   7.811  19.492 -0.0300  0.1829 -0.0388
44265W        W53065   0.078   3.057   9.639 -0.1232 -0.0299 -0.1024
44266W        W53066   8.778   3.345  11.187  0.2628 -0.0619 -0.1071
44267W        W53067   6.365   5.541  16.164 -0.0120 -0.1018 -0.0135
44268W        W53068  28.652   7.490   9.084  0.2535 -0.0288  0.0149
44269W        W53069  20.148   1.196  20.185 -0.0587 -0.2747  0.0457
44270W        W53070  25.331   2.399  24.291 -0.0651 -0.1643 -0.0946
44271W        W53071   9.790   4.730  25.278 -0.2208 -0.1600  0.2041
44272W        W53072  20.501   7.027  23.493  0.0007  0.0521  0.1649
44273W        W53073  31.034   4.524   5.755  0.4024  0.1669  0.1645
44274W        W53074  27.871   5.522  22.370 -0.0750 -0.0184  0.1120
44275W        W53075  27.529   3.853   0.710 -0.0533 -0.1276  0.0975
44276W        W53076   0.144   6.470   2.129  0.2544  0.1430 -0.2377
44277W        W53077  12.672   2.352   3.385  0.3790  0.2475 -0.2106
44278W        W53078  22.607   3.382   0.719 -0.2688  0.1092 -0.0518
44279W        W53079  12.741   2.168   7.822 -0.1240 -0.3149  0.0015
44280W        W53080  16.516   6.638  17.534  0.2980 -0.1692  0.1152
44281W        W53081  28.613   6.896   7.736  0.0293 -0.1091  0.0835
44282W        W53082  14.906   3.795  20.069  0.2761  0.0333  0.1439
44283W        W53083   8.989   7.231   2.734  0.0370  0.1943 -0.1469
44284W        W53084   5.292   5.798  15.593 -0.4637  0.1431 -0.1893
44285W        W53085  13.262   3.318   2.040 -0.3121 -0.1052 -0.3190
44286W        W53086   3.708   4.036  22.683 -0.1594  0.3489  0.0667
44287W        W53087  15.885   1.148  15.396  0.1730 -0.1505 -0.0156
44288W        W53088  11.333   0.620  24.024 -0.0683 -0.0318  0.0449
44289W        W53089  20.875   1.589   7.433 -0.2315  0.0094  0.0225
44290W        W53090  15.138   6.680   6.599 -0.1675  0.1149  0.1839
44291W        W53091   7.569   7.373   9.788  0.1543 -0.3403  0.1434
44292W        W53092  10.817   1.385   7.961  0.0660 -0.0584  0.3153
44293W        W53093  26.044   0.630  21.336  0.0840  0.1247 -0.1755
44294W        W53094   8.099   7.431  23.851 -0.2555 -0.0915 -0.1391
44295W        W53095  30.663   5.307  16.861  0.1603  0.0256 -0.0837
44296W        W53096  22.420   3.855   3.545  0.1928 -0.2368  0.0771
44297W        W53097  27.881   0.667   8.169 -0.0295 -0.1863  0.2946
44298W        W53098   2.235   4.863  10.234 -0.0595  0.2470  0.1275
44299W        W53099  22.274   4.301   6.127  0.2694 -0.1254  0.0684
44300W        W53100  22.839   4.574  21.149  0.1644 -0.2704  0.1888
44301W        W53101   0.947   4.205  25.286  0.1434  0.0869  0.0544
44302W        W53102  25.793   7.107  21.517 -0.1658  0.0414  0.2342
44303W        W53103  23.426   0.962   6.520  0.2077 -0.1241  0.0274
44304W        W53104  28.244   5.431   3.512 -0.1661  0.1013  0.1624
44305W        W53105  29.630   7.541  25.963  0.1629  0.0996  0.1542
44306W        W53106  22.352   6.494  25.550 -0.2004  0.3089 -0.1845
44307W        W53107   5.359   6.941   9.444 -0.0729 -0.4138  0.1931
44308W        W53108  27.616   2.142   7.405 -0.3225 -0.1080  0.2103
44309W        W53109  20.901   6.399  18.573  0.2361  0.0220  0.0296
44310W        W53110  16.558   1.678   6.957  0.2307  0.1429 -0.1116
44311W        W53111   8.093   1.444  17.423  0.4207 -0.2830 -0.1338
44312W        W53112  13.027   5.687   2.407  0.0039 -0.0952  0.2157
44313W        W53113   8.263   4.960  14.980 -0.4328  0.0618 -0.1106
44314W        W53114   3.115   4.620  15.990 -0.0898 -0.1883 -0.0552
44315W        W53115  29.259   4.214  17.083  0.0180 -0.1634  0.2287
44316W        W53116   1.346   1.998   2.369  0.1732  0.0354 -0.2156
44317W        W53117  10.665   3.146  16.487  0.0779  0.2548  0.1231
44318W        W53118   8.764   1.475  14.930  0.0795  0.0706  0.0012
44319W        W53119  22.097   6.281   4.790  0.0642  0.4641  0.1566
44320W        W53120  16.138   2.767  23.982  0.2394 -0.2040  0.0520
44321W        W53121   6.762   5.610  16.528 -0.3995 -0.2071 -0.3630
44322W        W53122  22.496   6.285   9.121  0.0683  0.1647  0.3126
44323W        W53123  28.039   4.574   1.739  0.1988 -0.0322 -0.0713
44324W        W53124  24.049   1.026  20.573 -0.2216 -0.2437 -0.2378
44325W        W53125  21.718   5.283  10.451  0.0011  0.0491 -0.1096
44326W        W53126  20.818   1.459  19.289 -0.0347 -0.0176  0.3721
44327W        W53127   4.664   4.257  24.216 -0.3681 -0.1538  0.1909
44328W        W53128   2.132   2.619   2.506 -0.5386 -0.1459  0.1362
44329W        W53129   7.675   1.734   2.866  0.1517 -0.0616  0.1244
44330W        W53130   3.237   3.468  17.787 -0.0791  0.0125  0.1862
44331W        W53131  28.963   6.597   7.396 -0.0230  0.0674 -0.3464
44332W        W53132  28.894   0.765   9.726  0.3161  0.2033  0.0039
44333W        W53133   5.333   1.187   2.782 -0.2780  0.1585  0.0917
44334W        W53134  10.229   6.086  20.798  0.0680 -0.0237  0.0056
44335W        W53135  25.392   3.905  23.544 -0.3981  0.0847  0.0490
44336W        W53136  29.254   4.675   5.875  0.0008  0.2291 -0.0281
44337W        W53137   0.445   2.380  25.941  0.3310  0.0954 -0.2560
44338W        W53138   8.962   5.298   9.398 -0.1951 -0.0215  0.1040
44339W        W53139  27.681   5.757   7.003 -0.1811  0.0625 -0.0878
44340W        W53140  18.388   1.714   1.366  0.1516 -0.1575  0.0097
44341W        W53141  11.460   0.043   8.982  0.0392 -0.2560  0.3175
44342W        W53142  22.576   0.843   7.639 -0.0900 -0.0545 -0.1831
44343W        W53143   3.792   3.727  19.464 -0.2022  0.2219  0.3000
44344W        W53144  26.640   2.944   6.682  0.2151  0.1754 -0.1856
44345W        W53145   6.029   3.244  17.433 -0.1340 -0.1795  0.0056
44346W        W53146  15.109   1.361  16.716 -0.0289  0.1517  0.2311
44347W        W53147  19.628   5.025   2.467 -0.0397  0.1476  0.3954
44348W        W53148  18.610   3.212  20.867 -0.0869 -0.2281 -0.0076
44349W        W53149  10.043   4.972   5.759 -0.1534 -0.0855  0.2019
44350W        W53150  13.766   2.714   4.750 -0.0620 -0.2432 -0.0256
44351W        W53151   2.205   2.240  22.651 -0.1260 -0.1042 -0.1993
44352W        W53152  28.492   7.579  22.425  0.1239  0.1467 -0.0330
44353W        W53153   4.031   5.678   9.586 -0.0370  0.0310 -0.0882
44354W        W53154  12.935   6.339   7.456  0.0172  0.1790  0.1386
44355W        W53155   9.090   6.086  24.904  0.2120 -0.3218 -0.0040
44356W        W53156   0.024   7.388   5.711 -0.0461  0.0076 -0.0368
44357W        W53157  14.198   1.645  10.520 -0.1456 -0.0234 -0.1043
44358W        W53158  11.123   0.676   1.035  0.2051 -0.1038 -0.0544
44359W        W53159   0.890   1.712  15.023 -0.1393 -0.1222  0.0095
44360W        W53160  21.574   6.759  23.757 -0.0529  0.1703  0.1191
44361W        W53161  11.179   3.683  17.524 -0.0912 -0.0528 -0.5354
44362W        W53162  16.793   4.111   3.644 -0.0879 -0.3483 -0.1972
44363W        W53163  16.711   4.455   9.787  0.1756  0.2131 -0.1017
44364W        W53164  12.724   3.331   6.410 -0.3092 -0.2284  0.1200
44365W        W53165  10.782   3.836  15.857  0.2716 -0.1045 -0.1288
44366W        W53166  28.740   0.826  25.863  0.0994 -0.1076 -0.1933
44367W        W53167  12.626   1.438   5.544  0.0660  0.0228  0.0527
44368W        W53168   7.231   0.182   0.880  0.1286 -0.1801  0.1252
44369W        W53169   7.037   7.851  24.875 -0.1593 -0.1726  0.1576
44370W        W53170   6.491   4.700   3.224  0.2193  0.0612  0.0018
44371W        W53171  15.595   6.503  17.593 -0.0299  0.2743  0.0789
44372W        W53172   0.677   1.632  16.740 -0.1645  0.1086  0.0276
44373W        W53173  15.049   1.213   6.699  0.0447 -0.1716  0.3307
44374W        W53174  23.795   3.458  19.478 -0.0011 -0.2398  0.0859
44375W        W53175   2.889   2.115  16.761 -0.0552 -0.1040 -0.1081
44376W        W53176  29.820   5.924   3.273  0.0801  0.1899 -0.0430
44377W        W53177   1.122   5.765   8.334 -0.0735 -0.0037 -0.0147
44378W        W53178  21.378   2.177   6.001 -0.6044 -0.0269  0.0825
44379W        W53179   8.771   5.364  24.773 -0.3877  0.2206 -0.0375
44380W        W53180   8.578   0.704  20.497 -0.4380 -0.3431  0.1432
44381W        W53181  23.273   4.120   0.352  0.0395  0.0968 -0.1703
44382W        W53182  10.045   1.945  17.558 -0.0440  0.0214 -0.1308
44383W        W53183  19.566   1.171   4.477  0.1965 -0.1626 -0.0733
44384W        W53184  22.554   2.277   8.652 -0.0138  0.1487  0.0498
44385W        W53185  22.144   7.279   5.738  0.1958  0.0101  0.0315
44386W        W53186   0.625   5.615  20.365 -0.1106 -0.2198 -0.0175
44387W        W53187  14.933   3.692   3.694 -0.2277 -0.1778  0.2421
44388W        W53188  28.229   5.393  15.401 -0.1662  0.1379 -0.0018
44389W        W53189  18.115   6.590  20.090 -0.0697 -0.0303  0.2467
44390W        W53190   1.918   5.353  17.272  0.2055 -0.0145 -0.2273
44391W        W53191   1.799   3.068  17.234 -0.1120  0.1291 -0.0828
44392W        W53192  20.144   6.037  16.616  0.1046  0.0584 -0.0980
44393W        W53193  28.505   3.973  15.966  0.2792 -0.1468 -0.1671
44394W        W53194   8.434   4.142   6.317 -0.0142 -0.2703 -0.0901
44395W        W53195  10.542   5.729   6.755  0.1435  0.1007 -0.0911
44396W        W53196  25.282   6.327  20.451  0.0495  0.0402  0.1806
44397W        W53197   0.573   6.311   3.788 -0.0290  0.0269  0.2746
44398W        W53198   2.241   3.919   5.422 -0.0301  0.0266 -0.1059
44399W        W53199  28.642   5.424  25.069 -0.1100  0.1064 -0.1146
44400W        W53200   8.930   1.035   1.167  0.2478 -0.2814  0.0315
44401W        W53201   8.707   1.820  25.156  0.1337 -0.1437  0.0477
44402W        W53202  10.379   5.983  17.300  0.0815  0.2147  0.2014
44403W        W53203   1.990   3.318   7.592  0.3589 -0.0132  0.0723
44404W        W53204  18.510   4.349  25.052 -0.0564  0.1174 -0.5944
44405W        W53205  24.841   3.660   0.302 -0.1794 -0.0289  0.0809
44406W        W53206  25.287   3.726  10.474  0.2528 -0.3033 -0.0748
44407W        W53207   7.257   3.718   9.710 -0.0286  0.0801  0.0016
44408W        W53208  10.738   2.773   4.078 -0.1389  0.1603  0.4214
44409W        W53209   5.291   1.538   8.058  0.1567  0.1292 -0.0210
44410W        W53210  30.642   0.370  20.452  0.2579 -0.0546 -0.1407
44411W        W53211  21.910   7.851   2.006  0.0582  0.1075  0.3787
44412W        W53212  16.855   1.166   5.380  0.2430 -0.0482 -0.0941
44413W        W53213  12.809   7.303  24.310  0.0916  0.0742 -0.1110
44414W        W53214  19.690   4.433   3.968 -0.0627 -0.0587  0.1344
44415W        W53215  15.522   6.367   0.817  0.1518 -0.0725 -0.0902
44416W        W53216  13.120   6.568  22.435 -0.0146  0.1718 -0.3996
44417W        W53217  13.398   3.582  17.478  0.1058  0.0520 -0.0671
44418W        W53218  27.671   5.276  22.784 -0.0186 -0.0616  0.0552
44419W        W53219   7.807   2.590  16.808  0.0964 -0.1539 -0.0234
44420W        W53220  30.858   1.807   3.022 -0.2741  0.1901 -0.2304
44421W        W53221   4.969   4.761   9.775 -0.0559 -0.1560  0.0756
44422W        W53222   2.582   5.703   1.189  0.0261  0.0699 -0.1139
44423W        W53223  27.965   2.394  20.243  0.1290  0.0471 -0.3089
44424W        W53224   7.684   5.275   6.505  0.0550 -0.1523  0.1357
44425W        W53225  27.058   2.331   1.704 -0.0969  0.2916 -0.1275
44426W        W53226  12.415   6.759   4.396 -0.3798 -0.1742  0.0552
44427W        W53227   7.453   3.310  15.689 -0.0516  0.2689 -0.2640
44428W        W53228  11.039   6.223   7.094  0.1144 -0.1185 -0.1787
44429W        W53229  10.286   1.262  19.998  0.2003  0.1815  0.0038
44430W        W53230  23.937   4.578   7.533 -0.0373  0.0961  0.0122
44431W        W53231   6.406   7.654  21.617 -0.0965  0.1627 -0.2408
44432W        W53232  27.121   4.029  21.115 -0.2032  0.0486  0.1879
44433W        W53233   8.309   3.245  15.338  0.3160  0.1286  0.0777
44434W        W53234  10.702   4.885   1.318  0.2734  0.1655  0.0029
44435W        W53235  20.754   5.801   3.691  0.0682  0.0444 -0.1119
44436W        W53236  21.517   4.888   0.627  0.1721  0.1024 -0.1444
44437W        W53237  18.575   6.624  25.991  0.1386 -0.0916 -0.0158
44438W        W53238  23.724   7.483   9.320 -0.0212 -0.1458 -0.0433
44439W        W53239  16.311   2.324  25.812 -0.1779 -0.0950  0.2086
44440W        W53240   2.460   0.272   8.370 -0.1296  0.0105 -0.0391
44441W        W53241  18.572   4.640   2.230 -0.0334  0.1336 -0.0598
44442W        W53242  29.485   2.116   3.290 -0.1670 -0.0126 -0.1999
44443W        W53243  23.138   4.921  10.864  0.1568  0.0499 -0.2476
44444W        W53244  17.733   7.306  22.224 -0.1447 -0.2273  0.2983
44445W        W53245   6.826   5.304  23.661 -0.0198 -0.1086 -0.0686
44446W        W53246  12.814   2.060  24.284 -0.4048 -0.0446 -0.1754
44447W        W53247  15.984   1.700  21.854 -0.1844  0.1778  0.1587
44448W        W53248  28.908   3.782   5.851  0.1516  0.2300 -0.0906
44449W        W53249  15.719   4.198   0.521  0.0064  0.2167  0.0279
44450W        W53250  25.491   4.243  16.624 -0.2197 -0.1459  0.0500
44451W        W53251  23.308   1.278  10.774  0.0334  0.1375 -0.0846
44452W        W53252  11.100   5.317  25.619 -0.0125 -0.0090  0.0282
44453W        W53253  23.671   3.078  18.862 -0.0885 -0.2260  0.2858
44454W        W53254   0.255   6.455  25.135  0.0863 -0.1176  0.2820
44455W        W53255   5.578   6.643  24.080 -0.0640  0.1877  0.1189
44456W        W53256   1.779   7.698  14.695  0.2543  0.3578  0.1090
44457W        W53257   8.600   7.332   3.117  0.0226 -0.0487  0.0154
44458W        W53258  24.114   1.962  19.745 -0.0302 -0.0331  0.1052
44459W        W53259   5.326   2.030  17.495 -0.2531 -0.1352 -0.3778
44460W        W53260  14.049   0.837  16.796  0.1302  0.2166 -0.0010
44461W        W53261  14.246   3.916   6.668  0.2476 -0.3090  0.2395
44462W        W53262   3.771   6.255  22.909 -0.0093 -0.1585 -0.3654
44463W        W53263  10.272   5.630   7.243  0.1963 -0.1851 -0.2781
44464W        W53264  23.279   6.159  25.172  0.1448 -0.0525  0.2084
44465W        W53265  26.623   0.394   1.054  0.0523  0.0957 -0.0810
44466W        W53266  31.299   5.797   7.875  0.1344  0.0940  0.0591
44467W        W53267  18.700   4.834  11.138  0.1901 -0.2491 -0.2493
44468W        W53268  23.722   1.731   5.509  0.0975 -0.0768 -0.4038
44469W        W53269   1.712   6.911  23.541  0.0201  0.1766  0.1070
44470W        W53270  24.225   6.781  19.028  0.0612 -0.0908 -0.2015
44471W        W53271   1.375   5.353  10.279  0.0231  0.0324  0.1722
44472W        W53272  21.731   3.395   0.150  0.0326 -0.0461  0.1801
44473W        W53273   4.781   2.430   9.542 -0.2267 -0.5781  0.0201
44474W        W53274   0.215   7.606  18.038 -0.2067  0.1611  0.3337
44475W        W53275  10.577   5.773  25.161 -0.1116  0.0722 -0.1270
44476W        W53276  18.147   1.253   8.736 -0.3014 -0.1207 -0.0768
44477W        W53277  23.207   6.543   8.450 -0.1013  0.1196 -0.1701
44478W        W53278  23.032   5.842  17.961 -0.2927  0.1725  0.4054
44479W        W53279  11.437   2.587   8.975  0.1997  0.0145 -0.2397
44480W        W53280  15.450   4.373  23.084 -0.3076  0.3544  0.4219
44481W        W53281  17.142   5.746   9.847  0.0741 -0.1477  0.2081
44482W        W53282  26.949   6.637  10.231 -0.0948 -0.1275 -0.0127
44483W        W53283  29.953   1.062  18.407  0.1690 -0.0592  0.0627
44484W        W53284  12.269   7.810   5.211  0.0801 -0.0383  0.1007
44485W        W53285  25.310   2.826  18.047  0.4397 -0.3451 -0.0082
44486W        W53286  20.208   3.808  20.889  0.1329  0.0521 -0.1496
44487W        W53287   1.470   4.299   2.280  0.2145  0.3276  0.2381
44488W        W53288  10.782   3.216  21.788  0.1756 -0.2047  0.1244
44489W        W53289   9.599   1.206   7.350 -0.0926 -0.2287 -0.1420
44490W        W53290  30.797   0.180  15.103  0.0196  0.0018 -0.0132
44491W        W53291  25.263   3.959  24.687  0.1503 -0.0748 -0.2517
44492W        W53292  31.084   6.972  25.149  0.0593  0.2016  0.1133
44493W        W53293  21.150   2.844   2.573 -0.1826  0.1679 -0.1372
44494W        W53294  25.178   7.757  16.241  0.0336 -0.1089 -0.1000
44495W        W53295  10.925   7.858  19.561  0.1808 -0.2044 -0.0318
44496W        W53296  19.028   7.381  18.622 -0.0022  0.1045  0.2477
44497W        W53297  25.049   6.071   3.959 -0.0404 -0.1162  0.0438
44498W        W53298  14.440   0.983  19.385 -0.1884 -0.0856 -0.0535
44499W        W53299  13.470   6.955   1.250 -0.1519 -0.0641  0.2206
44500W        W53300  16.208   7.707   3.188 -0.0135  0.2283  0.3297
44501W        W53301  15.599   6.451  10.655 -0.1657  0.2610 -0.1791
44502W        W53302   8.126   0.926  21.823 -0.1671 -0.3063 -0.2551
44503W        W53303  19.190   5.892  25.663 -0.3190 -0.0264 -0.2900
44504W        W53304   5.970   3.487   1.707 -0.1517 -0.0159  0.0278
44505W        W53305  16.634   5.401   4.711  0.0803 -0.1653  0.0401
44506W        W53306  30.964   5.395  25.438 -0.2092  0.1076 -0.0160
44507W        W53307  13.948   2.734  23.118  0.0978 -0.0876  0.3674
44508W        W53308   7.573   5.904   0.630  0.0270  0.2411 -0.1284
44509W        W53309  14.607   4.106  24.681  0.0289 -0.0365  0.0460
44510W        W53310   3.255   6.142  25.558 -0.0122  0.2329  0.1510
44511W        W53311   7.785   1.493  16.531  0.0307  0.0167  0.1149
44512W        W53312   1.238   1.478  23.821  0.1597 -0.1391  0.1330
44513W        W53313   6.578   4.430   0.508 -0.3265  0.1024 -0.3519
44514W        W53314  10.453   1.716   7.573  0.0038  0.1004  0.3124
44515W        W53315  27.765   6.998  18.872  0.2761 -0.1504  0.1814
44516W        W53316  12.328   7.345  19.665 -0.2460  0.1857  0.1995
44517W        W53317  23.977   6.964   0.043 -0.1232 -0.2129 -0.1854
44518W        W53318  12.770   6.920   2.073  0.0365 -0.0830 -0.0203
44519W        W53319   4.394   2.485  23.780  0.3889 -0.0923  0.0021
44520W        W53320  19.670   2.872   4.846  0.1478  0.1990  0.2495
44521W        W53321  27.402   4.166  18.113  0.1407 -0.0830 -0.1938
44522W        W53322  11.562   2.529   5.924  0.0594 -0.0848 -0.1086
44523W        W53323  30.090   0.389  23.558 -0.1523 -0.1179 -0.0485
44524W        W53324  26.322   0.360   4.408 -0.0170 -0.1202  0.1315
44525W        W53325  24.440   5.319   9.037 -0.0270  0.1859  0.1165
44526W        W53326  12.543   4.904  18.718  0.0319 -0.1411 -0.3081
44527W        W53327  11.953   6.442  19.631  0.0775  0.1403 -0.1388
44528W        W53328   4.929   4.312   1.485 -0.2869 -0.1318 -0.4182
44529W        W53329  22.681   1.772   8.959  0.0865  0.2087  0.3415
44530W        W53330  30.581   4.627  10.037  0.1390 -0.1645 -0.0609
44531W        W53331  25.330   6.525   7.898 -0.0810  0.1343  0.5538
44532W        W53332  29.979   5.683   6.236 -0.3943  0.1317  0.0739
44533W        W53333   1.517   1.285  14.779 -0.2098 -0.1365 -0.0508
44534W        W53334  27.781   0.548  15.676 -0.1552 -0.0874 -0.0574
44535W        W53335  28.084   6.048  11.383  0.0898  0.0268 -0.2283
44536W        W53336   0.758   1.869  20.020 -0.2640 -0.0986 -0.1694
44537W        W53337  18.669   6.439  22.152  0.3415 -0.1757 -0.2469
44538W        W53338  29.036   4.028   4.617 -0.2714 -0.0361  0.3217
44539W        W53339  27.851   7.434  21.160  0.1041 -0.0051 -0.2425
44540W        W53340  21.838   5.359  19.038 -0.1417 -0.0786 -0.0596
44541W        W53341  22.366   6.183   8.138 -0.0761  0.2402 -0.2114
44542W        W53342   9.433   1.293  22.182  0.0804  0.0697  0.0414
44543W        W53343   3.678   6.170   4.446  0.0774 -0.0672  0.1441
44544W        W53344  17.683   1.281  17.162  0.3265  0.1266  0.0138
44545W        W53345  22.166   5.008  21.513  0.1157  0.1837  0.0661
44546W        W53346   8.985   2.099   1.071 -0.2360 -0.0347 -0.1695
44547W        W53347  18.722   4.236  24.533  0.0636 -0.0577 -0.1981
44548W        W53348  13.834   1.319  19.032 -0.2063  0.1310 -0.2745
44549W        W53349   6.246   1.066   6.705  0.3320  0.4399 -0.1586
44550W        W53350  29.868   6.630  20.460 -0.0039 -0.1197 -0.2898
44551W        W53351   5.098   4.476  10.147 -0.1427  0.0052  0.0720
44552W        W53352  23.063   4.527   5.484  0.0277 -0.0987 -0.1079
44553W        W53353  12.497   7.329   1.020  0.1318  0.1054  0.1485
44554W        W53354  17.853   5.610  16.595 -0.0680 -0.1841  0.3290
44555W        W53355  10.067   1.847  19.351  0.0548 -0.2798  0.2248
44556W        W53356   7.657   5.378  19.121 -0.3402  0.1157 -0.2851
44557W        W53357   7.955   3.914  19.393  0.2691  0.0076  0.0866
44558W        W53358   7.854   1.082   4.555 -0.1393  0.2951  0.1165
44559W        W53359  21.893   6.204   3.719 -0.0151  0.3997 -0.0415
44560W        W53360  28.920   5.375  25.834  0.1679  0.1052 -0.2488
44561W        W53361  31.395   2.067  16.726  0.1135  0.2560  0.2894
44562W        W53362  13.289   6.298   1.468 -0.3068 -0.0912  0.0314
44563W        W53363  18.363   6.650   0.761 -0.2134  0.3942 -0.0923
44564W        W53364  25.351   1.726  17.033 -0.0173 -0.0562  0.1617
44565W        W53365   1.072   0.080   0.641  0.1504 -0.0031  0.3326
44566W        W53366   9.901   0.964  21.802  0.0058  0.2412 -0.2311
44567W        W53367  27.234   3.477  10.358 -0.1284  0.1233  0.0280
44568W        W53368   5.217   4.544  21.554 -0.1452  0.0341 -0.2159
44569W        W53369   8.417   6.328   7.366 -0.2030  0.0401  0.0034
44570W        W53370  31.239   3.036  23.335 -0.2414 -0.0886 -0.1817
44571W        W53371  19.310   3.638   3.641 -0.0863 -0.0364  0.0500
44572W        W53372  18.138   7.397   9.854 -0.2171  0.2760  0.0690
44573W        W53373  27.742   6.054  10.128  0.1428 -0.0138  0.0733
44574W        W53374   2.867   6.102  17.548  0.1566  0.2706 -0.1234
44575W        W53375  16.623   5.529   1.568  0.2174 -0.0685  0.0112
44576W        W53376   0.802   0.808  20.414 -0.1347  0.0657 -0.0702
44577W        W53377  17.335   0.761  22.561  0.3037 -0.0905 -0.3160
44578W        W53378  26.024   1.474   0.103  0.2161  0.0949  0.0500
44579W        W53379  21.173   1.772   1.242  0.0455 -0.1461 -0.1076
44580W        W53380   9.445   3.734  25.392  0.0165 -0.0544  0.0018
44581W        W53381  30.730   5.095   3.528 -0.0982 -0.1108  0.1233
44582W        W53382  29.796   6.721  16.902  0.1058  0.0783  0.0115
44583W        W53383  10.680   3.718   9.442 -0.1022 -0.4577  0.1323
44584W        W53384   6.228   1.055  19.718 -0.0202 -0.0062 -0.0343
44585W        W53385  22.455   3.385  22.844  0.1403 -0.0414  0.0522
44586W        W53386  11.330   7.224   5.742  0.1265 -0.1433 -0.2080
44587W        W53387   0.199   1.971   6.004 -0.2063  0.1820  0.1927
44588W        W53388   1.385   3.492  14.496  0.1220 -0.0304  0.0994
44589W        W53389  14.402   6.393  10.152 -0.0904 -0.2200 -0.1760
44590W        W53390  24.779   0.826  17.198 -0.1740 -0.0656 -0.0202
44591W        W53391   8.871   6.085   3.902 -0.0879 -0.0652 -0.2040
44592W        W53392   3.370   3.184   7.711 -0.1368  0.0734  0.1778
44593W        W53393  29.418   6.045  25.273 -0.0442 -0.0583 -0.0810
44594W        W53394  27.686   2.397   7.975  0.0144  0.0132 -0.1385
44595W        W53395  22.826   6.235  15.038  0.4103 -0.0515 -0.0566
44596W        W53396  12.356   1.469  18.625 -0.1554  0.1608  0.4185
44597W        W53397  21.883   4.585  17.402 -0.0393 -0.2330  0.1398
44598W        W53398   5.122   0.254   2.256 -0.0363  0.1906 -0.1645
44599W        W53399  29.874   4.525   1.178 -0.1981 -0.0444  0.1955
44600W        W53400  19.341   5.794   8.544  0.0864 -0.0840  0.2500
44601W        W53401  25.181   6.548  11.473  0.1633  0.1380  0.0843
44602W        W53402   8.922   0.327   2.483 -0.0012  0.1684 -0.1175
44603W        W53403  19.396   4.818   1.490 -0.1325  0.3737 -0.5271
44604W        W53404  20.868   5.650  20.152 -0.0956 -0.0923 -0.0106
44605W        W53405   0.991   3.495   5.106  0.1204  0.1521  0.0580
44606W        W53406   6.776   6.732  19.243 -0.0426  0.2897  0.3859
44607W        W53407  30.134   6.569   1.995 -0.1005 -0.3810  0.1123
44608W        W53408   9.862   5.308  19.131 -0.2694  0.0784  0.1169
44609W        W53409  12.337   7.054  20.844 -0.0990 -0.1950 -0.0559
44610W        W53410  10.057   7.715  16.141  0.1737 -0.0974  0.0227
44611W        W53411  23.510   4.132   1.468  0.0304  0.0406 -0.0469
44612W        W53412  14.929   2.713   0.392 -0.3292  0.2817 -0.5784
44613W        W53413  22.295   1.080  22.292 -0.0252 -0.0809  0.2397
44614W        W53414  10.875   2.280  17.478  0.1420  0.2467  0.2762
44615W        W53415  13.848   1.104   3.889  0.2686 -0.1362  0.1082
44616W        W53416   6.091   5.813  14.925 -0.2885  0.0506  0.1077
44617W        W53417   8.578   5.694  23.713 -0.0509 -0.1139 -0.0741
44618W        W53418  24.404   0.477   7.212  0.0035  0.0172  0.1958
44619W        W53419  15.096   2.482  18.611 -0.3122  0.1161  0.2826
44620W        W53420  22.694   4.073  24.631  0.0410 -0.0366 -0.0664
44621W        W53421  12.956   1.806  17.545 -0.0598 -0.1090  0.1235
44622W        W53422  29.265   6.309   5.087  0.1141 -0.0894  0.2045
44623W        W53423  14.085   3.945  24.283  0.0046 -0.0620 -0.0449
44624W        W53424  20.538   3.241  25.562 -0.1971 -0.2529 -0.0787
44625W        W53425   7.618   1.453   1.469  0.1441 -0.1202 -0.1326
44626W        W53426  14.676   2.776   4.624  0.2456 -0.2212 -0.0599
44627W        W53427  22.678   0.847  15.762 -0.0578  0.2070 -0.3136
44628W        W53428  27.380   0.477  18.722  0.0294 -0.1917  0.0197
44629W        W53429  20.886   2.383  16.496  0.0656  0.4510 -0.0286
44630W        W53430  29.053   4.476  22.107  0.0630  0.1126 -0.2590
44631W        W53431   8.780   2.202  22.084 -0.3705 -0.0090  0.0379
44632W        W53432  10.267   2.887  17.908 -0.0280  0.1908 -0.1633
44633W        W53433  16.495   3.709   1.344 -0.0673 -0.0830  0.0114
44634W        W53434   0.448   0.782  24.804  0.0952 -0.1380 -0.0207
44635W        W53435  19.704   5.873  24.855  0.1596  0.1777  0.0417
44636W        W53436   7.682   3.076   9.387  0.0070 -0.1837  0.0145
44637W        W53437   5.103   1.875  19.537  0.1806  0.1105 -0.2149
44638W        W53438   9.984   7.181  20.131 -0.0237 -0.2978  0.0277
44639W        W53439  14.470   0.044  16.598  0.0230 -0.3360  0.1531
44640W        W53440   0.938   4.164   8.140 -0.1073  0.0164  0.0327
44641W        W53441  12.333   4.923   6.183  0.0593  0.3698 -0.2598
44642W        W53442   7.364   2.762   9.099 -0.0895 -0.1191  0.3720
44643W        W53443  11.098   3.491  20.045 -0.3890  0.0663 -0.1689
44644W        W53444  29.143   1.797   9.460 -0.1726 -0.0486 -0.0796
44645W        W53445   6.099   1.285  23.426 -0.0751  0.1019  0.2139
44646W        W53446  30.216   5.385   3.645 -0.1241 -0.1814  0.0180
44647W        W53447  14.125   6.443  22.207  0.2228 -0.0355  0.0079
44648W        W53448   6.576   6.234   1.921 -0.0354  0.1345  0.2370
44649W        W53449   2.651   4.922   2.064  0.1681  0.1820 -0.2451
44650W        W53450   2.586   0.445  22.704 -0.1412  0.1148 -0.0645
44651W        W53451   5.207   5.780  23.251 -0.1203 -0.1117 -0.1043
44652W        W53452  16.830   4.808  19.664  0.1768  0.1151  0.2274
44653W        W53453   5.904   3.141  21.824  0.1006 -0.0589 -0.1177
44654W        W53454  10.520   6.257   8.295 -0.0268 -0.0444 -0.2730
44655W        W53455  27.573   2.826   4.293  0.0680  0.2639  0.0029
44656W        W53456  21.733   7.147  25.361 -0.0450  0.1776 -0.1964
44657W        W53457  27.278   4.753  15.882 -0.0917  0.3754  0.0643
44658W        W53458  29.455   1.147  17.969 -0.0335 -0.0699 -0.0573
44659W        W53459  22.823   2.719   6.004 -0.0026 -0.0834 -0.0655
44660W        W53460   4.226   7.090   7.837  0.1388 -0.1767 -0.2388
44661W        W53461  13.213   3.074   0.827 -0.1081  0.0422 -0.4804
44662W        W53462   2.959   4.380  24.223 -0.2825 -0.0159  0.2240
44663W        W53463  11.995   5.353  16.887 -0.2469  0.0523  0.4382
44664W        W53464   3.264   1.364   7.446  0.0521  0.1647 -0.2020
44665W        W53465   9.638   6.453   0.098  0.1874  0.0438 -0.0339
44666W        W53466  28.727   3.418  15.726 -0.1123 -0.3448  0.0249
44667W        W53467   8.828   2.969  18.965  0.0236 -0.1894  0.2445
44668W        W53468  19.392   6.483   4.810 -0.3862  0.0098 -0.1646
44669W        W53469   9.940   7.520  18.804  0.0714 -0.0197 -0.0192
44670W        W53470  27.022   5.688   6.174  0.1436  0.1204 -0.0240
44671W        W53471  31.325   2.410  20.997  0.0741  0.1108  0.0415
44672W        W53472   6.769   7.576  23.360 -0.1048  0.0189  0.3227
44673W        W53473  30.535   4.826  17.011 -0.1534  0.1435 -0.2461
44674W        W53474   1.231   5.077   4.990 -0.0229  0.0448 -0.0459
44675W        W53475   1.304   6.689   7.837  0.1893 -0.3691 -0.1822
44676W        W53476  23.063   5.786  10.527 -0.0412 -0.0857  0.0325
44677W        W53477  22.548   6.288  15.894  0.0230  0.2133  0.0807
44678W        W53478  14.470   7.671   4.021  0.0222 -0.2798 -0.0020
44679W        W53479  10.847   1.509   6.732 -0.0491 -0.2291  0.1213
44680W        W53480   9.940   2.777  21.696 -0.1384 -0.2088 -0.2845
44681W        W53481  18.022   5.493   0.565 -0.2094  0.0246 -0.0188
44682W        W53482   3.981   3.039  20.674 -0.3009 -0.1425 -0.0723
44683W        W53483  16.793   1.783   0.233 -0.1577 -0.2782 -0.0495
44684W        W53484  10.461   4.813  15.243  0.1177 -0.0560  0.3355
44685W        W53485  16.212   2.428   3.923 -0.0061  0.1313  0.0130
44686W        W53486  14.654   3.493   0.006 -0.1064  0.0969 -0.0317
44687W        W53487  26.638   1.797  10.049 -0.1926 -0.0892  0.0863
44688W        W53488  14.172   5.036   2.094 -0.3035  0.0960 -0.1647
44689W        W53489  20.167   5.389   1.152 -0.0529  0.0552  0.1616
44690W        W53490  26.456   6.902  20.968  0.0059 -0.3007  0.0900
44691W        W53491  21.549   1.065  19.621 -0.3061  0.0940 -0.0863
44692W        W53492  12.538   1.097  23.990  0.0871  0.1425 -0.0959
44693W        W53493   3.772   1.812   0.432 -0.2183  0.1908  0.1581
44694W        W53494  11.830   6.986  20.198 -0.0286  0.0608 -0.1106
44695W        W53495  10.703   6.150  18.238 -0.1898  0.3641  0.0327
44696W        W53496   1.623   2.099  15.887 -0.3450  0.0981  0.0836
44697W        W53497   3.545   3.902   0.942 -0.2690  0.0792 -0.1797
44698W        W53498   5.979   6.405  20.507  0.2169  0.2201  0.2349
44699W        W53499   6.104   1.527   4.944  0.1260  0.1066 -0.2530
44700W        W53500  25.603   5.402  10.785 -0.1164  0.0473  0.1490
44701W        W53501   4.081   7.163   7.174  0.1731 -0.2673  0.0265
44702W        W53502  29.262   2.632  26.044 -0.0785  0.0301 -0.2160
44703W        W53503  13.796   0.352   8.746 -0.0717  0.1804 -0.2190
44704W        W53504   8.707   1.777  18.078  0.2124  0.0759  0.3071
44705W        W53505   2.847   3.177   1.212 -0.3258  0.1221 -0.0149
44706W        W53506  30.657   1.331   2.430 -0.3145  0.2366 -0.1496
44707W        W53507  19.993   1.393   9.416 -0.2013 -0.0899  0.0030
44708W        W53508   6.139   1.796   4.537  0.0356  0.1448  0.0448
44709W        W53509  29.568   7.104  22.911 -0.1191 -0.0257  0.0703
44710W        W53510  12.676   1.039   8.425 -0.2477 -0.1588 -0.0422
44711W        W53511  17.888   3.380  19.206  0.1622  0.1085 -0.1909
44712W        W53512   5.839   5.353  23.703 -0.2041  0.1030 -0.1047
44713W        W53513   1.767   2.983  18.037  0.1671  0.2502 -0.1379
44714W        W53514  12.854   7.026  20.869 -0.2327 -0.4029  0.1291
44715W        W53515   6.755   4.883   2.269  0.0754 -0.0749  0.0236
44716W        W53516  30.407   4.677   2.339 -0.1944  0.0931  0.3761
44717W        W53517  11.190   3.262  11.804  0.0537  0.1016  0.0517
44718W        W53518   4.816   4.162  25.658  0.2271 -0.1677  0.0009
44719W        W53519   0.002   3.875  23.058  0.1092 -0.0655 -0.1812
44720W        W53520  24.889   3.826  17.443  0.1392  0.1536 -0.2767
44721W        W53521  26.155   4.327   1.366 -0.1070  0.1019 -0.2802
44722W        W53522  21.334   0.950  22.802  0.0157  0.1770 -0.0279
44723W        W53523   3.963   7.530  10.475 -0.0434 -0.2866  0.0648
44724W        W53524   5.999   5.628   1.930  0.1071 -0.0088 -0.1133
44725W        W53525  23.052   3.930   6.492  0.3297 -0.1072 -0.1575
44726W        W53526   8.761   6.592  25.862  0.0323  0.0231  0.1061
44727W        W53527  16.148   6.651   6.509  0.0996  0.1956 -0.0609
44728W        W53528  30.329   6.914  23.966 -0.0849 -0.4652  0.0056
44729W        W53529  25.019   2.428  10.134 -0.2592  0.2252 -0.1301
44730W        W53530   5.233   0.639   3.715 -0.0899  0.0467 -0.0043
44731W        W53531  12.527   0.876  22.408 -0.2140  0.1469 -0.1179
44732W        W53532  16.264   0.335   0.024  0.1522  0.2082  0.2003
44733W        W53533  24.039   4.255   6.388  0.0257 -0.0349  0.1214
44734W        W53534   7.273   0.068   1.407 -0.0346 -0.0851  0.1480
44735W        W53535  22.555   7.299  23.066 -0.1055  0.1452  0.0305
44736W        W53536  31.298   4.222   6.560 -0.1530  0.2825  0.0962
44737W        W53537  23.541   3.417  17.600 -0.1067 -0.2791 -0.0641
44738W        W53538   4.499   5.194  15.814  0.0390  0.0257  0.2612
44739W        W53539  17.991   1.549  17.458 -0.0192 -0.2667 -0.0349
44740W        W53540   8.846   0.667   0.860 -0.3630  0.3268  0.3612
44741W        W53541  30.469   1.504  24.131  0.0426 -0.3790 -0.0179
44742W        W53542  28.840   0.005   0.311  0.2461  0.2589 -0.0884
44743W        W53543   1.893   7.463  21.498  0.2363  0.1170 -0.0930
44744W        W53544  26.922   5.203   6.278 -0.1020 -0.4104  0.1451
44745W        W53545  26.545   6.021  24.208 -0.0862  0.0321 -0.1476
44746W        W53546   2.067   4.856   7.884  0.3089  0.0366  0.0907
44747W        W53547   2.234   2.324   1.293  0.3578  0.1258  0.1432
44748W        W53548  29.984   0.296  17.173  0.1320  0.2596  0.1240
44749W        W53549  27.437   7.028  23.763  0.4342 -0.0963 -0.2117
44750W        W53550   1.526   4.836  17.277 -0.3607 -0.1005  0.2509
44751W        W53551   5.374   2.216  19.854  0.3244 -0.3150  0.0967
44752W        W53552  30.302   0.763  17.433  0.3416  0.3136 -0.0757
44753W        W53553   7.394   5.644  23.920  0.0292 -0.1155 -0.1347
44754W        W53554  25.954   3.378  18.756  0.2810  0.2413  0.0726
44755W        W53555  21.022   6.188   2.818  0.0985 -0.1051 -0.0994
44756W        W53556   4.089   6.472  24.509  0.0055  0.0983  0.1959
44757W        W53557  22.774   5.456   7.584 -0.1279 -0.0572 -0.0976
44758W        W53558  22.065   3.944   0.982  0.1686  0.1139 -0.4838
44759W        W53559  26.984   0.911   1.659  0.0309 -0.1301  0.1699
44760W        W53560  25.347   7.604  17.715 -0.1423  0.2449 -0.1089
44761W        W53561  28.990   5.764   0.032  0.2201 -0.1472  0.0846
44762W        W53562  15.475   5.741  23.045  0.0642  0.0652 -0.2505
44763W        W53563  20.788   3.245   0.932  0.4375 -0.0830  0.0457
44764W        W53564  21.017   7.356   8.267  0.2308 -0.2631  0.2476
44765W        W53565  17.753   5.486   4.495 -0.0527  0.1466 -0.0625
44766W        W53566  14.749   6.120   1.137  0.0352  0.0061  0.3043
44767W        W53567  17.089   5.157   3.515 -0.3991  0.0407  0.2797
44768W        W53568  19.530   6.846  25.656 -0.0153 -0.4291  0.0125
44769W        W53569  21.280   3.470   2.637  0.3029 -0.3365 -0.1251
44770W        W53570  11.978   6.111   3.344 -0.1722  0.0844  0.1784
44771W        W53571  12.986   2.514  17.977  0.4171  0.1999  0.0683
44772W        W53572   6.324   2.569   9.439 -0.2602 -0.1470  0.4365
44773W        W53573  25.190   6.921  10.460 -0.2739 -0.3247 -0.1013
44774W        W53574   7.920   2.259  20.910  0.0742  0.2403 -0.0461
44775W        W53575  14.603   7.456  17.504 -0.0800  0.2221  0.1373
44776W        W53576  27.365   2.226   4.126 -0.1952  0.1842  0.1371
44777W        W53577  26.987   1.422   1.955  0.0252  0.1424 -0.0942
44778W        W53578  17.050   7.057  19.101  0.1756  0.1739  0.2051
44779W        W53579  12.303   2.436   1.106 -0.2622  0.0717  0.1375
44780W        W53580  18.852   6.355   2.171  0.0032 -0.0155 -0.1504
44781W        W53581  30.119   4.886  23.414  0.2241  0.2228 -0.1083
44782W        W53582  24.519   3.789  22.921  0.1660 -0.0756  0.0956
44783W        W53583  24.852   4.138  17.818 -0.2772  0.0917 -0.4307
44784W        W53584  11.605   7.704   2.359  0.2355  0.2882  0.1886
44785W        W53585  28.135   2.557  14.661  0.1175 -0.0025  0.0386
44786W        W53586   0.720   6.158  17.002  0.1125 -0.2171  0.1997
44787W        W53587  28.190   6.278  24.148  0.1301 -0.0816 -0.1549
44788W        W53588   1.147   2.347  14.653  0.1435 -0.4053  0.0521
44789W        W53589   0.859   2.706   7.701 -0.1466  0.1001 -0.1745
44790W        W53590  14.571   0.184   2.609  0.1891 -0.1877  0.0404
44791W        W53591   2.871   4.920  15.565  0.1428  0.0298 -0.0169
44792W        W53592  31.092   4.669   3.016 -0.0549  0.3455 -0.0073
44793W        W53593  16.232   7.063   5.721  0.1506  0.0887  0.1174
44794W        W53594   9.804   7.700   3.077  0.0441  0.0506 -0.0373
44795W        W53595   5.168   5.196  20.297  0.0361 -0.3278 -0.3114
44796W        W53596   2.997   0.097   6.819  0.2307 -0.0336  0.1946
44797W        W53597   1.251   7.194  22.486  0.0971 -0.1218  0.1194
44798W        W53598  21.321   6.758   5.995 -0.0740  0.1825  0.0467
44799W        W53599  18.803   4.926   8.334 -0.0442  0.2232  0.0450
44800W        W53600  17.769   6.019  17.720  0.1134  0.0478 -0.0413
44801W        W53601  14.601   0.010   1.147 -0.2699 -0.1313  0.5190
44802W        W53602  19.385   2.585  19.272 -0.0762  0.2275 -0.3789
44803W        W53603  18.832   3.246   9.704 -0.0756 -0.0121 -0.2169
44804W        W53604   3.642   7.622   1.387 -0.0054  0.1679  0.2844
44805W        W53605  13.870   1.430   0.819 -0.1054 -0.1068 -0.0896
44806W        W53606  25.010   3.766  25.123  0.0582 -0.0679  0.4051
44807W        W53607  26.707   4.846  11.361 -0.0552 -0.1998  0.0509
44808W        W53608   2.014   3.287  24.174 -0.0560 -0.2782  0.1142
44809W        W53609   7.772   4.653   9.541 -0.2111 -0.2140  0.0380
44810W        W53610  16.178   2.417  14.811  0.1667  0.0175  0.0036
44811W        W53611   5.720   5.629  25.998  0.4157  0.0841 -0.0855
44812W        W53612   4.253   7.142  23.121  0.1152  0.2842  0.0415
44813W        W53613  27.898   1.873   4.100  0.3717 -0.0846 -0.2034
44814W        W53614   2.050   4.813   3.230 -0.1124  0.2777 -0.0166
44815W        W53615   0.921   3.065  16.835  0.1498  0.0339 -0.2756
44816W        W53616  19.152   4.810  11.431  0.0462 -0.5772  0.0964
44817W        W53617  23.927   1.028  22.253  0.2609 -0.1218  0.1200
44818W        W53618  23.199   6.323  18.188  0.0861  0.1436 -0.1653
44819W        W53619   5.638   0.446   7.675 -0.1108 -0.3330 -0.3095
44820W        W53620  18.227   1.202   3.118 -0.1817 -0.0192 -0.2298
44821W        W53621  15.115   6.466  19.594  0.0549 -0.0024  0.2961
44822W        W53622  16.701   7.061   5.595  0.1202  0.2389 -0.2197
44823W        W53623  22.440   2.053  22.587  0.0087 -0.2236 -0.1729
44824W        W53624  22.440   3.832  15.218 -0.3100 -0.2934  0.0124
44825W        W53625  28.630   7.749  19.985 -0.2165  0.0432 -0.1966
44826W        W53626   0.756   2.556   6.553 -0.0139  0.0502 -0.2513
44827W        W53627  26.138   5.739   8.605  0.2484 -0.2387  0.2055
44828W        W53628  10.489   7.712  22.164  0.0305  0.0260  0.3109
44829W        W53629  14.750   1.054  18.070  0.1670  0.0363  0.1887
44830W        W53630  12.326   0.327   7.887 -0.0708  0.0060 -0.0892
44831W        W53631   6.254   0.270  22.758  0.0880 -0.1169 -0.1755
44832W        W53632   5.686   4.019   2.475 -0.2147 -0.1396 -0.1103
44833W        W53633  18.400   3.575   5.920 -0.1349 -0.1272  0.2326
44834W        W53634   4.215   6.461   8.761 -0.0725 -0.0059  0.0644
44835W        W53635  22.431   3.103   9.077 -0.0450  0.3386 -0.1441
44836W        W53636  28.168   5.344  25.192 -0.0252 -0.1445  0.2607
44837W        W53637   0.208   5.847   9.019  0.1012  0.3203 -0.0752
44838W        W53638  15.098   3.296   5.533  0.0547 -0.0469  0.0794
44839W        W53639  12.963   3.744   6.311  0.2651 -0.3751  0.0822
44840W        W53640  10.621   1.386  15.979  0.1450 -0.0855 -0.1035
44841W        W53641  14.717   6.365  17.941  0.0117  0.1998  0.3062
44842W        W53642   3.382   7.237  22.521 -0.0292  0.2825 -0.0656
44843W        W53643  31.418   2.802   8.735  0.1095  0.0705 -0.0400
44844W        W53644   0.781   2.030  15.371 -0.1103  0.2202 -0.2185
44845W        W53645  31.418   2.966  17.661  0.1406 -0.1789  0.0768
44846W        W53646  23.898   4.826  23.633 -0.3295  0.1600  0.0453
44847W        W53647  29.634   3.137  24.889  0.0325 -0.0103 -0.0512
44848W        W53648  15.238   5.981   5.846  0.0220  0.1714 -0.0653
44849W        W53649  25.449   2.801   2.740 -0.1518 -0.1011 -0.0324
44850W        W53650   7.052   3.739   6.430 -0.3192  0.0577  0.3359
44851W        W53651  16.277   2.296  11.308 -0.0026  0.2968  0.3435
44852W        W53652  12.902   6.028   3.409 -0.0465  0.0239 -0.1387
44853W        W53653  12.939   4.767  22.070  0.0385  0.0482  0.1110
44854W        W53654   1.879   4.844   9.097 -0.2030 -0.0818  0.0572
44855W        W53655   7.537   3.087   7.437  0.3206 -0.0625  0.4555
44856W        W53656   5.044   5.700  19.017  0.1150  0.0040 -0.2399
44857W        W53657   9.851   0.197  19.993  0.0508 -0.1209 -0.0201
44858W        W53658  21.493   6.100   0.580  0.3264  0.2677  0.1740
44859W        W53659  11.333   0.496   3.515 -0.3296  0.0679  0.2759
44860W        W53660   4.530   4.845   8.285  0.0179  0.2306 -0.1132
44861W        W53661  21.772   4.014   7.638 -0.0120 -0.0647  0.1815
44862W        W53662  13.373   4.571  21.577 -0.0237  0.1410  0.2085
44863W        W53663  12.684   6.950  20.394 -0.2380  0.0030 -0.4754
44864W        W53664  25.474   3.359   6.039  0.0349 -0.4049 -0.0397
44865W        W53665  13.257   6.356  18.225 -0.0852  0.1386 -0.2091
44866W        W53666  12.001   0.956   4.289  0.1875  0.3173 -0.1531
44867W        W53667  25.033   4.793   3.925  0.0583  0.0385 -0.0522
44868W        W53668   3.294   6.264  22.930 -0.4946  0.0615 -0.0600
44869W        W53669  16.744   5.808  20.800 -0.1255  0.3330  0.3482
44870W        W53670  14.278   6.749   2.465 -0.2350  0.1633  0.0719
44871W        W53671   5.036   2.427  25.436  0.1053  0.3252 -0.0053
44872W        W53672  11.344   3.884  21.262 -0.0591 -0.2353 -0.3821
44873W        W53673  22.715   1.478   8.487  0.1101 -0.0289  0.1245
44874W        W53674   0.496   2.102  16.626  0.1486  0.2471  0.2030
44875W        W53675  19.942   0.418   7.024 -0.1114 -0.3172  0.1942
44876W        W53676  25.053   3.651  18.075  0.2642  0.2373  0.0710
44877W        W53677  25.846   2.826   9.670 -0.3320  0.0027 -0.3413
44878W        W53678  12.268   7.078   7.729 -0.3535 -0.1016  0.1278
44879W        W53679   9.355   6.991  18.975  0.1601 -0.1136  0.0999
44880W        W53680  12.850   5.418  10.443 -0.4323  0.0346  0.0214
44881W        W53681  18.967   1.311  20.022 -0.3692  0.1314  0.2051
44882W        W53682  29.989   6.981  20.828 -0.4113  0.1577 -0.2890
44883W        W53683   3.982   6.720  15.998 -0.0629  0.1289  0.4988
44884W        W53684   4.105   2.817   6.558  0.0876  0.2219  0.1953
44885W        W53685  28.996   3.520  19.046  0.0107  0.1298  0.0932
44886W        W53686  11.220   2.238  19.663 -0.1605  0.2937 -0.2550
44887W        W53687   1.501   1.658   9.020  0.0697 -0.2747 -0.2025
44888W        W53688   9.358   4.950  18.751  0.0315  0.1572 -0.1248
44889W        W53689  18.225   5.041   5.143 -0.0758 -0.0905  0.0149
44890W        W53690  25.244   4.910   0.285  0.1886  0.0817 -0.0414
44891W        W53691  25.341   4.662   3.544  0.0399  0.0719  0.4642
44892W        W53692  20.748   5.413   0.581 -0.0417  0.3787 -0.5331
44893W        W53693  17.883   7.397   9.108  0.0894  0.1358  0.1310
44894W        W53694  12.976   7.288  18.303  0.0822  0.4126  0.0921
44895W        W53695   8.073   0.951   3.004  0.1492  0.3363  0.0635
44896W        W53696   5.567   6.651   1.608  0.0899  0.1192  0.0149
44897W        W53697   6.341   4.389  20.921  0.0355 -0.2458  0.3111
44898W        W53698   7.943   4.740   8.994 -0.1110 -0.2220  0.4149
44899W        W53699   4.255   2.254  24.619  0.3276 -0.2944  0.1529
44900W        W53700  29.744   5.533  18.154 -0.0030  0.0999  0.1186
44901W        W53701  25.111   5.019   8.453 -0.2588 -0.1471 -0.1367
44902W        W53702  16.858   6.067   0.845  0.3258 -0.2612  0.1714
44903W        W53703  31.287   0.035   4.863  0.2509  0.1378 -0.2366
44904W        W53704  12.161   3.758   2.706  0.0212  0.1002  0.4930
44905W        W53705  24.210   2.869  20.287 -0.0541 -0.3516 -0.3295
44906W        W53706  13.823   6.350  24.323  0.2225  0.3375 -0.0639
44907W        W53707   2.985   3.408   7.274  0.1312  0.1917  0.3823
44908W        W53708   5.050   5.101   0.390  0.1002 -0.1487 -0.0801
44909W        W53709   4.828   7.685   7.193 -0.1352  0.1253 -0.1427
44910W        W53710   7.261   7.253   8.274  0.0397  0.1775 -0.1433
44911W        W53711  16.731   0.490   4.043 -0.1300  0.0811 -0.0060
44912W        W53712  13.649   5.024   5.618  0.2657  0.1131  0.3749
44913W        W53713   3.621   7.336   6.933  0.1755  0.1868 -0.0361
44914W        W53714  26.352   4.964   5.164  0.1914  0.0267 -0.0517
44915W        W53715  28.465   7.241  17.873 -0.0838 -0.0417  0.0874
44916W        W53716  30.727   2.120  17.768  0.0191 -0.0065  0.1029
44917W        W53717   2.730   0.991   0.485 -0.2392 -0.1417 -0.2860
44918W        W53718   5.393   5.996  18.879 -0.3118  0.0192 -0.0509
44919W        W53719  29.509   7.790   3.052 -0.1948  0.3723 -0.0305
44920W        W53720   9.511   4.797  24.498 -0.0594  0.0475  0.1029
44921W        W53721  27.659   4.658   8.292  0.2627  0.1528 -0.0546
44922W        W53722  10.649   3.550   5.016 -0.1156  0.3407 -0.0051
44923W        W53723  18.933   6.595   6.678 -0.2806 -0.4066 -0.0164
44924W        W53724   0.891   2.245  19.765 -0.0894 -0.1886 -0.0315
44925W        W53725  17.177   0.123   8.103  0.0316  0.0848  0.0431
44926W        W53726  23.181   4.874   9.348  0.0890  0.0293 -0.1750
44927W        W53727  14.794   3.374  19.807  0.1297  0.0050 -0.1223
44928W        W53728  16.584   6.639  21.284 -0.0970 -0.2363 -0.0448
44929W        W53729   7.738   5.892   3.746 -0.0354 -0.2801 -0.1858
44930W        W53730  14.355   4.368   7.763  0.3370  0.1198 -0.1127
44931W        W53731  18.071   3.648  24.045  0.2725 -0.0421 -0.0426
44932W        W53732   2.355   5.544  19.511 -0.1066 -0.1519 -0.0874
44933W        W53733  13.558   4.930  20.678  0.0451 -0.3000 -0.0725
44934W        W53734  10.782   0.897   4.809  0.1426  0.0042 -0.2630
44935W        W53735  16.775   3.827  11.177 -0.0225  0.1419 -0.0571
44936W        W53736  16.685   1.993  15.030 -0.1250 -0.1336 -0.1100
44937W        W53737  15.314   1.540   8.400 -0.1583  0.0615  0.0249
44938W        W53738   4.520   3.689   9.888  0.2033  0.1257 -0.0707
44939W        W53739   5.740   3.237  25.586 -0.0068 -0.2272 -0.0158
44940W        W53740  22.039   2.875  24.749 -0.4191 -0.2416  0.3252
44941W        W53741  14.980   3.423  16.543  0.1562  0.0774  0.2744
44942W        W53742  22.804   7.796  23.230 -0.1190  0.0041  0.0817
44943W        W53743   5.605   5.690  25.546 -0.4073 -0.1270  0.0204
44944W        W53744  29.935   7.352  24.703 -0.2891 -0.0322  0.1444
44945W        W53745  30.367   6.162   1.867 -0.0172  0.4102  0.1308
44946W        W53746   7.617   6.117  19.985 -0.0687  0.2505  0.1596
44947W        W53747   2.745   3.707   4.630  0.0616 -0.1396 -0.0196
44948W        W53748  25.767   5.018   6.218 -0.2685  0.0533 -0.2642
44949W        W53749  16.543   7.694   2.774 -0.0279  0.1409  0.1998
44950W        W53750  28.277   0.459   3.685 -0.1305 -0.1864 -0.0724
44951W        W53751  18.407   6.356  10.376  0.1364  0.0788 -0.0352
44952W        W53752  19.014   5.680  15.168  0.3422 -0.0636  0.2226
44953W        W53753  25.582   1.708   7.261 -0.1578 -0.2110 -0.1914
44954W        W53754   3.653   3.530  15.076  0.0458 -0.0047  0.2111
44955W        W53755  23.955   6.332   9.695  0.0141  0.1043  0.2276
44956W        W53756  29.333   2.615   5.247 -0.1448 -0.0394  0.2407
44957W        W53757   7.266   0.415  23.874  0.1280 -0.0818  0.2103
44958W        W53758  28.077   1.730  20.004 -0.0425 -0.2136 -0.0706
44959W        W53759  30.563   4.552   1.752 -0.2922  0.0255  0.2412
44960W        W53760  21.058   7.325  20.865 -0.0026  0.0280 -0.0975
44961W        W53761  14.684   7.619  24.164  0.1707  0.1860  0.2324
44962W        W53762  22.637   5.795  20.534 -0.0861 -0.1609 -0.0687
44963W        W53763  10.148   1.214  15.934  0.1440  0.0177  0.0012
44964W        W53764   0.766   0.804   7.405  0.0936 -0.2606 -0.2154
44965W        W53765  26.850   6.679   9.713  0.0525 -0.0249  0.0548
44966W        W53766  24.574   7.827  18.115 -0.2981  0.0364 -0.1509
44967W        W53767   7.740   6.164  24.643  0.3494  0.3725  0.0253
44968W        W53768  21.801   6.570   9.709  0.3378 -0.1117  0.0809
44969W        W53769   9.927   4.957  22.049 -0.1019  0.2276 -0.1833
44970W        W53770  20.226   1.520  17.989  0.3479 -0.1210  0.0827
44971W        W53771  21.013   5.280  22.040  0.0476 -0.3523  0.0202
44972W        W53772  26.933   0.817  21.092  0.1631 -0.1168 -0.2258
44973W        W53773  29.504   3.132   8.963 -0.0298 -0.0060 -0.0562
44974W        W53774  29.316   0.888   6.815  0.1533 -0.4345  0.1901
44975W        W53775   0.841   5.328  17.198  0.1562 -0.1981 -0.0040
44976W        W53776   5.029   1.565   1.586 -0.4033 -0.1750 -0.3124
44977W        W53777   9.288   4.396   9.396  0.2306  0.2616  0.0372
44978W        W53778  30.274   6.697   0.444  0.3233  0.1317 -0.0212
44979W        W53779   0.631   3.176   3.981  0.0487 -0.0796  0.0983
44980W        W53780   9.017   1.294   8.709  0.1250 -0.0180  0.0310
44981W        W53781  20.475   7.561   3.827  0.0594  0.0104 -0.0507
44982W        W53782   6.239   0.455  15.651 -0.0453 -0.1936 -0.1248
44983W        W53783  16.117   6.006  21.162 -0.1174 -0.2805  0.0755
44984W        W53784  24.761   4.974   1.518 -0.1209  0.2479 -0.0533
44985W        W53785  12.956   5.883  25.104 -0.1831 -0.1565  0.1881
44986W        W53786  24.172   7.088  24.733 -0.0947 -0.1182 -0.2758
44987W        W53787   2.130   3.541   5.087 -0.1062 -0.3171 -0.1562
44988W        W53788  25.484   0.549  11.021  0.3918  0.0688  0.2146
44989W        W53789  30.715   4.076  17.351  0.1582  0.1412  0.1139
44990W        W53790  13.268   6.037  23.576  0.3207  0.0345  0.3009
44991W        W53791  29.146   3.426  17.758 -0.0902  0.3389 -0.1946
44992W        W53792  23.479   3.024   6.543  0.1631  0.0161 -0.1075
44993W        W53793   5.221   3.445   2.737  0.1525  0.3145  0.1814
44994W        W53794  28.176   0.284  23.858 -0.0736 -0.3195  0.0513
44995W        W53795  14.916   4.822   3.658 -0.1060  0.1388  0.1352
44996W        W53796  19.144   5.246   1.322  0.2054 -0.1197 -0.3940
44997W        W53797   0.121   1.045   8.054 -0.2463 -0.2054  0.1109
44998W        W53798  12.934   4.627  16.236  0.0412 -0.0641 -0.0451
44999W        W53799  28.034   3.830   0.793 -0.1957 -0.0517 -0.2214
45000W        W53800  22.626   5.297   2.817 -0.0489 -0.1756  0.2841
45001W        W53801  13.574   5.551  22.297 -0.3587  0.2508 -0.0247
45002W        W53802   0.105   3.050   8.219  0.0627  0.1995 -0.4477
45003W        W53803  17.201   6.972  20.279  0.0744  0.0250 -0.3225
45004W        W53804  18.764   2.566   0.030  0.0683 -0.0451 -0.1383
45005W        W53805  18.813   4.699  20.802  0.0980 -0.1646  0.0438
45006W        W53806  24.482   4.951   1.972 -0.1810 -0.1352 -0.3615
45007W        W53807  25.833   2.802   2.316  0.1611  0.0975  0.2326
45008W        W53808  15.832   1.472  18.601  0.0100  0.1777  0.0740
45009W        W53809  23.619   6.928  23.076 -0.1922  0.0634  0.2374
45010W        W53810   2.180   5.128  14.777  0.0771  0.3135  0.0678
45011W        W53811  21.565   6.140   9.412 -0.1694  0.0966  0.0924
45012W        W53812   5.003   6.165   6.458  0.1512  0.0630 -0.0725
45013W        W53813  25.290   0.455   2.215  0.0228  0.0942  0.0746
45014W        W53814   9.322   2.434   9.061  0.1372  0.1371  0.1501
45015W        W53815  26.601   2.185   2.423 -0.1734  0.2062  0.5472
45016W        W53816   9.949   6.157   0.352 -0.2150 -0.0855  0.2272
45017W        W53817   6.990   0.614   5.888  0.0512 -0.2695 -0.0308
45018W        W53818  13.247   2.274  10.261  0.1767  0.1179  0.1774
45019W        W53819  16.179   3.839   4.253 -0.2317  0.1504  0.4300
45020W        W53820   6.793   1.287   2.678  0.2182  0.2909  0.3094
45021W        W53821   2.166   3.222  15.134 -0.3045  0.1619 -0.1486
45022W        W53822   0.016   0.601   2.079  0.1489 -0.0675 -0.1207
45023W        W53823  30.246   7.106   1.539 -0.3083 -0.0100  0.3937
45024W        W53824  29.984   2.372   2.093  0.2116  0.2830 -0.1620
45025W        W53825   9.831   3.872   0.082 -0.0345  0.2898  0.0666
45026W        W53826  13.294   7.152  16.095 -0.2216 -0.0156  0.3176
45027W        W53827  23.225   6.156   8.152  0.1618 -0.1773  0.2945
45028W        W53828  19.986   2.293   3.056  0.1245  0.1707 -0.1343
45029W        W53829  13.598   6.552  21.470 -0.0047  0.2021 -0.3032
45030W        W53830  21.743   1.293  23.039 -0.0517  0.0131  0.0546
45031W        W53831   2.375   0.388   7.494 -0.0125 -0.1182 -0.0684
45032W        W53832  25.658   4.713   0.499 -0.1256 -0.0807 -0.1192
45033W        W53833   5.481   0.846   4.646 -0.2651 -0.0958  0.1952
45034W        W53834   0.457   3.279   2.261 -0.2532  0.0954 -0.0823
45035W        W53835  21.921   7.262  19.801  0.3832  0.0473 -0.0161
45036W        W53836   0.143   2.801   2.226 -0.1384 -0.4191 -0.0870
45037W        W53837  20.601   1.607  18.325  0.2185  0.0077 -0.0917
45038W        W53838   8.010   6.288  19.498 -0.3667 -0.1242 -0.0337
45039W        W53839  29.262   4.895  24.406  0.1616 -0.2684 -0.0037
45040W        W53840  15.152   3.420   8.365 -0.1143 -0.1308  0.0686
45041W        W53841   9.366   2.205  14.923 -0.1356 -0.2288  0.1173
45042W        W53842  24.217   7.277  17.742  0.1086 -0.0442 -0.0403
45043W        W53843  17.842   1.986  17.666 -0.1413 -0.1190  0.1697
45044W        W53844   0.691   2.482   5.086  0.0171 -0.1056 -0.1970
45045W        W53845  13.082   4.860  18.267 -0.0981  0.0641  0.1353
45046W        W53846   2.300   7.547  20.445  0.0636  0.2036  0.2826
45047W        W53847  29.524   4.957   7.254 -0.1836 -0.0210 -0.0677
45048W        W53848  15.181   5.976  23.498 -0.1719  0.0000 -0.0398
45049W        W53849   0.505   0.537  10.114 -0.1508  0.0783  0.2617
45050W        W53850  10.076   5.376  11.099 -0.2493  0.1160 -0.0687
45051W        W53851   7.561   6.918   4.000 -0.0056  0.0794  0.0201
45052W        W53852   5.428   4.330  20.176  0.3222  0.3051 -0.0502
45053W        W53853   0.136   1.664   0.071  0.1471 -0.1483 -0.0977
45054W        W53854  14.523   0.200  24.765  0.2530  0.3005 -0.1244
45055W        W53855  27.896   3.629   8.763 -0.1148  0.3861 -0.2029
45056W        W53856   2.131   0.851   8.843 -0.3182 -0.0798  0.1126
45057W        W53857  15.137   1.253   2.676  0.0871  0.1231 -0.1049
45058W        W53858  13.931   5.329  20.635  0.0356  0.1191 -0.2301
45059W        W53859  19.452   0.911   5.764 -0.0895 -0.0370 -0.1620
45060W        W53860   1.279   5.943   2.682  0.0825 -0.1995  0.0094
45061W        W53861   9.909   1.368  10.593  0.0686 -0.0371 -0.3264
45062W        W53862  29.655   7.646  23.678 -0.3279  0.1778 -0.3288
45063W        W53863  24.252   5.406   3.755  0.0717  0.1951  0.2054
45064W        W53864  23.525   6.080   0.335  0.2749  0.0982 -0.4140
45065W        W53865  16.413   3.421  15.868  0.0271  0.0823 -0.0462
45066W        W53866  27.826   4.062  22.507 -0.2152 -0.3166  0.1438
45067W        W53867  14.187   4.486  25.786  0.0349 -0.0781  0.1173
45068W        W53868   3.046   7.860   6.253  0.0127  0.0120 -0.4337
45069W        W53869  27.762   4.689  24.936  0.1752 -0.0518  0.2555
45070W        W53870  30.382   7.839  20.200  0.2374 -0.2228  0.3004
45071W        W53871  23.973   3.757   6.288 -0.0789  0.3361  0.0225
45072W        W53872   5.267   3.205   8.181  0.0635  0.0992 -0.0456
45073W        W53873  29.673   6.565   9.200 -0.3613 -0.0192 -0.0119
45074W        W53874  27.982   0.297  20.330 -0.0991 -0.1415  0.0078
45075W        W53875  20.757   4.235  24.165 -0.0461  0.0938  0.2378
45076W        W53876  16.920   5.291   6.842  0.3663 -0.1043 -0.1948
45077W        W53877  10.066   2.499  20.674  0.4527 -0.0371  0.2445
45078W        W53878  26.612   2.458  24.706 -0.1347 -0.2696  0.2468
45079W        W53879  30.380   1.279   8.263  0.2349 -0.1119 -0.0142
45080W        W53880   7.960   0.661   8.182  0.0498  0.2263 -0.1626
45081W        W53881  14.287   7.727   5.712  0.0038 -0.0768  0.3254
45082W        W53882   3.663   1.624   6.217  0.1009  0.0912 -0.4581
45083W        W53883  17.449   4.137  16.164  0.3882  0.1221  0.1742
45084W        W53884   5.853   0.888  24.609  0.3849 -0.1109  0.1449
45085W        W53885  11.830   3.968   8.261 -0.3052 -0.0381 -0.4484
45086W        W53886  26.132   1.522  21.253 -0.3637  0.2378  0.1172
45087W        W53887   2.372   1.731   8.702  0.0409 -0.0999  0.3229
45088W        W53888  27.285   0.232  23.596 -0.0832  0.1481  0.2721
45089W        W53889  21.800   1.857   7.959  0.1871 -0.0762  0.0305
45090W        W53890  29.417   2.187   4.495 -0.0771 -0.1017  0.1377
45091W        W53891  22.225   6.809   7.587 -0.0053  0.0498  0.0305
45092W        W53892   0.709   0.628  25.294  0.2806 -0.0383  0.0438
45093W        W53893  21.211   7.441   2.408  0.1338  0.1393 -0.0388
45094W        W53894   6.882   6.417   7.273 -0.4009 -0.0960 -0.1961
45095W        W53895   0.717   2.258  23.476  0.0595  0.0798 -0.1340
45096W        W53896  19.178   1.627  24.205  0.4966 -0.1926 -0.0182
45097W        W53897  27.754   3.420   5.484  0.0142 -0.3944  0.0715
45098W        W53898  18.400   4.827   2.675  0.3386 -0.2710 -0.2250
45099W        W53899  23.643   5.489   9.234  0.2500  0.0674  0.1642
45100W        W53900  17.079   6.656  25.281  0.1141  0.0593 -0.1808
45101W        W53901  11.377   1.037   0.239  0.0725 -0.4303  0.0071
45102W        W53902   2.197   2.495  17.254  0.0121 -0.0183 -0.4105
45103W        W53903  20.265   0.903   7.691  0.0921  0.1145  0.1320
45104W        W53904  26.316   2.802  23.048 -0.3268 -0.1231  0.3604
45105W        W53905  22.520   6.908   5.424  0.0050  0.1337  0.0228
45106W        W53906  29.806   1.503  19.800 -0.0620  0.1635 -0.0251
45107W        W53907  27.748   6.784   5.085 -0.0134  0.0466 -0.1540
45108W        W53908  31.322   6.654  24.733 -0.1717  0.1924  0.2722
45109W        W53909  26.429   0.189  20.597  0.0865  0.2764  0.3546
45110W        W53910  26.340   6.770   1.386  0.1113 -0.1823 -0.0467
45111W        W53911   2.230   2.395  16.519 -0.0483 -0.1136 -0.0276
45112W        W53912  15.534   1.723   6.082 -0.3228  0.1607 -0.2379
45113W        W53913  10.105   1.602  15.271 -0.0230 -0.2002 -0.0129
45114W        W53914  21.357   1.332  22.534 -0.1043  0.0542 -0.1275
45115W        W53915  25.079   0.329  16.472 -0.2547 -0.1892  0.0416
45116W        W53916  12.637   7.388   0.489 -0.1179  0.0300 -0.1187
45117W        W53917  16.136   2.273  10.802 -0.0081  0.3144  0.1610
45118W        W53918   7.647   0.728  17.312  0.0731  0.1678  0.1061
45119W        W53919   3.999   0.128   8.134 -0.1986 -0.1297  0.2744
45120W        W53920  26.111   4.073  24.192 -0.1539 -0.3315  0.1629
45121W        W53921  19.688   1.146   2.098 -0.0697 -0.1056 -0.3294
45122W        W53922   0.763   2.656  21.024  0.0718 -0.0335  0.3840
45123W        W53923  29.458   0.365   2.924  0.2903 -0.1497 -0.0219
45124W        W53924  23.602   7.655  17.119  0.2241 -0.1767 -0.3244
45125W        W53925  25.692   1.479  24.679  0.0467 -0.1878 -0.3666
45126W        W53926  20.841   1.132  17.168 -0.0164 -0.0211  0.4617
45127W        W53927   2.429   1.054  19.360  0.1121 -0.2356  0.2503
45128W        W53928  13.028   6.745   2.621 -0.1390  0.0826 -0.3115
45129W        W53929  20.400   3.378  19.033  0.1964 -0.0385 -0.2396
45130W        W53930  19.650   3.043   8.484 -0.0757 -0.0639  0.1000
45131W        W53931   1.022   7.021  20.218 -0.1240  0.1599  0.0708
45132W        W53932   4.523   4.761   6.210  0.1137  0.2744  0.3000
45133W        W53933  24.684   6.802  24.349 -0.1471 -0.1272  0.0171
45134W        W53934  27.385   3.288  17.506  0.0963 -0.2091  0.2370
45135W        W53935  20.304   3.472  23.216 -0.0996  0.0657 -0.0510
45136W        W53936   3.937   2.453   1.120 -0.2938  0.1406 -0.1038
45137W        W53937  17.649   0.493  20.260 -0.0428 -0.0181 -0.2166
45138W        W53938  29.806   6.637  21.105  0.0673 -0.0505 -0.1993
45139W        W53939   1.771   7.156  16.780  0.3325 -0.1661  0.0314
45140W        W53940   7.515   2.634   9.949  0.0220  0.0943 -0.0043
45141W        W53941  13.380   6.517  24.234  0.1957  0.2121 -0.0949
45142W        W53942  10.702   2.207  18.841 -0.0107  0.0781 -0.2371
45143W        W53943  13.545   1.981  25.377 -0.0456 -0.1609 -0.0427
45144W        W53944   2.705   6.849   6.186 -0.2018  0.1587 -0.0286
45145W        W53945  23.748   6.904   0.790  0.2464 -0.1587  0.2952
45146W        W53946   5.594   2.652   8.162 -0.0768  0.0491 -0.0446
45147W        W53947  16.656   4.853   3.278 -0.1180  0.4034  0.2116
45148W        W53948  21.839   5.871  19.967  0.1534  0.0878  0.0215
45149W        W53949   0.924   1.994   8.226 -0.1418 -0.0439  0.1518
45150W        W53950  12.074   2.593  19.517  0.0676 -0.0975 -0.0224
45151W        W53951  25.062   4.390   0.788 -0.0001 -0.0154 -0.1340
45152W        W53952  25.652   4.211   2.220  0.1721 -0.2310 -0.0590
45153W        W53953  26.841   6.803  10.716 -0.2194 -0.1141  0.1799
45154W        W53954  10.694   1.436   0.948 -0.1106  0.2716  0.2134
45155W        W53955  29.507   3.285  19.218  0.3262 -0.3633 -0.0458
45156W        W53956  28.845   3.937  22.017  0.2378 -0.2840  0.3087
45157W        W53957   1.230   4.658  22.204 -0.0369 -0.0753  0.0626
45158W        W53958   9.864   2.576   2.180 -0.2507 -0.0886  0.1693
45159W        W53959  22.516   1.969  19.023  0.1407  0.3151 -0.2237
45160W        W53960   5.646   4.472   0.746 -0.0565 -0.1622 -0.1545
45161W        W53961  20.395   1.861  22.649  0.1268 -0.0604  0.2409
45162W        W53962   3.870   7.589   5.044  0.2200  0.1615  0.0240
45163W        W53963  26.665   2.243  17.927  0.0154 -0.0525 -0.1775
45164W        W53964  21.752   4.748   8.110 -0.3232  0.1413 -0.0222
45165W        W53965   9.679   7.370   5.348 -0.1185 -0.1005  0.0781
45166W        W53966   4.157   2.021   2.824 -0.0254 -0.2173 -0.0595
45167W        W53967   0.675   4.538  14.033 -0.2783 -0.0994  0.0789
45168W        W53968  15.828   2.176  21.542  0.1649 -0.0400  0.1014
45169W        W53969   2.229   7.590   8.314 -0.4241  0.0037  0.1095
45170W        W53970   7.719   1.064   6.126  0.0329 -0.1952  0.0583
45171W        W53971  25.043   3.018  25.631 -0.1466  0.0032  0.0797
45172W        W53972  27.530   7.111  20.300  0.0025 -0.0578 -0.0422
45173W        W53973  10.315   0.931   5.482  0.0977  0.4153  0.0216
45174W        W53974  13.985   2.588   6.100  0.2242  0.0592  0.0462
45175W        W53975  12.507   3.806   4.474  0.2344 -0.2014  0.4048
45176W        W53976   6.216   3.124   0.285  0.1117  0.1539  0.1060
45177W        W53977  28.812   2.648   8.367  0.2172  0.2084 -0.1954
45178W        W53978  20.228   1.087   3.006  0.2121 -0.0849  0.1003
45179W        W53979   9.255   1.597  24.016 -0.1953  0.0295  0.0021
45180W        W53980  10.919   0.996   6.999  0.3406 -0.2681 -0.1805
45181W        W53981  17.755   2.154   4.235 -0.2603 -0.4704 -0.0448
45182W        W53982   9.082   5.422   6.759  0.0619  0.0912 -0.3770
45183W        W53983  10.024   1.554  24.068  0.2364 -0.3019 -0.2849
45184W        W53984   4.690   3.820   9.062  0.0420 -0.1743 -0.0765
45185W        W53985  28.665   1.637  25.311  0.1138  0.0971  0.0295
45186W        W53986  30.473   7.525  10.205 -0.2299 -0.3509 -0.1398
45187W        W53987  25.706   2.374  16.687  0.3754 -0.1640  0.0216
45188W        W53988   1.250   3.169  17.227 -0.2510 -0.2572  0.1134
45189W        W53989  21.492   2.313   1.255  0.0076  0.2298 -0.1005
45190W        W53990   9.930   5.737   5.301 -0.0269 -0.1588  0.0631
45191W        W53991   7.505   7.353   1.876 -0.0274  0.2763  0.2950
45192W        W53992  29.338   6.185   9.267  0.0429 -0.1478  0.0922
45193W        W53993  13.807   5.260  24.871  0.1886 -0.0346 -0.0415
45194W        W53994  12.600   5.837  23.689  0.0655 -0.1754 -0.1926
45195W        W53995  16.295   3.202  25.238 -0.1386  0.2484 -0.4896
45196W        W53996  28.420   1.616   6.922 -0.0644 -0.0660  0.0933
45197W        W53997  12.902   2.829  19.272 -0.2842  0.0328 -0.1426
45198W        W53998   8.925   6.678   6.443 -0.0925 -0.0831  0.0908
45199W        W53999   5.510   3.373   1.917 -0.0006 -0.0656  0.2268
45200W        W54000  18.859   5.206  15.076 -0.0012 -0.0279 -0.2369
45201W        W54001  28.342   2.238   9.761 -0.1557  0.2286  0.0772
45202W        W54002  15.785   2.407  22.747  0.0949 -0.2646 -0.1593
45203W        W54003  14.518   7.752   9.644  0.0611  0.0642 -0.1738
45204W        W54004  20.944   2.210   0.335 -0.1599  0.0154 -0.1043
45205W        W54005  16.021   6.075   4.723  0.3273  0.1832  0.0444
45206W        W54006  23.059   0.352  23.228  0.0175  0.1837  0.0393
45207W        W54007  15.103   5.521  21.216 -0.1660  0.1587 -0.0046
45208W        W54008   8.764   6.825  18.410 -0.2743  0.4451 -0.1037
45209W        W54009  18.750   0.617   5.987  0.1679  0.0556  0.2044
45210W        W54010   7.051   1.922   7.024  0.2660  0.0388  0.4195
45211W        W54011  22.017   0.876  21.955 -0.2147 -0.0072  0.1049
45212W        W54012  10.833   2.701  18.737 -0.2330 -0.3493  0.2249
45213W        W54013   6.205   4.842   8.907  0.0044  0.0951  0.0210
45214W        W54014  19.499   4.698   0.247  0.1406  0.1088 -0.0859
45215W        W54015  25.890   2.581  10.451  0.1326  0.0757 -0.1696
45216W        W54016  24.936   6.068   3.025 -0.1198  0.0502 -0.1628
45217W        W54017  21.652   3.270   1.441 -0.0108 -0.1770  0.2674
45218W        W54018  12.404   5.537   6.260  0.0574  0.0715  0.1428
45219W        W54019  10.070   3.786  15.089 -0.0210  0.1207  0.0977
45220W        W54020  27.657   3.777   2.399 -0.0570  0.2335 -0.3259
45221W        W54021  31.424   1.783  24.979  0.1093 -0.1108  0.1287
45222W        W54022  11.490   2.446  20.145  0.3468  0.0981 -0.0270
45223W        W54023   9.359   2.831  25.902  0.4033  0.1619  0.0016
45224W        W54024   2.074   0.743  20.080 -0.0529 -0.1665 -0.0502
45225W        W54025  30.300   7.585   4.113  0.0968 -0.0663 -0.1545
45226W        W54026  11.496   3.716   7.407  0.1119  0.4525  0.1297
45227W        W54027   5.288   5.094   7.516  0.1528  0.0484 -0.4653
45228W        W54028  19.100   5.147   8.742  0.1089  0.4875  0.2749
45229W        W54029  15.474   2.339   3.484 -0.1562 -0.0081  0.2337
45230W        W54030  30.344   5.000   0.134  0.1870 -0.3754  0.0408
45231W        W54031  31.137   5.476  22.055 -0.3569  0.2652 -0.2458
45232W        W54032  22.582   6.801   1.425 -0.0851  0.1157  0.2036
45233W        W54033  20.568   0.116  19.509  0.1468 -0.0927  0.1484
45234W        W54034  20.236   4.784  19.875 -0.0275  0.0661  0.2574
45235W        W54035  29.726   0.465  19.055  0.0662  0.0314  0.1027
45236W        W54036  26.438   1.941  17.113  0.0616 -0.0808  0.2835
45237W        W54037   2.404   5.259   1.085 -0.0489 -0.0163 -0.1239
45238W        W54038   5.448   3.904   3.914  0.1091 -0.2154 -0.0691
45239W        W54039  29.177   1.965  23.181  0.0469 -0.0943  0.2273
45240W        W54040  12.046   6.764  19.221  0.0101  0.0630  0.0310
45241W        W54041   6.147   3.702  17.055  0.0723  0.0369 -0.5087
45242W        W54042   7.566   7.383   5.526  0.0412  0.0636  0.2529
45243W        W54043  28.650   5.390   7.092  0.1267  0.1203 -0.2200
45244W        W54044  10.136   3.854  20.499  0.0235  0.1534 -0.4878
45245W        W54045   6.415   4.684  18.896 -0.0891  0.0742  0.1378
45246W        W54046   9.072   6.328  14.715 -0.0204  0.1998  0.1493
45247W        W54047  12.429   2.963  19.525  0.1696  0.0983  0.1017
45248W        W54048   5.301   5.360  21.578  0.0996  0.1754 -0.1409
45249W        W54049  25.224   3.720  17.113 -0.1107 -0.1614 -0.0029
45250W        W54050  10.911   6.660   9.098 -0.2774  0.1957  0.0734
45251W        W54051   1.250   1.374   1.354 -0.2933 -0.0519  0.1543
45252W        W54052   3.081   3.228   6.776 -0.3689 -0.0618  0.1518
45253W        W54053  30.149   2.492  10.751 -0.0365 -0.0978 -0.0184
45254W        W54054  11.924   1.469  20.950 -0.0587  0.0671  0.1330
45255W        W54055   3.557   1.478   4.165  0.2706 -0.0999  0.1198
45256W        W54056  30.193   2.129  23.329  0.1883  0.0134 -0.0142
45257W        W54057  25.585   5.584   0.389  0.0220 -0.0109  0.0360
45258W        W54058  31.434   3.194   2.507 -0.0501  0.0055  0.1570
45259W        W54059   4.913   1.089   4.287 -0.1635 -0.1536 -0.1509
45260W        W54060   7.689   2.898  18.598  0.2030  0.0556  0.0905
45261W        W54061  15.216   0.229   0.362 -0.0834  0.1169 -0.0154
45262W        W54062  18.640   7.663   0.904 -0.0171  0.0315 -0.1130
45263W        W54063   8.496   2.692   5.940 -0.1617 -0.1486 -0.1331
45264W        W54064  20.236   6.746  20.468  0.0490  0.3028 -0.0572
45265W        W54065  27.209   1.265   4.125 -0.0283 -0.0490 -0.1064
45266W        W54066   0.577   4.250  16.547 -0.0714 -0.0130 -0.0757
45267W        W54067   1.822   1.374   5.783  0.2061  0.1295  0.2416
45268W        W54068   2.618   0.517   0.630  0.0396 -0.0048  0.1952
45269W        W54069  15.021   0.538   5.029  0.0168  0.0262 -0.1153
45270W        W54070  12.824   6.299  16.897 -0.0495  0.2589  0.0339
45271W        W54071   2.446   5.991   4.712  0.3658  0.0043 -0.3943
45272W        W54072   3.856   6.247   2.070 -0.1384  0.1025 -0.3504
45273W        W54073   1.631   5.705   0.025  0.2112 -0.1876  0.2970
45274W        W54074  26.157   2.825  16.117 -0.1435  0.0938  0.4137
45275W        W54075   6.903   7.255  22.336  0.0748 -0.0192  0.0168
45276W        W54076  10.163   2.941   2.554  0.0364 -0.2084 -0.0292
45277W        W54077  23.033   6.771   9.383  0.2433 -0.0306 -0.0409
45278W        W54078  21.821   6.083  23.330  0.1126  0.1903  0.1342
45279W        W54079   3.409   6.786   0.878 -0.0896 -0.1204  0.1423
45280W        W54080  13.365   6.975   3.719 -0.1518  0.0984 -0.1673
45281W        W54081  27.142   3.149  21.346  0.2938  0.1862 -0.2849
45282W        W54082   4.534   1.846   9.105 -0.1148 -0.2124 -0.1452
45283W        W54083  18.612   1.627  22.457 -0.0905  0.2340  0.0453
45284W        W54084  13.844   7.150  17.023  0.0603 -0.0231 -0.0598
45285W        W54085  15.411   5.822   1.169 -0.0039  0.0338  0.4127
45286W        W54086  23.198   2.042  21.858 -0.0364  0.3225  0.1107
45287W        W54087   9.679   5.894   8.720  0.0770 -0.0759  0.0351
45288W        W54088  21.653   5.716  17.279  0.0191 -0.4568 -0.1163
45289W        W54089  17.579   1.106  24.326  0.1441 -0.2169  0.0051
45290W        W54090  31.046   6.108  15.661 -0.0324 -0.6028  0.0057
45291W        W54091  24.313   2.714   7.605  0.0004 -0.1722 -0.0344
45292W        W54092  13.040   4.212   6.101  0.4112 -0.2234 -0.0959
45293W        W54093   5.990   4.673   0.003 -0.0401 -0.2077 -0.1001
45294W        W54094   1.323   2.818  24.463 -0.0215 -0.1591 -0.0778
45295W        W54095  14.077   2.387  20.514  0.1430  0.3052 -0.0994
45296W        W54096  18.368   7.258   8.066 -0.2298  0.1606  0.0130
45297W        W54097  30.429   5.121  14.571 -0.1196  0.1120  0.2085
45298W        W54098   3.829   2.633  18.803  0.1005  0.1362 -0.0914
45299W        W54099   7.089   3.332   5.941 -0.2304 -0.1832  0.3044
45300W        W54100  14.024   0.446   7.489  0.1822 -0.0309  0.0430
45301W        W54101  24.327   4.538   4.435 -0.0041  0.1078  0.1243
45302W        W54102   4.981   7.274  16.956  0.1992 -0.2019  0.0066
45303W        W54103  10.961   6.005  23.282 -0.0797 -0.0733 -0.1908
45304W        W54104  20.289   6.331   7.781  0.2966 -0.1596 -0.0721
45305W        W54105  12.242   3.296   7.772  0.1489 -0.0683 -0.0220
45306W        W54106   7.285   2.028  10.708 -0.2582  0.0433 -0.1481
45307W        W54107  21.713   5.205   0.229  0.1329 -0.0012  0.0325
45308W        W54108  24.901   5.493   4.499 -0.1662 -0.3461  0.1531
45309W        W54109  18.445   4.678  21.234 -0.0040 -0.1055 -0.1073
45310W        W54110   4.828   3.605   6.481 -0.0572 -0.0428 -0.0338
45311W        W54111  19.346   2.384  15.670 -0.0701  0.0902  0.2425
45312W        W54112   8.539   6.976   3.531 -0.4126 -0.1000 -0.1495
45313W        W54113   7.146   7.401  25.365  0.1071 -0.0828 -0.0545
45314W        W54114   1.029   1.739   3.287  0.0559  0.0936 -0.2157
45315W        W54115  24.944   7.041  21.718 -0.0357  0.0169 -0.1428
45316W        W54116  10.963   0.963  24.132 -0.1235 -0.1253  0.1533
45317W        W54117  11.586   4.468   9.959  0.1518 -0.0785 -0.2257
45318W        W54118  20.992   6.207  25.344  0.0523 -0.0389 -0.1674
45319W        W54119   0.964   6.911   4.195  0.1627 -0.1911  0.1644
45320W        W54120  17.133   4.230  24.807 -0.2643  0.3897  0.4117
45321W        W54121   1.044   6.571  19.442  0.4381 -0.0599  0.4474
45322W        W54122  10.780   1.364  25.669 -0.0710 -0.4829 -0.0559
45323W        W54123  23.934   3.070   6.251 -0.3445 -0.2723 -0.0412
45324W        W54124  21.307   4.115  21.224  0.0089 -0.0846  0.1600
45325W        W54125  22.821   5.249  19.848 -0.2591  0.1452 -0.0199
45326W        W54126  28.019   5.508  17.550  0.1416 -0.3164 -0.0944
45327W        W54127  11.659   7.128  22.418 -0.0531  0.0656 -0.2748
45328W        W54128  29.405   6.360   1.001 -0.1599 -0.2837 -0.3427
45329W        W54129  24.818   0.523   3.499  0.3203  0.2715  0.1106
45330W        W54130  24.599   2.635   4.186 -0.0166  0.0066 -0.0149
45331W        W54131  25.166   1.868   9.416 -0.0879  0.1658 -0.1195
45332W        W54132  22.698   5.737  23.545 -0.0932  0.0504  0.1663
45333W        W54133  17.800   7.475   3.578  0.0792 -0.2132 -0.0913
45334W        W54134  23.133   1.510   3.246 -0.2104 -0.2188 -0.0610
45335W        W54135  10.190   3.776   7.572  0.1250 -0.0334 -0.0738
45336W        W54136   2.795   5.647  18.630 -0.0042  0.2354 -0.2812
45337W        W54137  26.169   7.331   7.340 -0.0540 -0.0412 -0.0552
45338W        W54138  28.174   6.686   4.800 -0.0731 -0.0154 -0.1560
45339W        W54139  21.288   0.285  21.086 -0.5465  0.0536  0.1819
45340W        W54140  17.678   3.754  23.723 -0.1617  0.0052 -0.0960
45341W        W54141  12.457   3.341   3.893  0.0307  0.2339 -0.0878
45342W        W54142  27.603   5.530  16.206 -0.5880  0.1066 -0.1856
45343W        W54143   9.092   2.670   9.603  0.0792 -0.0400 -0.0567
45344W        W54144  23.819   0.207  16.218 -0.0333 -0.0802 -0.0079
45345W        W54145  25.171   5.696   8.401  0.2717  0.2693 -0.1283
45346W        W54146  21.517   2.736   3.472 -0.1461 -0.2301 -0.2304
45347W        W54147  11.897   7.355   2.659 -0.1849  0.0262  0.0464
45348W        W54148   2.810   7.486  21.839 -0.2288 -0.2769  0.3164
45349W        W54149  31.164   7.449   9.394  0.0346  0.2695  0.2367
45350W        W54150   2.940   1.390  19.948  0.2097 -0.1950  0.0077
45351W        W54151  18.539   4.029   8.124 -0.3150 -0.3466 -0.4050
45352W        W54152  21.147   3.437  10.894 -0.0088 -0.1797 -0.2016
45353W        W54153   5.240   1.315   8.534  0.0374  0.2695 -0.1881
45354W        W54154  14.173   7.551   8.618 -0.1042  0.0790 -0.3044
45355W        W54155   0.756   4.893   3.639  0.0699 -0.0762 -0.0178
45356W        W54156  24.617   2.993  25.844  0.2497 -0.2059 -0.0310
45357W        W54157  28.272   6.000  10.262  0.2031 -0.0056 -0.2679
45358W        W54158   1.527   0.076  22.856 -0.1814 -0.1556 -0.1148
45359W        W54159   2.039   2.318  15.525 -0.1593 -0.3512 -0.1354
45360W        W54160   7.305   2.408  16.858 -0.1474  0.0713 -0.1468
45361W        W54161  19.548   1.767  23.844  0.0047  0.2149 -0.0588
45362W        W54162  24.135   4.212  20.973  0.1836  0.3865 -0.1450
45363W        W54163   6.762   5.381  22.161 -0.1132 -0.2289 -0.1100
45364W        W54164   1.506   0.782  19.404  0.2836 -0.1980  0.2203
45365W        W54165   1.625   3.585   0.641  0.1780 -0.0289  0.0098
45366W        W54166   1.685   6.468   4.011  0.1645 -0.1498 -0.0947
45367W        W54167  15.714   6.932   1.238 -0.1158  0.2591  0.0136
45368W        W54168   6.256   5.931   9.342  0.3471  0.0838  0.3479
45369W        W54169  15.084   5.959  17.103 -0.1158  0.1950  0.0570
45370W        W54170  13.302   2.003   3.048  0.2672  0.2170  0.2041
45371W        W54171  22.792   2.151  25.729  0.0364  0.0455 -0.1421
45372W        W54172  30.482   5.428   0.719  0.2426 -0.2798 -0.1244
45373W        W54173   2.047   2.104  16.141  0.0369 -0.3028  0.0067
45374W        W54174   8.773   2.769  19.377  0.0150  0.0252  0.1910
45375W        W54175  11.883   2.955   8.771  0.2388  0.0521 -0.0401
45376W        W54176  18.249   2.444   0.759  0.0201 -0.0685  0.2280
45377W        W54177  25.789   4.088   6.254  0.1738  0.0267 -0.0752
45378W        W54178  15.920   0.718   1.649 -0.1626  0.0161  0.1091
45379W        W54179  28.521   3.972   7.433 -0.0504 -0.1124 -0.0266
45380W        W54180   5.210   6.277  15.142  0.1163 -0.1262  0.1305
45381W        W54181  26.281   1.192   3.856  0.2624 -0.1719 -0.0561
45382W        W54182  14.825   7.616  20.739 -0.0610 -0.0398  0.0982
45383W        W54183  26.101   0.034  18.109  0.2695 -0.0965 -0.0817
45384W        W54184  15.837   3.770  14.479  0.2527  0.1987 -0.1454
45385W        W54185  18.015   0.613  10.515 -0.0846 -0.2074  0.1181
45386W        W54186  16.896   7.182   4.319 -0.1583 -0.2487 -0.0437
45387W        W54187  13.322   6.853  17.537 -0.2389 -0.0092 -0.2211
45388W        W54188   5.118   1.347  20.379  0.3188 -0.0150  0.0489
45389W        W54189  24.346   0.426   1.887 -0.1277  0.1790 -0.1852
45390W        W54190  30.885   6.150  21.077 -0.2881  0.4036 -0.1954
45391W        W54191   2.278   4.789  18.739  0.2667 -0.0458 -0.0418
45392W        W54192  21.895   6.473   1.322  0.0629  0.0329  0.1123
45393W        W54193  30.124   1.770   7.083  0.0292  0.3242  0.2084
45394W        W54194  21.700   5.747   9.195 -0.4478  0.3347  0.0739
45395W        W54195  25.762   7.803  17.786  0.2683  0.0310 -0.1539
45396W        W54196  16.061   2.219   0.699  0.0944 -0.0841  0.0176
45397W        W54197  17.926   2.676  24.162 -0.1777  0.1934  0.0517
45398W        W54198   4.982   7.495  19.026 -0.0376  0.0679 -0.3673
45399W        W54199  24.727   2.502  18.908  0.2878  0.0294  0.1908
45400W        W54200   9.028   4.236  21.177 -0.1009 -0.3240  0.0986
45401W        W54201   0.433   3.483  10.484 -0.0963  0.2848 -0.1819
45402W        W54202  27.839   4.826   0.444 -0.0862 -0.1288  0.1349
45403W        W54203  15.976   5.247   8.848  0.0604 -0.0017  0.0068
45404W        W54204  29.199   5.713  25.609  0.0846  0.0466  0.0126
45405W        W54205   8.309   0.700   5.513 -0.2794  0.1383  0.0221
45406W        W54206  21.838   0.429  14.798 -0.3221 -0.1317  0.2807
45407W        W54207  24.285   2.957   6.622  0.0432 -0.0355 -0.1837
45408W        W54208  29.357   3.711  23.167  0.3725  0.2189 -0.1637
45409W        W54209   7.285   0.594  15.861  0.1087  0.0796  0.0805
45410W        W54210  23.327   7.309   9.061  0.1637 -0.0515  0.0342
45411W        W54211  25.588   1.410  21.277  0.0146 -0.1137 -0.0925
45412W        W54212  29.848   4.613  17.520  0.2865  0.2535  0.0456
45413W        W54213  23.849   3.886   9.949  0.0553 -0.0533 -0.2195
45414W        W54214   2.657   5.187  19.757  0.1124  0.1916 -0.0383
45415W        W54215   5.147   0.380  18.781  0.0305 -0.1621  0.2137
45416W        W54216   1.844   3.221   8.053  0.3275 -0.1937 -0.1328
45417W        W54217  18.204   6.904   6.171  0.0704 -0.1164 -0.2542
45418W        W54218   9.831   7.348  16.430 -0.0602  0.1454  0.1684
45419W        W54219  11.927   7.840   2.762 -0.0824 -0.0482  0.0340
45420W        W54220  27.952   6.283   2.295  0.1148 -0.1486  0.0865
45421W        W54221  14.261   2.328   2.965  0.3071 -0.1105  0.0462
45422W        W54222   9.210   3.878   7.538  0.2996 -0.0576  0.1580
45423W        W54223  24.912   1.306  16.939 -0.1294  0.6337 -0.3404
45424W        W54224  23.135   0.307  16.616  0.1752  0.0066  0.0050
45425W        W54225  14.944   3.128   9.695 -0.1131  0.2241 -0.1776
45426W        W54226   7.291   7.171  18.682 -0.0372 -0.3157 -0.2839
45427W        W54227  27.064   7.609  24.136  0.3842 -0.2314 -0.1066
45428W        W54228  18.718   6.312  22.765  0.0492 -0.0185  0.2228
45429W        W54229  23.639   0.295   5.448 -0.2184 -0.2086  0.4346
45430W        W54230   7.108   3.871  20.583 -0.0677 -0.0651  0.0121
45431W        W54231   2.434   3.658   7.446 -0.1452 -0.3684 -0.2046
45432W        W54232  14.171   0.233   2.339  0.0235 -0.3109 -0.0844
45433W        W54233   9.724   5.097   7.876 -0.0099 -0.0094  0.2099
45434W        W54234  25.345   3.918   9.701  0.1416 -0.1142  0.1750
45435W        W54235  17.167   3.395   2.309  0.4357  0.1198  0.1318
45436W        W54236  15.825   0.378  19.885  0.1891 -0.3135 -0.4364
45437W        W54237  15.380   0.308   5.492  0.1130  0.1684  0.0446
45438W        W54238  15.601   4.548  19.948 -0.1214 -0.1035  0.2437
45439W        W54239   1.140   1.225  21.953  0.0913 -0.1176 -0.0446
45440W        W54240  10.736   2.600  16.560 -0.2394 -0.0834  0.0688
45441W        W54241  15.440   5.124   6.953  0.1694  0.0911 -0.0380
45442W        W54242  18.734   5.608  21.474  0.2530  0.1089 -0.6037
45443W        W54243  20.777   3.075  18.732 -0.0482 -0.0995  0.1770
45444W        W54244  19.917   5.501  24.578  0.0727  0.1280 -0.2625
45445W        W54245  17.615   7.377  21.329 -0.3966  0.1622 -0.2292
45446W        W54246  21.436   3.979   5.799  0.0660 -0.1960  0.1640
45447W        W54247  28.391   7.550  25.434  0.1936  0.2825 -0.1285
45448W        W54248  18.449   5.743  23.234 -0.0534 -0.1050 -0.0105
45449W        W54249   2.166   6.561   1.466 -0.1624  0.0859 -0.2303
45450W        W54250  29.125   7.243  23.523 -0.0738  0.0456 -0.1134
45451W        W54251   4.283   3.135  16.636  0.1270 -0.0102 -0.1518
45452W        W54252   7.096   6.853   6.589 -0.0940 -0.0824 -0.1673
45453W        W54253  18.628   6.309   7.800 -0.1701 -0.0527  0.1462
45454W        W54254   0.293   2.021  20.848 -0.2861  0.2193 -0.1783
45455W        W54255  28.554   4.244  25.138  0.2829  0.3026 -0.0701
45456W        W54256   3.152   7.173   4.216  0.0457 -0.0780 -0.1144
45457W        W54257  19.727   4.946   2.990  0.3282  0.1997  0.4962
45458W        W54258   4.255   0.046   7.579 -0.2953 -0.1933 -0.0531
45459W        W54259  30.496   3.564  15.688  0.1433 -0.0833  0.0867
45460W        W54260  15.754   1.803  21.175 -0.1683 -0.0580 -0.1172
45461W        W54261  11.605   5.374   5.249 -0.4261  0.1985 -0.0353
45462W        W54262   8.433   3.285   0.876 -0.0711 -0.1381  0.0346
45463W        W54263  30.226   0.141  18.827 -0.1063 -0.0955  0.0459
45464W        W54264  21.580   0.567   3.923 -0.0957  0.3163 -0.1142
45465W        W54265  28.889   5.714  19.148 -0.2267  0.2010 -0.0581
45466W        W54266  15.573   5.848   0.698 -0.2876 -0.0509 -0.1550
45467W        W54267  19.350   3.862  25.111  0.3330  0.1056 -0.0531
45468W        W54268  17.778   6.689   7.454 -0.0487  0.4364 -0.0825
45469W        W54269  28.242   3.665  10.259  0.0255 -0.2481  0.0582
45470W        W54270   7.868   5.508  24.292 -0.0412 -0.1173 -0.1902
45471W        W54271  16.659   7.452  17.260 -0.1241 -0.1672  0.2039
45472W        W54272  16.032   1.427  23.660  0.0306 -0.1562 -0.0082
45473W        W54273  22.758   4.581  24.157 -0.0565 -0.0171  0.1319
45474W        W54274   2.332   5.255   8.027  0.1375  0.0605  0.0757
45475W        W54275  30.387   4.123   0.884 -0.2763  0.0523 -0.0832
45476W        W54276  18.264   3.380   6.866  0.1230  0.1665 -0.0943
45477W        W54277  28.101   5.068  17.240 -0.3507  0.1879 -0.0126
45478W        W54278  26.372   3.065   8.949 -0.2548 -0.2485  0.2228
45479W        W54279  10.432   3.950  24.601  0.1301 -0.0944 -0.0523
45480W        W54280   9.413   5.534   2.128  0.1638  0.3039  0.2239
45481W        W54281   3.890   5.456  25.272 -0.1959 -0.0882  0.1992
45482W        W54282  25.277   7.633  18.604 -0.1166  0.3166  0.0501
45483W        W54283  13.430   5.605   0.034  0.1445  0.1311  0.0358
45484W        W54284  11.135   5.271  21.574  0.3433 -0.2103  0.1378
45485W        W54285  20.736   2.553   7.080  0.2527  0.0864 -0.0641
45486W        W54286  27.933   6.054  18.768 -0.2851  0.2685 -0.1302
45487W        W54287   3.574   0.264   4.409  0.0176 -0.2021 -0.0301
45488W        W54288   1.423   6.757  20.321 -0.1392 -0.0206  0.0488
45489W        W54289  11.184   1.063   4.563 -0.1573  0.1787  0.1845
45490W        W54290  15.752   7.022   1.745  0.2124  0.1491  0.0229
45491W        W54291   5.505   0.356  21.856  0.0228 -0.1073 -0.0948
45492W        W54292   0.489   2.224  19.165  0.1699 -0.0741 -0.0330
45493W        W54293   1.446   7.264  14.806  0.0197 -0.2635 -0.1953
45494W        W54294   6.268   7.471   8.465  0.3363 -0.0642 -0.1406
45495W        W54295  15.108   4.792   8.504 -0.0382 -0.2871 -0.0508
45496W        W54296  21.287   6.914   0.880  0.0962  0.0654  0.2094
45497W        W54297  14.250   6.510   7.568 -0.3216  0.0386  0.2468
45498W        W54298  27.180   4.430  17.653 -0.1912 -0.1765  0.0482
45499W        W54299   0.197   7.578   3.619  0.0058  0.0600  0.0567
45500W        W54300  15.512   2.219   0.078  0.3055  0.1994 -0.2577
45501W        W54301  31.269   6.975  23.860  0.0701  0.2178  0.0006
45502W        W54302  24.436   0.114  15.867  0.2612  0.0170 -0.0980
45503W        W54303   0.786   1.227  23.578  0.0353 -0.0533 -0.0986
45504W        W54304  18.505   3.385  22.637  0.0795  0.0229 -0.1810
45505W        W54305   6.610   2.480   1.270  0.3108 -0.3942  0.1251
45506W        W54306  30.392   4.279  18.175 -0.0874 -0.1165 -0.1287
45507W        W54307  25.868   5.686  10.450  0.0166 -0.2722 -0.2044
45508W        W54308  16.760   0.022   4.724 -0.1590  0.2970  0.0587
45509W        W54309   1.433   1.766  22.299  0.0563  0.1013  0.0917
45510W        W54310   3.267   5.900  22.036 -0.3014 -0.1427 -0.0505
45511W        W54311  26.062   4.281  16.137  0.1534 -0.2844 -0.3259
45512W        W54312  30.018   0.079   9.121 -0.0773  0.1144 -0.1085
45513W        W54313   6.224   2.054  22.891 -0.1909  0.2214  0.0395
45514W        W54314   1.113   7.223  21.102  0.1591 -0.0784  0.0794
45515W        W54315  14.913   6.238  10.184  0.5552  0.3761 -0.0720
45516W        W54316  14.165   4.756   4.718 -0.2459 -0.3284  0.1575
45517W        W54317  26.447   5.797  23.208  0.0041  0.0952 -0.0651
45518W        W54318   0.986   0.121   8.522  0.3360  0.2114 -0.4422
45519W        W54319  13.754   5.165   2.738 -0.2156 -0.1019  0.3433
45520W        W54320  27.681   2.337  15.924 -0.0374 -0.2034 -0.0872
45521W        W54321  13.324   2.404   8.463 -0.0743 -0.2980 -0.0690
45522W        W54322  30.504   3.437   8.938 -0.0279  0.3204 -0.0138
45523W        W54323  28.402   1.431  20.193  0.0668 -0.2442 -0.0016
45524W        W54324  22.224   3.428   2.173 -0.1902 -0.1337  0.0839
45525W        W54325   8.101   4.966   0.230  0.3836  0.1649 -0.1431
45526W        W54326  23.827   4.116   9.081 -0.2039  0.1793 -0.0187
45527W        W54327  11.372   3.630   0.127  0.2360  0.0175  0.1568
45528W        W54328  19.891   6.724   4.949 -0.2401  0.1043  0.0959
45529W        W54329  18.337   5.298  24.459  0.0595  0.0559  0.0683
45530W        W54330   5.175   5.427  23.733 -0.0724  0.0406  0.1064
45531W        W54331   4.279   0.186  23.466  0.0698  0.0814  0.2984
45532W        W54332  19.032   4.480  23.407 -0.0590  0.1257  0.1616
45533W        W54333   5.134   0.999  10.275  0.0322 -0.0174 -0.0147
45534W        W54334   6.331   5.147  24.634  0.1086  0.0453 -0.0343
45535W        W54335  27.649   4.463  20.477 -0.0408 -0.1267  0.1996
45536W        W54336   0.509   2.294  18.029  0.0965  0.1123  0.0683
45537W        W54337  10.800   4.013   3.720  0.0723 -0.0966 -0.1006
45538W        W54338  15.056   5.253  19.613  0.1648  0.3116 -0.1864
45539W        W54339  20.953   6.169  18.144  0.0292  0.0889 -0.0083
45540W        W54340  23.206   6.258   7.202 -0.2501  0.0505 -0.0709
45541W        W54341  14.632   0.237   2.141 -0.0677 -0.1170  0.2198
45542W        W54342   6.329   3.428  21.937 -0.2857 -0.1894  0.2876
45543W        W54343   2.489   1.379  25.487  0.0744 -0.1353  0.2485
45544W        W54344  25.815   6.278  19.870 -0.0009 -0.2647  0.0285
45545W        W54345   7.840   7.601  10.243  0.0375  0.3621  0.1913
45546W        W54346  15.987   0.897   5.717 -0.2402  0.1144  0.2601
45547W        W54347  24.184   0.020   3.625  0.1818 -0.0836 -0.3816
45548W        W54348   0.634   5.471  20.945 -0.1409  0.0112 -0.2246
45549W        W54349  29.940   7.046   6.426  0.0322  0.1574  0.0301
45550W        W54350   4.681   3.907   0.700 -0.0919  0.2877 -0.0190
45551W        W54351  26.593   7.603  22.232 -0.2274 -0.2669  0.1219
45552W        W54352  29.789   2.094  15.182  0.0491 -0.0470  0.1117
45553W        W54353  17.854   7.573  10.274  0.1135  0.1423 -0.1605
45554W        W54354  28.546   4.068  10.235  0.1214  0.0950 -0.0093
45555W        W54355  19.331   5.586  20.683  0.0451 -0.1683 -0.4560
45556W        W54356  12.414   5.102   4.846  0.0621  0.0068 -0.1449
45557W        W54357   0.165   6.937  15.793 -0.1519  0.1217  0.2243
45558W        W54358  24.508   3.560  24.878  0.1137  0.1486 -0.1845
45559W        W54359   8.602   2.588  18.577  0.1391 -0.1770  0.0255
45560W        W54360  28.788   4.988   7.984  0.0446 -0.1080 -0.1659
45561W        W54361   3.504   5.264  24.844 -0.1642  0.0861 -0.0930
45562W        W54362   9.545   5.437  22.131  0.1255 -0.0609  0.1494
45563W        W54363  11.262   4.133   3.876  0.0372  0.2317  0.0364
45564W        W54364  21.280   3.812  22.130  0.0559 -0.2188  0.1697
45565W        W54365  22.187   1.785   2.162 -0.0250 -0.3517 -0.2856
45566W        W54366   1.616   3.541  17.189  0.5029  0.1210 -0.2585
45567W        W54367  18.187   6.534   7.891 -0.0202  0.1758  0.4192
45568W        W54368   4.314   0.581   0.192  0.2785 -0.0212 -0.1245
45569W        W54369   2.220   1.522   6.079 -0.3843 -0.2660 -0.2644
45570W        W54370  27.841   4.496   9.209  0.1064 -0.0272  0.1910
45571W        W54371   1.694   2.943  21.370  0.0690 -0.3126  0.1247
45572W        W54372  28.493   5.211  21.942 -0.0208 -0.1744 -0.0300
45573W        W54373  25.704   2.503   6.756 -0.0887  0.0852  0.1547
45574W        W54374  24.122   1.241   7.267  0.1395  0.4268  0.1712
45575W        W54375  11.687   3.958   6.297  0.1524  0.0558  0.1457
45576W        W54376  23.154   5.087  15.683  0.1435  0.0042  0.2283
45577W        W54377  24.138   0.111  17.831 -0.1497  0.0557  0.0063
45578W        W54378   4.026   3.126   3.601 -0.1760  0.1426  0.0548
45579W        W54379  27.523   0.470  18.235  0.0374 -0.0664  0.1948
45580W        W54380   0.260   7.091   1.561 -0.3017  0.2284  0.0272
45581W        W54381  20.444   7.564   1.246 -0.0934  0.0741  0.1106
45582W        W54382  23.227   3.162   3.260 -0.3409  0.0324 -0.0116
45583W        W54383  30.190   5.470  16.461 -0.1804 -0.2688 -0.2439
45584W        W54384   2.969   5.446   8.781 -0.0265 -0.1317 -0.2309
45585W        W54385  14.256   1.708   3.853  0.1906  0.0284 -0.0076
45586W        W54386   5.718   3.486  17.086  0.1489  0.2845  0.0798
45587W        W54387  14.614   1.467  16.903 -0.0256  0.0023 -0.0515
45588W        W54388  24.472   5.699  25.827 -0.1355  0.0662  0.2606
45589W        W54389   1.200   7.570   8.390 -0.1439  0.2529 -0.0794
45590W        W54390  19.508   6.330   9.272 -0.0333 -0.1915  0.2890
45591W        W54391  21.200   1.281   7.185  0.2078 -0.0544 -0.2706
45592W        W54392  11.402   0.321   5.656 -0.1710 -0.1997 -0.3094
45593W        W54393  17.291   5.632   5.944  0.0248  0.0442 -0.3226
45594W        W54394   1.059   0.218  17.175 -0.3157  0.2520 -0.1970
45595W        W54395  13.523   4.569   5.126  0.1393 -0.0607  0.2634
45596W        W54396  27.837   0.059   2.804  0.0102 -0.0191  0.0573
45597W        W54397   3.847   2.163   0.015  0.0011 -0.0654 -0.1109
45598W        W54398  28.657   7.607  23.694 -0.1799 -0.0660 -0.1163
45599W        W54399  27.311   0.974   8.651  0.3005  0.0444 -0.3477
45600W        W54400  15.587   1.287   8.707 -0.0112  0.0162  0.0966
45601W        W54401  15.009   4.215  24.012 -0.2876 -0.1801 -0.0854
45602W        W54402   4.477   4.671  15.722  0.4407  0.1380 -0.2984
45603W        W54403  19.495   3.088  10.199 -0.0073 -0.2306  0.0348
45604W        W54404  28.035   4.205  25.102 -0.2956 -0.1076  0.1400
45605W        W54405  22.109   2.767   7.349 -0.2607  0.0632 -0.2826
45606W        W54406  31.266   7.630   2.509  0.0299 -0.1838  0.3368
45607W        W54407  15.524   3.564   8.676 -0.2900 -0.2542  0.0917
45608W        W54408   4.782   2.165  23.890  0.0619  0.1252  0.0372
45609W        W54409  22.297   0.007  19.817 -0.1673  0.1760  0.1867
45610W        W54410  14.748   1.780  16.077 -0.2688  0.2024 -0.3674
45611W        W54411  23.910   3.361   8.019 -0.0256 -0.1528  0.0693
45612W        W54412  13.419   3.755   6.619 -0.0086  0.0684 -0.1744
45613W        W54413  20.187   3.339  24.653  0.0339 -0.2657  0.0434
45614W        W54414   5.692   7.535   2.744 -0.0358 -0.3098 -0.0895
45615W        W54415   8.556   4.000   1.464  0.0580 -0.2381 -0.2895
45616W        W54416   0.536   2.851  17.177  0.0957  0.2622 -0.0107
45617W        W54417  25.952   5.646   9.975 -0.2001  0.1679 -0.3085
45618W        W54418   7.503   6.439   2.025 -0.2566 -0.2536  0.2176
45619W        W54419  11.317   4.806   1.244 -0.2638 -0.0210 -0.3201
45620W        W54420  19.047   5.605   9.428 -0.2290 -0.0698  0.3518
45621W        W54421  11.930   6.379  14.876 -0.0085  0.0363 -0.1406
45622W        W54422  21.940   0.847   0.582  0.3677 -0.3202  0.0497
45623W        W54423  20.126   3.842   9.654  0.0469 -0.2019  0.0351
45624W        W54424  28.266   2.317   7.076  0.2594 -0.0819  0.1401
45625W        W54425  15.374   4.630  21.251  0.0993 -0.1825 -0.1682
45626W        W54426  27.065   2.073  24.798 -0.3908  0.0719 -0.0931
45627W        W54427  26.426   5.674   2.693 -0.0564  0.1111 -0.0231
45628W        W54428  14.479   4.266   8.896 -0.3045  0.3105  0.0551
45629W        W54429   6.940   7.432  19.681 -0.1143 -0.0735 -0.1452
45630W        W54430   6.836   6.520   3.853  0.1039  0.2206 -0.1971
45631W        W54431  20.423   0.098  10.068  0.0464 -0.0689  0.1622
45632W        W54432   1.366   2.543   4.228  0.2703  0.0731  0.1254
45633W        W54433  13.710   3.546  18.312  0.0218 -0.2068  0.1065
45634W        W54434  17.738   1.504  18.377  0.0148  0.2259  0.2035
45635W        W54435  18.951   5.693  21.034 -0.1928  0.0318  0.0987
45636W        W54436  10.177   6.557   5.238 -0.2581 -0.1937 -0.0996
45637W        W54437  25.506   1.567   8.995  0.2088  0.0515 -0.0534
45638W        W54438   6.273   0.756   1.674  0.0405  0.0966  0.0962
45639W        W54439   2.431   7.423  18.834  0.4553 -0.1535  0.1458
45640W        W54440   8.200   7.600   4.494  0.3127  0.0180  0.3116
45641W        W54441  28.249   1.970   2.336 -0.1055  0.1909 -0.2675
45642W        W54442  18.439   7.778   9.845  0.1000 -0.0794 -0.1137
45643W        W54443  10.438   3.464  18.146  0.0383  0.1848  0.0657
45644W        W54444  23.703   3.343  25.737 -0.0298 -0.3581  0.0510
45645W        W54445  14.026   0.649   5.390  0.0715 -0.2461  0.0637
45646W        W54446  23.557   7.583   0.510 -0.1814  0.0520 -0.3148
45647W        W54447  19.517   1.610  20.178  0.0550  0.1251 -0.1611
45648W        W54448  12.236   3.205   6.569 -0.0905  0.2913  0.0242
45649W        W54449  26.148   5.130  23.379  0.1564 -0.2668 -0.0931
45650W        W54450  18.004   7.454   8.476 -0.0176  0.0207 -0.1994
45651W        W54451  28.052   3.853   5.688 -0.1684 -0.2223 -0.4083
45652W        W54452   4.522   2.600   8.534  0.0911 -0.1647 -0.1884
45653W        W54453  21.389   6.028   4.897 -0.0810 -0.2340  0.1168
45654W        W54454  24.549   3.489   5.116 -0.3450 -0.1148 -0.0487
45655W        W54455   6.177   1.637   7.407  0.0252  0.0880  0.2318
45656W        W54456   8.332   2.562  19.539 -0.3644  0.1621 -0.1063
45657W        W54457  30.131   1.922  22.903  0.1650  0.0149 -0.0426
45658W        W54458  13.128   7.163   4.141  0.1800 -0.0613  0.2645
45659W        W54459   6.808   1.399  22.940  0.3559  0.1466 -0.0686
45660W        W54460  25.569   1.042   8.465  0.2898  0.1554  0.2396
45661W        W54461   5.387   7.627   1.486  0.2427 -0.0909 -0.1132
45662W        W54462   1.737   0.718  17.469  0.0838 -0.2398 -0.2914
45663W        W54463  22.498   6.855   3.449  0.1198 -0.0271  0.1479
45664W        W54464  26.597   3.413   7.088 -0.1511 -0.0413 -0.2080
45665W        W54465  22.788   2.760  14.913  0.2598 -0.3097 -0.1948
45666W        W54466  13.472   5.197  18.583  0.1755  0.0391  0.2532
45667W        W54467   4.689   6.525   5.960  0.3018 -0.1567  0.1956
45668W        W54468  19.398   6.642   3.441  0.3448  0.2713 -0.1529
45669W        W54469  25.915   3.203  23.091 -0.2663 -0.2190  0.2704
45670W        W54470  25.535   0.903  21.326 -0.1753 -0.0727 -0.0975
45671W        W54471   6.099   0.605   9.524  0.3273 -0.2497  0.0813
45672W        W54472   0.794   4.753  23.231  0.0632 -0.0684  0.2316
45673W        W54473  23.093   4.871   8.286  0.0277 -0.3614  0.0049
45674W        W54474   6.424   1.974   5.020  0.3573 -0.2759  0.0182
45675W        W54475  13.976   2.717   2.684  0.5304  0.2878  0.1507
45676W        W54476   8.784   0.564  25.790 -0.1433  0.2431 -0.0978
45677W        W54477   2.522   1.992   9.625 -0.1338  0.1200  0.1644
45678W        W54478  17.151   2.967  24.124  0.2133 -0.0553  0.1706
45679W        W54479   0.902   4.044   9.649 -0.2918  0.2985  0.4175
45680W        W54480  20.171   6.430  19.125 -0.1218 -0.1220 -0.1500
45681W        W54481  30.143   5.026   2.705  0.1176 -0.2348  0.1714
45682W        W54482   6.977   2.082   4.740  0.0333  0.0211 -0.1187
45683W        W54483  14.395   2.942  25.825 -0.3022 -0.1482 -0.4382
45684W        W54484  28.816   4.129   5.102 -0.0528 -0.0638  0.1693
45685W        W54485  22.160   0.109   5.166  0.2605 -0.0133  0.1388
45686W        W54486  15.005   3.198   3.812  0.1276 -0.1379 -0.0213
45687W        W54487  23.739   2.677  16.053 -0.0379  0.2842 -0.1540
45688W        W54488   9.975   7.789  21.178  0.1342  0.0057 -0.0446
45689W        W54489   0.042   2.609  16.645  0.1262 -0.0142 -0.1094
45690W        W54490   9.127   5.576  17.049  0.3834  0.0003  0.2031
45691W        W54491   0.216   7.599   6.105 -0.1800  0.0789 -0.1257
45692W        W54492  16.071   6.459  21.523  0.1827  0.1290  0.0134
45693W        W54493   1.963   1.936  17.217  0.4811 -0.1868  0.2723
45694W        W54494   9.521   4.523   4.745  0.1540  0.2968 -0.1625
45695W        W54495  18.710   6.516  16.159 -0.1791  0.1228 -0.2251
45696W        W54496  22.893   1.130  19.128 -0.1689  0.1579  0.0097
45697W        W54497   1.441   5.761  16.591  0.1753  0.0886 -0.1122
45698W        W54498  10.977   3.864   3.323  0.2124  0.0497 -0.0824
45699W        W54499   9.965   7.149   1.804  0.1575  0.0891  0.0481
45700W        W54500  26.028   6.186   5.602 -0.0655  0.1124 -0.0253
45701W        W54501   2.408   3.355  25.523 -0.1754  0.5707 -0.0870
45702W        W54502  30.974   1.402   0.130  0.1957 -0.0476  0.0909
45703W        W54503  12.836   0.167  16.899 -0.2066 -0.1763  0.0447
45704W        W54504  10.787   4.482   4.634 -0.2955  0.2054  0.0118
45705W        W54505  17.873   3.648  11.060  0.0150 -0.2779 -0.1635
45706W        W54506   6.878   0.666  23.509  0.0572  0.0811 -0.0277
45707W        W54507  15.373   1.849  16.786  0.1348  0.0959 -0.2507
45708W        W54508  31.417   2.516  19.484 -0.0681  0.0447  0.0179
45709W        W54509  24.369   1.108  17.078  0.0616  0.1568  0.1336
45710W        W54510   3.620   2.940   9.047 -0.1215  0.1071 -0.3486
45711W        W54511   0.901   3.706   6.029  0.3429  0.2853  0.1045
45712W        W54512   2.324   2.036  19.275 -0.2222  0.2323 -0.3669
45713W        W54513  22.488   0.262   5.563 -0.1923  0.0583  0.0233
45714W        W54514   2.754   1.997   8.560  0.2297 -0.0818  0.0146
45715W        W54515  10.343   6.635  16.952 -0.0541  0.4090  0.0057
45716W        W54516  30.403   1.613  21.911  0.1563  0.2172  0.0327
45717W        W54517   3.394   3.213   4.158  0.0581  0.0699  0.0339
45718W        W54518  16.846   1.255   3.427 -0.1825 -0.1786  0.0985
45719W        W54519  26.489   3.795  22.930 -0.3215 -0.3794 -0.1763
45720W        W54520  23.418   0.968  21.843  0.1940 -0.2174 -0.2831
45721W        W54521  20.216   6.320   9.577  0.0698 -0.1548 -0.0468
45722W        W54522  30.329   0.929  16.413  0.0878 -0.2023  0.0790
45723W        W54523  10.326   4.076   7.142  0.1169 -0.0462  0.2363
45724W        W54524   3.623   7.300   2.826 -0.2623  0.1867  0.3010
45725W        W54525  15.635   5.556  24.579 -0.2244 -0.0031 -0.1379
45726W        W54526   1.384   6.386  23.752 -0.0107 -0.3214 -0.0054
45727W        W54527  29.752   6.912  18.216  0.1149  0.4149 -0.0417
45728W        W54528  13.739   4.524   9.881 -0.1063  0.1296 -0.2928
45729W        W54529  18.958   6.049   9.957 -0.0772  0.0458  0.1922
45730W        W54530  22.676   4.132   1.749  0.1631  0.2829 -0.1934
45731W        W54531  28.384   3.055   5.978  0.1235 -0.1258 -0.0149
45732W        W54532  10.238   2.448   7.232 -0.0822  0.0966 -0.0880
45733W        W54533  24.463   0.612   0.720 -0.0436  0.3894  0.0384
45734W        W54534  19.072   4.040  25.461 -0.0510  0.1902 -0.0872
45735W        W54535  18.366   2.599   3.199 -0.1314 -0.1239 -0.0945
45736W        W54536  15.483   7.055  22.504 -0.0033  0.1150 -0.0102
45737W        W54537  19.682   2.042  20.366  0.2051  0.0042  0.1367
45738W        W54538  11.535   1.384   5.369  0.0346  0.0159 -0.0176
45739W        W54539   5.108   0.819  22.659  0.0656  0.3320  0.1081
45740W        W54540   7.450   0.255  25.880  0.1561  0.0592  0.0825
45741W        W54541  17.619   2.244  20.807 -0.1428 -0.2239 -0.4458
45742W        W54542  25.868   4.428  22.916 -0.0617 -0.3578 -0.1911
45743W        W54543  19.236   4.310  18.533 -0.1408  0.3385 -0.1492
45744W        W54544   6.405   3.779  24.910 -0.0412  0.1360  0.1683
45745W        W54545   9.551   0.457  19.007  0.2545 -0.0952 -0.1755
45746W        W54546  31.097   3.871   8.387  0.0567  0.1348 -0.1015
45747W        W54547   7.480   3.555  19.682 -0.0558 -0.2179 -0.1707
45748W        W54548  19.091   6.592   7.609 -0.1220  0.0493  0.1022
45749W        W54549   4.079   4.741   4.883 -0.1845 -0.0781 -0.1290
45750W        W54550   7.240   6.080   2.365 -0.3223  0.0664 -0.2701
45751W        W54551  24.748   6.268  20.989  0.0416  0.1330 -0.1158
45752W        W54552   2.532   0.459   9.882  0.0767  0.0578  0.2183
45753W        W54553  23.239   4.334   2.652 -0.1045 -0.0116 -0.0710
45754W        W54554  20.511   3.775   1.877  0.2849 -0.0330  0.0234
45755W        W54555  18.884   6.664  15.687  0.0380 -0.0558 -0.1624
45756W        W54556   0.808   1.929   4.937  0.3752 -0.2489  0.0617
45757W        W54557   4.165   5.957   8.740 -0.2726 -0.2537 -0.0551
45758W        W54558  17.260   1.143   1.624 -0.0604  0.1225  0.0023
45759W        W54559  15.959   5.806  11.113  0.1280 -0.3088 -0.2165
45760W        W54560   6.023   5.313   0.385 -0.2309 -0.0118  0.0014
45761W        W54561  30.638   5.664  20.810 -0.0247  0.0238  0.1429
45762W        W54562  12.857   4.551  20.009 -0.2926  0.0426 -0.1153
45763W        W54563  21.303   7.476   6.289  0.1663  0.0730  0.2085
45764W        W54564  14.289   1.794   2.961 -0.0230  0.2228 -0.0007
45765W        W54565   4.442   4.344   8.200  0.0788  0.1262  0.2014
45766W        W54566   6.563   2.791   5.113 -0.2991 -0.1700 -0.1682
45767W        W54567   5.563   1.953   1.968 -0.0046  0.1448  0.2138
45768W        W54568  22.892   6.987  17.575 -0.0348  0.2735 -0.0685
45769W        W54569   4.755   0.232   7.579 -0.0999 -0.1374 -0.3515
45770W        W54570  31.224   6.906  10.008  0.1326 -0.0402  0.1202
45771W        W54571  28.764   2.529   5.215  0.0324  0.0942  0.2192
45772W        W54572   1.215   2.397  17.615 -0.2104 -0.1822 -0.3182
45773W        W54573  27.105   0.012   3.437 -0.1590  0.2539  0.1101
45774W        W54574   8.826   0.871   3.485 -0.1117  0.0861  0.0205
45775W        W54575   7.570   3.791  15.987  0.1304  0.1483 -0.2095
45776W        W54576   1.684   5.852  20.783 -0.3121 -0.1517 -0.0280
45777W        W54577   6.988   2.032   3.513 -0.0954 -0.0302  0.1936
45778W        W54578  15.942   0.678  25.276 -0.5413 -0.3332 -0.0295
45779W        W54579  10.342   1.696   8.583  0.1311  0.1170 -0.2132
45780W        W54580  25.206   6.125  17.143  0.1448 -0.0299 -0.1968
45781W        W54581   2.634   0.197  22.216  0.1672 -0.0113  0.2294
45782W        W54582  25.524   3.845  25.056  0.0691 -0.2194  0.1049
45783W        W54583  11.070   1.467  15.725 -0.0554  0.2248 -0.0942
45784W        W54584  17.145   3.022  10.942 -0.0049 -0.1232 -0.2750
45785W        W54585   1.390   1.614  18.903  0.0853  0.0618  0.0465
45786W        W54586  27.591   1.789  16.346 -0.2900 -0.3486 -0.1158
45787W        W54587  16.082   0.197  25.175  0.1233 -0.0826  0.2903
45788W        W54588  27.347   6.372   8.951  0.1517 -0.1213 -0.0461
45789W        W54589  28.153   2.710  17.297  0.0424 -0.3006 -0.0968
45790W        W54590  11.086   3.042   7.036 -0.0964 -0.0696  0.0619
45791W        W54591   0.097   7.294  14.686 -0.0816  0.0866  0.1195
45792W        W54592   4.232   6.918  24.324  0.1391  0.0260  0.2110
45793W        W54593  13.088   3.298  20.597  0.1466  0.0802 -0.2835
45794W        W54594  28.344   6.973  23.865 -0.0709 -0.2305  0.0578
45795W        W54595  18.504   1.224   1.473 -0.0379  0.0503 -0.0580
45796W        W54596   7.604   5.030   1.189  0.2939 -0.0173  0.0091
45797W        W54597  13.131   0.585   2.817  0.0532  0.3580  0.1282
45798W        W54598  21.880   5.848  22.262 -0.0254 -0.1620  0.0229
45799W        W54599  28.674   3.864  26.002 -0.0686  0.0356 -0.1820
45800W        W54600   9.490   5.054   6.961 -0.0678 -0.3376  0.1769
45801W        W54601  15.093   2.136  22.678  0.2058 -0.3396 -0.1553
45802W        W54602   5.146   5.831  21.675 -0.3086  0.0082  0.1670
45803W        W54603  17.807   0.628   4.243  0.1887  0.0754  0.2714
45804W        W54604  25.172   6.674  23.598 -0.0594  0.0160  0.0524
45805W        W54605  28.971   4.111  23.351 -0.2842  0.1570 -0.0300
45806W        W54606  21.274   3.659   9.330 -0.1477  0.2191  0.0240
45807W        W54607  29.884   0.245  25.211 -0.0889 -0.1103 -0.1305
45808W        W54608  26.861   1.174   9.304 -0.1059  0.1658  0.3758
45809W        W54609  27.603   6.029   9.255 -0.1886  0.0196 -0.1908
45810W        W54610  18.416   3.291   4.637  0.0343 -0.0663  0.0752
45811W        W54611  26.797   1.463   0.399 -0.1155  0.1638  0.1734
45812W        W54612   8.633   4.681   3.680 -0.1195 -0.2489  0.3585
45813W        W54613  26.497   6.817   0.893 -0.1353 -0.0713 -0.2011
45814W        W54614   9.836   6.558  24.497 -0.1246 -0.2067  0.2967
45815W        W54615  17.901   3.000  16.691 -0.4837 -0.1540  0.0844
45816W        W54616  10.369   6.625   3.744 -0.2317  0.1066 -0.0392
45817W        W54617   9.062   1.884  19.743  0.0897 -0.1432  0.1644
45818W        W54618  10.637   5.642  23.224 -0.0870  0.1302  0.3258
45819W        W54619   8.713   7.330  15.698  0.1891 -0.0984 -0.0841
45820W        W54620   3.528   6.611  15.141 -0.0326 -0.1236 -0.1710
45821W        W54621  19.715   5.717   7.794 -0.2006  0.0952 -0.1564
45822W        W54622   9.689   3.175   8.273 -0.0851 -0.0803 -0.1378
45823W        W54623  20.463   3.019  15.442  0.1589 -0.1480 -0.0435
45824W        W54624  19.671   6.058  25.525  0.0484 -0.2676  0.0495
45825W        W54625   1.891   4.221   9.469  0.2368 -0.0198 -0.0516
45826W        W54626  19.729   6.644  24.709 -0.1571  0.3220  0.2143
45827W        W54627  21.091   0.541   2.811  0.1379 -0.0171 -0.1103
45828W        W54628   7.206   6.416  24.826 -0.1657  0.1470 -0.1645
45829W        W54629  17.144   1.949   5.055  0.1123  0.1857  0.2681
45830W        W54630  17.060   4.409  20.690 -0.0694  0.2672  0.3851
45831W        W54631  22.846   7.779   1.585 -0.0217  0.2058  0.0110
45832W        W54632  26.402   7.096  18.574 -0.1479  0.0989 -0.2277
45833W        W54633  29.712   3.679   4.676 -0.0032  0.0282  0.3239
45834W        W54634  19.842   1.200   3.441  0.0923 -0.1679  0.0256
45835W        W54635   4.549   1.276   3.926 -0.3443 -0.0150 -0.3908
45836W        W54636  17.375   7.178   1.818  0.1647 -0.0884  0.1985
45837W        W54637  25.799   5.351   8.457 -0.1136 -0.1158  0.1692
45838W        W54638  27.307   2.997  10.436  0.1244 -0.2649 -0.2731
45839W        W54639  15.969   2.475   6.449 -0.1731  0.3494 -0.1012
45840W        W54640  21.408   3.716  20.758 -0.0146 -0.0197  0.1214
45841W        W54641   4.187   6.558   1.850 -0.1023  0.0822  0.1300
45842W        W54642  25.664   7.677  22.813 -0.0075 -0.2031 -0.1472
45843W        W54643  30.630   2.175   5.156 -0.4487 -0.0508 -0.2587
45844W        W54644  12.322   4.996  18.226 -0.5775 -0.0303  0.1212
45845W        W54645   6.215   6.496   0.882 -0.4482 -0.0396 -0.2955
45846W        W54646  22.786   7.532   9.908  0.1270 -0.0878  0.0587
45847W        W54647  10.173   7.339  23.806  0.0091 -0.1941  0.1655
45848W        W54648   1.716   7.705   7.682  0.1974 -0.0966  0.0756
45849W        W54649  11.411   1.707   8.538  0.1450  0.2581  0.1914
45850W        W54650  17.521   4.489   8.145  0.2320  0.1621  0.1198
45851W        W54651   0.045   7.704  15.202  0.1278 -0.1738 -0.0354
45852W        W54652  21.284   1.515   2.893  0.0981 -0.0077  0.1604
45853W        W54653   4.043   0.347  24.980  0.0807 -0.0894  0.2195
45854W        W54654   2.697   4.555  18.508 -0.1777 -0.2554 -0.0053
45855W        W54655  22.337   5.006  20.021  0.1952  0.0752 -0.2974
45856W        W54656  15.156   4.013  19.103  0.1204 -0.0216  0.2243
45857W        W54657  26.361   1.395   7.837  0.1310  0.1739  0.1383
45858W        W54658  18.362   6.260  25.520  0.2657 -0.1409 -0.0008
45859W        W54659  13.013   2.109  11.130  0.2028 -0.1564 -0.1433
45860W        W54660  13.709   4.723   1.359  0.1746 -0.1645 -0.0932
45861W        W54661  25.267   7.762   3.838 -0.2706 -0.1274  0.0659
45862W        W54662   2.236   5.454  14.034  0.0208 -0.3865  0.0485
45863W        W54663  26.899   0.006   5.170 -0.0036  0.0132 -0.2723
45864W        W54664  26.559   7.480  10.372 -0.2651 -0.1074 -0.1112
45865W        W54665  23.627   3.111  23.224  0.1342 -0.2119  0.0168
45866W        W54666  14.173   5.312   4.871  0.1000  0.1789  0.0221
45867W        W54667  15.275   5.036   5.941 -0.1190  0.1089  0.0273
45868W        W54668  13.112   6.245   6.550  0.0453  0.1315 -0.1086
45869W        W54669  26.027   1.110  23.153 -0.0501 -0.1358  0.0553
45870W        W54670  11.322   6.388   5.994  0.2444  0.3387 -0.1353
45871W        W54671  31.361   4.386  24.903  0.1826 -0.1937  0.1568
45872W        W54672  31.314   7.429   8.474 -0.0958 -0.0613  0.1994
45873W        W54673   1.270   3.440  15.377  0.1572  0.1007  0.1022
45874W        W54674  18.856   5.806  17.393  0.3552  0.2521 -0.2396
45875W        W54675   3.242   1.690   3.730  0.0556  0.0703 -0.3344
45876W        W54676  24.329   5.574  22.005  0.2038  0.1560  0.1719
45877W        W54677  30.640   7.530   7.945 -0.0176  0.2636 -0.3269
45878W        W54678  21.074   4.059  18.787 -0.0402 -0.2243 -0.0002
45879W        W54679   2.091   0.856  16.826  0.1139 -0.0758 -0.3723
45880W        W54680  14.692   2.815   5.989 -0.0737 -0.0472  0.0590
45881W        W54681  25.417   3.802   7.572 -0.2481  0.2612 -0.1872
45882W        W54682  12.232   6.828   9.027 -0.1338  0.2126  0.0048
45883W        W54683  12.181   5.438  20.161 -0.1535  0.3804 -0.1051
45884W        W54684  29.863   5.495   9.116  0.1009 -0.1162  0.2159
45885W        W54685  26.083   4.661   7.112  0.2218  0.2432  0.0162
45886W        W54686  19.022   5.858  24.102  0.0308  0.0114  0.0385
45887W        W54687  30.396   4.377   6.422 -0.0877 -0.0710 -0.2159
45888W        W54688  10.662   5.604   6.230 -0.0031  0.1886 -0.1126
45889W        W54689  20.092   3.145   2.993 -0.1008  0.2183  0.0882
45890W        W54690   5.262   4.858   0.788 -0.0251  0.0534  0.0124
45891W        W54691  24.104   2.856   2.479  0.0371  0.2357  0.2446
45892W        W54692  12.443   5.125   0.605  0.2451  0.0675 -0.0151
45893W        W54693  11.838   5.413  18.331  0.1314 -0.0475 -0.1872
45894W        W54694  13.780   4.032   2.022  0.0296 -0.0067 -0.2511
45895W        W54695  18.120   2.292  18.984 -0.2298 -0.0956 -0.1713
45896W        W54696   3.840   1.952  17.266 -0.2237 -0.0209  0.0287
45897W        W54697  31.187   1.697  25.803 -0.2661  0.0060 -0.1240
45898W        W54698  27.680   3.959  18.899  0.3068  0.2786 -0.1421
45899W        W54699  30.308   3.928   9.741  0.0788 -0.0386  0.1308
45900W        W54700  30.325   0.632  25.995  0.3280  0.0897  0.1611
45901W        W54701   7.406   7.447  18.320  0.0097 -0.2113 -0.0050
45902W        W54702  31.313   6.460   9.823  0.0734 -0.2408 -0.0360
45903W        W54703  30.769   3.551   1.717 -0.3244  0.3507  0.2075
45904W        W54704  25.916   4.327  15.125 -0.0174  0.1193 -0.2286
45905W        W54705  28.752   0.221   3.770  0.2078  0.3598  0.0926
45906W        W54706   7.475   1.771   2.248  0.0362 -0.0196 -0.0755
45907W        W54707  29.307   7.601  17.764  0.2116  0.0237  0.2811
45908W        W54708  30.327   2.654   4.458 -0.2605  0.1527 -0.2894
45909W        W54709  16.563   0.566  22.610 -0.0410  0.0202 -0.0464
45910W        W54710  31.397   1.232   4.518 -0.2158 -0.1159 -0.1930
45911W        W54711   1.747   2.113   1.147 -0.0879 -0.2044  0.0232
45912W        W54712  11.289   5.968   4.575 -0.0959 -0.1929  0.0881
45913W        W54713  13.277   3.850   2.036  0.1020  0.2864  0.0855
45914W        W54714  23.209   3.185  19.730 -0.1298  0.0419 -0.0837
45915W        W54715  16.968   6.617   9.627  0.1253  0.1199  0.0192
45916W        W54716  17.196   4.331   6.682 -0.0808  0.2248 -0.2282
45917W        W54717  11.528   3.970   7.861  0.2603 -0.1651  0.1585
45918W        W54718  11.128   5.120  15.258  0.0462 -0.0742 -0.1700
45919W        W54719  26.897   0.640  17.707  0.0654  0.1161 -0.2257
45920W        W54720  15.466   1.016  20.399  0.0897  0.0319 -0.0691
45921W        W54721  29.779   1.131   3.963 -0.2128 -0.1110 -0.3432
45922W        W54722   3.949   0.767  20.367 -0.0658  0.0269 -0.1693
45923W        W54723  30.452   5.259   2.370 -0.0720  0.1833  0.2790
45924W        W54724  28.180   7.330  18.811  0.2419  0.0298 -0.0956
45925W        W54725  26.241   3.688  19.934 -0.0081 -0.0016 -0.1122
45926W        W54726  11.078   5.498   4.061  0.0508 -0.3979  0.1479
45927W        W54727  22.579   3.237  19.546  0.2677 -0.1234 -0.2594
45928W        W54728  12.147   1.065  18.803 -0.1266 -0.0781 -0.0352
45929W        W54729  26.751   0.892  22.535 -0.0336  0.2660 -0.2288
45930W        W54730   5.215   4.182  16.159 -0.0523 -0.0315 -0.3113
45931W        W54731  24.064   2.145  23.834  0.2594  0.2101  0.0239
45932W        W54732  23.512   6.034  15.685 -0.2759 -0.0845  0.0650
45933W        W54733   6.345   4.245  18.420 -0.4098 -0.1002  0.0926
45934W        W54734  15.262   4.147   7.714 -0.0504 -0.1653 -0.0856
45935W        W54735   5.034   1.701   8.819 -0.2260 -0.1199 -0.0296
45936W        W54736  21.905   3.922   5.961  0.0758 -0.1174  0.3682
45937W        W54737  22.156   3.976   8.017  0.0923  0.1476  0.0857
45938W        W54738  18.027   6.588   4.846 -0.0695 -0.0453  0.1789
45939W        W54739   2.287   6.636   6.490  0.1241 -0.2473  0.0047
45940W        W54740  14.950   4.334   8.730  0.0060 -0.2361 -0.1456
45941W        W54741  22.495   1.360  23.887 -0.0701  0.2250 -0.0408
45942W        W54742   4.216   7.288   8.593 -0.1195 -0.3539  0.0866
45943W        W54743  16.977   4.539   6.043  0.0939 -0.0794  0.0638
45944W        W54744   1.905   6.082   1.430  0.1382  0.3049 -0.1641
45945W        W54745  17.397   1.493   5.948 -0.0998 -0.1948 -0.3132
45946W        W54746  17.945   1.308   2.143  0.1449  0.0430  0.1450
45947W        W54747  12.487   7.119  21.350 -0.0286 -0.0356 -0.0805
45948W        W54748  28.515   1.252   9.960 -0.3921 -0.0744  0.1792
45949W        W54749   0.039   6.820  14.855 -0.1308 -0.2098 -0.1388
45950W        W54750  13.940   7.657   9.051  0.0784  0.0957 -0.0717
45951W        W54751  29.507   5.555   2.997 -0.0511 -0.2005  0.0980
45952W        W54752  30.276   7.495   3.621  0.2674  0.2710 -0.0014
45953W        W54753  18.679   7.548  19.246  0.3727 -0.1632  0.2824
45954W        W54754   2.365   0.805  17.329 -0.0785  0.0491 -0.0332
45955W        W54755   1.240   6.170  15.191  0.0615  0.1503  0.1004
45956W        W54756  12.726   3.844   8.290 -0.1787 -0.1458 -0.0134
45957W        W54757  11.840   7.742  24.096 -0.1048  0.1350  0.1265
45958W        W54758  22.604   2.615   4.942  0.3242 -0.1296 -0.0101
45959W        W54759  21.459   0.071  25.312  0.2262 -0.1244  0.0657
45960W        W54760   0.150   6.159  20.539 -0.2646 -0.0932  0.0617
45961W        W54761  30.891   2.837   8.486 -0.1323  0.1986 -0.2032
45962W        W54762   9.846   5.599   0.243 -0.3249  0.1568  0.1348
45963W        W54763   2.676   0.637  16.753 -0.0763 -0.0662 -0.2803
45964W        W54764   8.015   1.518  23.518  0.1260 -0.3431 -0.1661
45965W        W54765   1.162   6.570  15.482 -0.0970 -0.1105  0.1665
45966W        W54766   2.546   0.621   1.723 -0.0110 -0.1093  0.2455
45967W        W54767   5.733   7.305   0.561  0.3219 -0.2735  0.0712
45968W        W54768  21.079   2.608  15.567 -0.0789  0.2627  0.1395
45969W        W54769   5.366   2.441  25.875  0.0507  0.1711  0.0762
45970W        W54770   1.724   2.928  24.239 -0.3261  0.0295  0.0689
45971W        W54771  26.798   5.169   8.006 -0.0569 -0.0461 -0.1242
45972W        W54772  10.426   4.276  20.545 -0.0766 -0.1269  0.1175
45973W        W54773  27.935   1.925  19.506  0.2939  0.2346 -0.1697
45974W        W54774  30.722   4.381  18.623  0.1632 -0.3971  0.0040
45975W        W54775   1.746   7.430  23.594 -0.3224 -0.0144  0.2025
45976W        W54776   7.089   4.528  25.901 -0.3215  0.2652 -0.1248
45977W        W54777   6.886   6.075   3.190 -0.2778  0.0691 -0.0539
45978W        W54778  11.837   0.688   7.733  0.0236 -0.1591  0.1471
45979W        W54779  28.842   2.825  15.917 -0.1382 -0.0442  0.3762
45980W        W54780  13.845   3.460   5.903 -0.0193  0.2138  0.1398
45981W        W54781  18.042   1.354  21.230  0.3121  0.1083 -0.0031
45982W        W54782  21.481   7.844   9.393 -0.0296  0.1077 -0.0782
45983W        W54783   1.188   0.907  14.663  0.1633  0.0286  0.0748
45984W        W54784  11.061   1.354   9.074  0.4140  0.0256  0.0443
45985W        W54785  30.691   5.285  16.127 -0.1831  0.2093 -0.0075
45986W        W54786   5.310   4.826  19.993  0.1059 -0.1040 -0.3061
45987W        W54787  31.392   3.692   1.764  0.0282  0.0249 -0.2259
45988W        W54788  26.081   7.347  10.230 -0.1853  0.1251  0.0683
45989W        W54789  20.508   3.324  20.396 -0.2402  0.1652  0.0845
45990W        W54790  19.182   6.599   4.309 -0.2995  0.2631 -0.1459
45991W        W54791  11.009   0.362  25.022  0.0292 -0.0229  0.4182
45992W        W54792  11.843   5.939   2.175 -0.0298  0.0364  0.0021
45993W        W54793   9.609   3.576   3.638  0.0490  0.1266  0.1981
45994W        W54794  15.205   1.547   4.177 -0.0313 -0.0272 -0.0231
45995W        W54795   0.430   3.188   3.473  0.0592  0.2061 -0.1671
45996W        W54796  15.877   7.037  19.907 -0.1270 -0.0618  0.0948
45997W        W54797  29.854   6.840   4.717 -0.2180 -0.1872  0.1493
45998W        W54798   7.345   4.799  24.968 -0.3599  0.2629 -0.2037
45999W        W54799  19.607   4.064   0.810 -0.3522  0.4149  0.2425
46000W        W54800  28.112   4.494   6.164  0.0882 -0.0622 -0.1785
46001W        W54801  19.706   2.204  25.208 -0.0933 -0.0531 -0.0155
46002W        W54802   5.085   4.406  17.811 -0.1016 -0.2455 -0.2239
46003W        W54803  10.815   7.319  17.158 -0.0534  0.1913  0.0168
46004W        W54804  22.569   5.004   6.598  0.1279 -0.0096 -0.0888
46005W        W54805  18.257   0.320   5.424 -0.3908 -0.1141 -0.3873
46006W        W54806   8.689   1.590  25.872 -0.0375 -0.0858 -0.1730
46007W        W54807  26.781   5.686  10.242 -0.2416  0.1644  0.1649
46008W        W54808  16.141   0.557  18.223  0.0288 -0.2037 -0.1401
46009W        W54809  23.569   1.890   1.565  0.1139  0.1745  0.0397
46010W        W54810   6.701   7.826   8.781  0.0168  0.0851 -0.0331
46011W        W54811  13.692   5.114  23.369 -0.1126  0.0579 -0.0673
46012W        W54812   0.410   1.601  14.646  0.1703  0.3873 -0.0380
46013W        W54813   6.415   2.108  23.912 -0.2488 -0.1844 -0.1046
46014W        W54814  27.060   0.130  17.271  0.0418 -0.2632  0.1188
46015W        W54815  27.265   6.764   4.784  0.0672 -0.1007 -0.0389
46016W        W54816   9.793   1.987  24.964 -0.0101  0.2150 -0.1684
46017W        W54817  28.260   7.411  20.835  0.2497 -0.0630 -0.0572
46018W        W54818   8.066   3.248   9.829 -0.0017 -0.3688  0.0403
46019W        W54819   8.364   4.529   6.744  0.0622 -0.1512  0.2878
46020W        W54820   5.274   4.334  19.173 -0.1514  0.2445  0.3382
46021W        W54821  24.076   7.651   0.205 -0.3520  0.1578  0.2847
46022W        W54822  28.650   6.853  17.651  0.1575  0.0585  0.0390
46023W        W54823  12.346   3.381  23.832  0.0340  0.2680 -0.2220
46024W        W54824   2.416   6.555   2.514  0.2648 -0.0241  0.0721
46025W        W54825  17.643   6.001  20.524 -0.0042  0.0371  0.1704
46026W        W54826   7.640   3.766  15.449 -0.0693  0.1463 -0.1318
46027W        W54827  31.105   3.615   1.267 -0.0429 -0.0670  0.3718
46028W        W54828  14.854   6.080   9.425 -0.0514 -0.0857 -0.1222
46029W        W54829   2.696   7.498  20.043  0.0097  0.1169  0.1106
46030W        W54830  27.604   7.245  17.898 -0.1060  0.0106 -0.3226
46031W        W54831  11.416   0.393  10.667  0.0743  0.1455 -0.0199
46032W        W54832  31.310   4.980  21.797 -0.0265  0.1182  0.0215
46033W        W54833  13.035   0.162   3.816 -0.5083  0.0317  0.2339
46034W        W54834  31.260   1.088  16.398  0.1264  0.1271  0.0064
46035W        W54835  11.509   0.757   5.869  0.1186 -0.0882 -0.0065
46036W        W54836   8.271   0.250  16.983  0.1558 -0.0402 -0.1061
46037W        W54837  25.244   3.793   6.178  0.1479  0.0838 -0.0304
46038W        W54838   8.943   1.991  17.137 -0.3264  0.0552 -0.0289
46039W        W54839   5.044   5.478  16.710 -0.2437 -0.0084 -0.0132
46040W        W54840  23.039   4.428   6.450  0.1180  0.0213 -0.1668
46041W        W54841  18.136   5.032  21.029 -0.1398 -0.1339 -0.2579
46042W        W54842   7.696   3.681  17.344  0.0002 -0.2110  0.0181
46043W        W54843  21.387   7.227   2.925  0.3331 -0.0363 -0.2745
46044W        W54844  29.643   3.161   4.794 -0.3446  0.0993 -0.3749
46045W        W54845  10.424   6.104  15.909 -0.0006 -0.1669 -0.0097
46046W        W54846  14.716   2.897  21.036 -0.0461  0.0529  0.0897
46047W        W54847  23.563   0.137  23.187 -0.0241  0.0687  0.0928
46048W        W54848  18.927   5.525  21.979  0.0493 -0.0643  0.0079
46049W        W54849  25.830   3.034  10.218 -0.0858 -0.4446 -0.2177
46050W        W54850  17.240   2.391   0.982 -0.0838  0.0716  0.1123
46051W        W54851  10.666   0.399  20.206 -0.3115 -0.0468  0.0788
46052W        W54852  12.753   0.516  10.973  0.1792 -0.1863  0.0926
46053W        W54853  24.273   5.579  19.807 -0.0696  0.1926  0.0877
46054W        W54854   3.053   3.189   5.375  0.1062 -0.1931 -0.2010
46055W        W54855  12.539   6.693  24.968 -0.1356 -0.1188 -0.0730
46056W        W54856  13.500   1.819   1.109 -0.0814 -0.0647 -0.3822
46057W        W54857  18.750   1.009  15.192 -0.0765  0.3346  0.3820
46058W        W54858  30.012   2.023  16.340  0.1179 -0.2793 -0.1720
46059W        W54859  19.831   1.792   8.668 -0.1942  0.1566  0.1324
46060W        W54860  29.664   6.207  14.755 -0.2042 -0.1783  0.1741
46061W        W54861   5.442   2.683   7.126  0.1917 -0.0719 -0.1249
46062W        W54862  11.790   3.641  25.925 -0.1254 -0.1142  0.1559
46063W        W54863  29.976   2.949   7.551  0.1247 -0.2490 -0.1449
46064W        W54864  27.768   0.053  21.063 -0.0748  0.0248 -0.1579
46065W        W54865  13.100   5.480  21.440 -0.3515 -0.1486 -0.1622
46066W        W54866   4.607   1.389  16.609 -0.1920 -0.0809  0.0501
46067W        W54867  27.909   5.015   1.429  0.1546  0.0673 -0.1643
46068W        W54868   4.709   0.845   0.460 -0.0832  0.2818  0.3496
46069W        W54869  15.346   2.803  23.914 -0.0340 -0.2204  0.0093
46070W        W54870  26.547   1.532  16.001 -0.0015  0.1158 -0.0230
46071W        W54871  12.316   4.711  19.859 -0.2659 -0.0105 -0.3322
46072W        W54872  18.133   0.359   7.792  0.0524 -0.1801 -0.0026
46073W        W54873  15.460   0.794   5.657  0.0761 -0.3336 -0.2553
46074W        W54874   3.717   0.265   7.695  0.2926  0.1127 -0.1811
46075W        W54875  26.257   4.726  22.045  0.1656  0.0278  0.0243
46076W        W54876  12.809   3.426   1.504 -0.2716  0.3207  0.2071
46077W        W54877  11.500   6.400  15.711  0.1875 -0.1643 -0.1819
46078W        W54878  27.728   0.942   2.874  0.3579 -0.0690 -0.0901
46079W        W54879   9.717   5.336   5.988  0.0658  0.0447 -0.0398
46080W        W54880  21.738   3.004  18.899 -0.0757  0.0915 -0.0823
46081W        W54881  31.370   0.670   4.760  0.0382  0.0382 -0.1262
46082W        W54882  20.843   2.740   4.226 -0.1300 -0.2772 -0.2634
46083W        W54883  23.125   7.341   8.210 -0.2017 -0.0302  0.0479
46084W        W54884  19.678   0.226   4.934  0.0479  0.2584  0.2136
46085W        W54885   9.912   4.196   4.670  0.0047 -0.0153 -0.0908
46086W        W54886  25.540   6.119   3.918  0.1818  0.2178 -0.0493
46087W        W54887   1.580   4.514   5.640  0.1669 -0.0067  0.0269
46088W        W54888   9.750   5.806  14.789  0.2646  0.0112 -0.1937
46089W        W54889  26.700   2.858  22.167  0.2515 -0.0192 -0.2601
46090W        W54890   7.393   4.333  20.517 -0.1584 -0.0142  0.0777
46091W        W54891  24.676   7.411  17.837  0.1796 -0.0736 -0.0938
46092W        W54892  11.290   7.739   6.058 -0.1164  0.0420  0.0913
46093W        W54893  18.869   3.396  16.777  0.3403  0.0371  0.1319
46094W        W54894  16.714   6.251  20.518  0.2681 -0.0426  0.2163
46095W        W54895  10.918   3.559  21.144  0.0113  0.1543 -0.0044
46096W        W54896  27.808   4.485   2.267  0.0311  0.0470  0.0627
46097W        W54897   5.833   0.904   9.875 -0.2087  0.2283 -0.1120
46098W        W54898   5.930   0.312   1.792  0.1602 -0.1217 -0.0211
46099W        W54899   1.950   5.279   8.816 -0.0586  0.1316  0.0235
46100W        W54900  31.419   5.702   9.412 -0.1689 -0.0203  0.0033
46101W        W54901  25.221   7.611   4.956  0.1365  0.3151  0.1285
46102W        W54902  31.011   0.394  19.082 -0.3488  0.1274  0.1331
46103W        W54903  26.589   6.695  25.650 -0.0260 -0.1242 -0.2749
46104W        W54904  23.276   4.888   4.099 -0.2564  0.3351 -0.1069
46105W        W54905  18.182   0.713   7.427  0.2180 -0.2014  0.3751
46106W        W54906   5.279   1.973  18.107 -0.1149  0.2060  0.1211
46107W        W54907   5.207   2.304   8.338 -0.1795  0.2147  0.0677
46108W        W54908   4.807   7.706   3.938 -0.0007 -0.1113  0.1139
46109W        W54909  17.179   0.404  22.939 -0.2218  0.1631 -0.0948
46110W        W54910  10.858   0.576  18.345 -0.3741 -0.0443 -0.1093
46111W        W54911  11.256   4.445  23.269  0.0659 -0.1186  0.2141
46112W        W54912  23.910   6.510   0.273 -0.1247  0.1527 -0.2459
46113W        W54913   7.364   3.081  20.081 -0.2599  0.2802  0.3087
46114W        W54914  18.887   4.235  22.471 -0.1119 -0.2458 -0.3110
46115W        W54915   7.533   5.765   6.848  0.3109  0.1953 -0.0909
46116W        W54916  22.874   2.498  25.005 -0.1111  0.2212 -0.0666
46117W        W54917   7.587   4.109   5.206 -0.1974  0.1130  0.4203
46118W        W54918   3.049   5.976  15.429  0.2496  0.0213  0.0027
46119W        W54919  15.285   6.967  25.229  0.3403 -0.0482  0.1037
46120W        W54920  22.624   5.309  26.076 -0.0055  0.1696  0.3774
46121W        W54921  12.570   3.161  24.246 -0.0481 -0.0642 -0.1612
46122W        W54922  16.976   6.324   6.120 -0.1867  0.1854 -0.4955
46123W        W54923  16.472   7.706  18.298 -0.1340 -0.2189 -0.0786
46124W        W54924  27.986   1.182  18.903 -0.0138  0.1516  0.0686
46125W        W54925  18.680   1.741   2.740 -0.0210 -0.1982  0.1016
46126W        W54926   0.582   4.805  18.237 -0.5362 -0.2825  0.0020
46127W        W54927  15.969   1.169  25.456 -0.0835  0.0370  0.0230
46128W        W54928   6.997   1.105  21.980 -0.3796 -0.1474  0.2358
46129W        W54929  17.358   0.602   5.541 -0.0018 -0.3407  0.2229
46130W        W54930  25.191   0.985   2.307 -0.1016  0.0316 -0.1373
46131W        W54931  29.538   5.517  21.986 -0.1673 -0.0580  0.1109
46132W        W54932  23.808   1.498  18.907  0.3565 -0.0630  0.1785
46133W        W54933  18.899   2.125   6.809  0.2081 -0.2209  0.0325
46134W        W54934   5.215   6.342   7.761 -0.1918 -0.1052  0.1441
46135W        W54935  31.344   1.191  16.857 -0.1466 -0.0170 -0.0675
46136W        W54936  14.673   1.555   4.796 -0.1155  0.1564 -0.2388
46137W        W54937   1.159   2.157   3.537  0.1161  0.1674  0.1161
46138W        W54938   9.515   3.822  17.394 -0.1735 -0.0886 -0.0941
46139W        W54939  14.196   5.003  22.016  0.0548 -0.2424  0.0551
46140W        W54940  26.026   4.508  17.770 -0.0722  0.0173 -0.1620
46141W        W54941   2.077   3.770  15.840  0.1605  0.1052 -0.2828
46142W        W54942  29.390   5.088   4.049  0.1736  0.0646  0.1491
46143W        W54943   2.817   7.502   2.534  0.2060 -0.1825 -0.1354
46144W        W54944  30.997   1.258   9.991 -0.2945 -0.1059  0.0008
46145W        W54945   9.667   5.320  24.528 -0.0249  0.0019  0.0414
46146W        W54946   9.999   6.333   8.646 -0.0719 -0.0071  0.1353
46147W        W54947  28.702   1.550   6.376 -0.0038  0.4538  0.0059
46148W        W54948  22.285   6.781   5.837 -0.0603  0.1822 -0.2210
46149W        W54949  14.483   1.715   7.724  0.1459 -0.1871 -0.1733
46150W        W54950  15.555   5.129  17.299  0.0450 -0.0708 -0.1741
46151W        W54951  26.317   2.674   1.072 -0.0852  0.1613  0.5446
46152W        W54952  17.803   0.384   2.908 -0.3608  0.0537 -0.1699
46153W        W54953  31.313   5.478  21.558  0.2171  0.1186 -0.2099
46154W        W54954  29.804   0.821  17.119  0.1049 -0.0823  0.2362
46155W        W54955  21.435   7.655  21.339 -0.1527  0.0098  0.0914
46156W        W54956  16.228   1.473   8.594 -0.2144  0.2757  0.0383
46157W        W54957  29.901   6.628   5.637  0.2822 -0.2326 -0.1259
46158W        W54958  31.111   1.997  25.410  0.1605  0.2386  0.1448
46159W        W54959   2.540   4.602   7.796 -0.0349  0.1633 -0.0971
46160W        W54960  15.331   6.703  16.692  0.1795  0.1313 -0.0036
46161W        W54961   4.765   4.236  16.981 -0.0872  0.0813 -0.0914
46162W        W54962  13.623   5.589  21.297  0.0712  0.0548 -0.0260
46163W        W54963  25.989   7.303   0.333  0.1233  0.0599 -0.1812
46164W        W54964  10.467   3.742   2.516 -0.0757 -0.2419  0.0635
46165W        W54965  27.934   2.077  16.697 -0.1337 -0.0379  0.0272
46166W        W54966  21.504   4.821  17.658 -0.1860  0.1778 -0.0714
46167W        W54967   8.980   7.542   1.397  0.2154 -0.2519  0.1943
46168W        W54968   8.379   4.716  23.596  0.1527 -0.2061  0.1717
46169W        W54969  30.558   4.470  16.457  0.1927  0.1155  0.3445
46170W        W54970  11.866   0.869   9.069 -0.0109  0.1448 -0.0233
46171W        W54971   2.229   7.437  16.898  0.3622 -0.0362  0.1504
46172W        W54972  11.666   3.364  16.315  0.4108 -0.2096 -0.1795
46173W        W54973  29.205   2.308   9.469 -0.1666  0.2090 -0.0444
46174W        W54974   8.524   4.726  17.938  0.2824  0.1289 -0.3261
46175W        W54975  25.766   7.083  20.943  0.1905 -0.4827  0.1406
46176W        W54976  28.581   7.092  14.808 -0.4613  0.0779  0.0252
46177W        W54977   8.170   5.858  24.841 -0.0444  0.0783  0.3620
46178W        W54978   8.298   4.413  23.157 -0.0295 -0.1414  0.0431
46179W        W54979  27.588   0.188   5.388 -0.1267  0.0424 -0.2740
46180W        W54980  13.542   1.828  22.691  0.0450 -0.1974  0.0833
46181W        W54981  21.021   4.239   2.196  0.1386 -0.1327  0.0010
46182W        W54982  25.926   7.661   5.219 -0.1383  0.0038 -0.0348
46183W        W54983  11.943   4.263   1.466 -0.3097 -0.0560 -0.0179
46184W        W54984  16.553   2.295  19.450  0.2348  0.0734 -0.5056
46185W        W54985  30.423   5.119  23.050  0.1681 -0.0363 -0.0161
46186W        W54986   8.478   2.047  15.299 -0.0403  0.0275  0.0181
46187W        W54987  29.851   5.753  17.729  0.1266 -0.1472  0.1072
46188W        W54988  25.975   5.003   7.480 -0.2093  0.0002  0.0680
46189W        W54989   6.625   5.843   7.188  0.0480 -0.0134  0.0047
46190W        W54990  21.462   1.379   8.162  0.3139 -0.0304 -0.0737
46191W        W54991  24.085   3.326   2.229 -0.3069  0.1809 -0.0625
46192W        W54992   7.048   6.441  15.137  0.0731 -0.0724  0.3099
46193W        W54993   1.134   4.176   4.698  0.0606  0.0496 -0.0928
46194W        W54994  22.856   4.125   3.169  0.4276 -0.1002  0.2613
46195W        W54995   8.634   6.811  20.412 -0.0049 -0.2382  0.0474
46196W        W54996   4.342   5.364  10.838 -0.0883 -0.2017 -0.0542
46197W        W54997  22.891   4.840  23.521  0.0587 -0.3249 -0.1011
46198W        W54998  12.904   0.070  11.477 -0.1096 -0.1225  0.0052
46199W        W54999  25.704   7.273  19.403 -0.0621 -0.0543  0.0444
46200W        W55000  17.020   2.612  21.496  0.3108 -0.0613 -0.2055
46201W        W55001   8.018   7.757   2.366 -0.1585 -0.0932 -0.0999
46202W        W55002  31.146   5.954  20.601  0.2245  0.0235  0.2762
46203W        W55003  31.051   4.498  23.973  0.2690 -0.2574  0.2830
46204W        W55004  19.972   7.098  25.032 -0.1320 -0.0527 -0.2031
46205W        W55005  11.647   7.854  21.233  0.2135 -0.0563  0.2428
46206W        W55006  21.715   0.095   7.117 -0.1795  0.0498 -0.1075
46207W        W55007  30.807   0.903  18.676  0.1355  0.0240  0.4091
46208W        W55008  28.387   5.131  23.545  0.0516 -0.3717 -0.0387
46209W        W55009  27.162   6.460   4.344  0.0043 -0.1766  0.0040
46210W        W55010  30.919   1.100  20.493 -0.0878  0.0835 -0.1030
46211W        W55011  29.319   3.943   5.003 -0.4549  0.1659 -0.0967
46212W        W55012  26.804   3.048  22.647  0.3495  0.1168  0.0552
46213W        W55013   2.348   5.917  14.881 -0.1830 -0.0232 -0.0133
46214W        W55014  21.233   3.200   3.464 -0.1547  0.0520  0.1219
46215W        W55015  23.958   7.713   5.342 -0.0525 -0.2182 -0.1575
46216W        W55016  31.287   6.513   0.813 -0.1263  0.1157  0.1505
46217W        W55017   9.530   3.770   0.557 -0.1109  0.1904 -0.1843
46218W        W55018  10.903   6.244   0.770 -0.3202 -0.0132  0.0313
46219W        W55019  21.616   2.534   5.612 -0.1768  0.3583 -0.2734
46220W        W55020  31.400   1.103  24.701 -0.3451 -0.0939  0.0041
46221W        W55021   9.850   5.859  19.453  0.0532  0.2887 -0.0852
46222W        W55022  19.573   4.021   3.484 -0.1033  0.3082  0.3960
46223W        W55023  27.252   1.794   1.665  0.1905 -0.0110  0.1066
46224W        W55024  29.925   3.790  15.637 -0.0982 -0.0238 -0.0250
46225W        W55025   1.147   1.787  16.179  0.0854  0.0181 -0.1221
46226W        W55026  26.227   0.587   4.854  0.1020 -0.1034  0.2207
46227W        W55027   8.308   3.600   5.164 -0.2632  0.0138 -0.4002
46228W        W55028  15.109   0.769   3.004  0.1255 -0.1198  0.2934
46229W        W55029   2.350   3.029  22.187 -0.4038  0.2224  0.0383
46230W        W55030  15.389   6.048   4.168  0.2450 -0.0670  0.0104
46231W        W55031  26.248   7.314   2.938 -0.0271 -0.1087  0.0021
46232W        W55032   8.038   1.877  20.033 -0.1328 -0.2084 -0.2754
46233W        W55033  27.364   3.702  24.052  0.2252 -0.0608 -0.3001
46234W        W55034   3.447   5.259  23.029  0.1399  0.2021  0.2556
46235W        W55035  14.871   7.182  25.150 -0.0684 -0.2477 -0.1902
46236W        W55036   0.312   1.018   7.429  0.3087 -0.0400 -0.1978
46237W        W55037   2.583   7.685  17.123  0.2820  0.1280 -0.1020
46238W        W55038  11.575   0.455   1.083 -0.2694 -0.0184 -0.2647
46239W        W55039  20.683   2.306   0.828 -0.0075 -0.0142 -0.0476
46240W        W55040   1.853   1.615   7.151 -0.1298 -0.1638  0.0488
46241W        W55041   5.126   0.455  24.093  0.3701  0.1963  0.1400
46242W        W55042  16.472   0.229  15.169 -0.1940 -0.0371 -0.3117
46243W        W55043  13.319   7.178   8.252 -0.2491 -0.0333  0.0468
46244W        W55044  23.009   0.817   2.850 -0.0443 -0.0628  0.0434
46245W        W55045  14.724   1.394  19.262  0.1112 -0.0789 -0.0416
46246W        W55046  15.295   5.163  22.349  0.0463  0.0315  0.2512
46247W        W55047   6.644   4.974   1.192  0.0033 -0.3459 -0.0066
46248W        W55048  24.347   1.368  24.330  0.0548 -0.1963 -0.0243
46249W        W55049  30.988   6.398  16.206  0.2025  0.0714 -0.0947
46250W        W55050  15.581   3.073  15.510 -0.1938  0.1147  0.3274
46251W        W55051  13.144   0.841   7.671  0.3917 -0.2180  0.0640
46252W        W55052  20.739   4.605  23.708 -0.1983  0.3340  0.0291
46253W        W55053  15.417   0.851  19.052  0.1199  0.1159 -0.2809
46254W        W55054  25.089   1.291  20.765 -0.1020  0.1261 -0.0845
46255W        W55055  27.565   2.269   4.628  0.3001  0.2841 -0.0586
46256W        W55056  23.879   5.325   2.913 -0.2528 -0.2053 -0.0266
46257W        W55057  15.554   6.922  20.327 -0.1649 -0.0245  0.3310
46258W        W55058  26.956   0.496  24.229  0.0118 -0.0465 -0.2659
46259W        W55059  13.109   5.395  24.204 -0.0093  0.2873 -0.2246
46260W        W55060  13.102   7.669   5.042  0.0775  0.0763  0.1885
46261W        W55061   9.558   2.423  25.051 -0.0211  0.3127 -0.0928
46262W        W55062   8.273   5.486  17.617 -0.0736  0.0372 -0.0586
46263W        W55063   3.083   7.105  25.991  0.0753  0.0722 -0.2720
46264W        W55064  26.421   5.609  26.074  0.0267  0.1788  0.1664
46265W        W55065  26.567   3.424   4.220 -0.1383 -0.0600 -0.0018
46266W        W55066  24.575   0.519   9.939 -0.1999 -0.1731 -0.0841
46267W        W55067   9.472   1.720  17.693 -0.0414 -0.1110 -0.0119
46268W        W55068   4.544   5.560   7.715  0.1295  0.1463 -0.0640
46269W        W55069   1.443   7.118   8.304  0.2156 -0.0104  0.0871
46270W        W55070  17.954   6.306  15.314  0.0854 -0.0949 -0.0101
46271W        W55071   9.481   5.906  24.553 -0.0401 -0.1047 -0.0071
46272W        W55072  20.826   0.380  17.626 -0.1608 -0.2380  0.1967
46273W        W55073   2.689   7.624   1.264  0.0247  0.2747 -0.2453
46274W        W55074  28.285   4.655   0.702  0.2912 -0.1625  0.2162
46275W        W55075  21.618   6.642   1.977  0.2180 -0.1883  0.0644
46276W        W55076  11.829   4.974   4.486 -0.0878 -0.2269  0.0793
46277W        W55077  23.740   2.021   9.244  0.0330  0.0027 -0.0140
46278W        W55078   4.141   0.878  24.802  0.0821  0.1016  0.0067
46279W        W55079  28.319   1.742   5.014  0.0541  0.0684  0.1966
46280W        W55080  23.258   0.817  19.250 -0.0147  0.0092  0.4505
46281W        W55081  11.722   3.454   2.318  0.1890  0.1657  0.2492
46282W        W55082  26.348   0.320   1.866  0.0451  0.1009 -0.1503
46283W        W55083   3.458   7.691  25.537 -0.1631 -0.0364  0.1573
46284W        W55084  19.473   6.624  15.870 -0.0095 -0.0195  0.2423
46285W        W55085  27.636   4.556  20.989  0.0528 -0.3134  0.3001
46286W        W55086  18.109   1.220  25.044 -0.3187 -0.4246 -0.0181
46287W        W55087  22.653   3.401   9.418  0.3294  0.1748 -0.3754
46288W        W55088  12.870   3.549  10.554 -0.3334 -0.0532  0.2017
46289W        W55089   7.238   1.116   7.563 -0.0219 -0.2842  0.0380
46290W        W55090   5.983   0.668  22.712 -0.0244 -0.1696 -0.3120
46291W        W55091  30.441   6.931  21.083 -0.0995 -0.3228 -0.2617
46292W        W55092  14.052   6.280   1.186 -0.0361 -0.1715 -0.1185
46293W        W55093   8.147   2.385  14.970  0.0215 -0.0085 -0.0826
46294W        W55094  10.398   2.032  21.254  0.1070  0.1874 -0.0081
46295W        W55095  25.671   4.871  16.753 -0.0457 -0.2797 -0.0958
46296W        W55096  10.271   0.196   4.234  0.1589 -0.0355 -0.3718
46297W        W55097   5.730   0.730   5.464 -0.0455 -0.0546 -0.1182
46298W        W55098  28.628   4.398  15.558  0.0198 -0.5004  0.0766
46299W        W55099  19.679   0.669  21.328 -0.0515 -0.3611 -0.0464
46300W        W55100  17.867   4.379  22.254 -0.3186 -0.0593  0.1526
46301W        W55101  28.121   5.528  22.924  0.0086 -0.1150  0.0743
46302W        W55102  10.929   4.121  20.764 -0.0579  0.0664  0.2978
46303W        W55103   1.271   2.733  19.367  0.2016 -0.0468  0.1363
46304W        W55104  17.107   5.314   1.593  0.0388 -0.0661 -0.1848
46305W        W55105  15.668   6.729   6.665  0.4585  0.0363  0.0425
46306W        W55106   2.487   1.694   3.126  0.2186  0.0587 -0.0559
46307W        W55107  17.094   0.807  24.355 -0.1389  0.1377 -0.3052
46308W        W55108  28.571   7.620  25.908  0.0407  0.2312  0.2527
46309W        W55109   4.307   3.868  24.022 -0.0351 -0.1977 -0.0549
46310W        W55110  21.014   2.427  16.015 -0.1405 -0.0465  0.1493
46311W        W55111  20.013   0.191  24.760 -0.1639 -0.0003 -0.5172
46312W        W55112  20.569   7.722   9.139  0.0384 -0.0513 -0.0448
46313W        W55113   1.039   7.560   4.664 -0.4181 -0.0604  0.2450
46314W        W55114   9.585   2.716   1.240 -0.1728  0.0535  0.1498
46315W        W55115  10.300   4.421  25.044 -0.4112 -0.0656  0.1649
46316W        W55116  17.347   6.424   6.512 -0.2668  0.4991  0.1187
46317W        W55117  24.718   5.057   7.203 -0.2441  0.1947  0.2891
46318W        W55118  23.796   2.820   6.856 -0.1481  0.0978  0.1647
46319W        W55119  15.005   6.557  20.186 -0.0803 -0.1001  0.0155
46320W        W55120  10.763   6.794  22.822  0.2820  0.1950 -0.0392
46321W        W55121  24.078   4.024   2.739 -0.0402  0.0419  0.2572
46322W        W55122  24.884   4.634   8.741 -0.1367 -0.2601  0.0019
46323W        W55123  20.219   6.806  22.951 -0.0131  0.0059 -0.0093
46324W        W55124   7.697   3.931  24.526 -0.1768  0.0755  0.1902
46325W        W55125   5.288   0.094  24.425  0.0032  0.0153 -0.2893
46326W        W55126  23.179   3.742  18.622 -0.3212 -0.1432  0.1234
46327W        W55127  21.837   4.953   8.609  0.3647 -0.2951  0.1316
46328W        W55128  27.841   1.988   3.609 -0.2261  0.0589 -0.3243
46329W        W55129  12.201   3.362   4.352 -0.0336 -0.0921  0.0930
46330W        W55130  18.330   2.077  23.555 -0.2593  0.0037 -0.0117
46331W        W55131   5.535   6.523  17.989 -0.0259 -0.1976  0.5577
46332W        W55132  13.625   5.567   9.966 -0.2562 -0.0993 -0.0463
46333W        W55133   4.548   1.361  17.586  0.2854 -0.2756  0.0057
46334W        W55134   6.059   4.331  25.181  0.2967  0.0309  0.1236
46335W        W55135  28.801   4.905  10.683 -0.1400 -0.0857 -0.2822
46336W        W55136  26.589   3.878   5.901 -0.2254 -0.2274  0.0733
46337W        W55137   4.595   5.259   3.180 -0.0424 -0.0085  0.3314
46338W        W55138  23.096   7.285  22.977 -0.2670 -0.0518  0.0949
46339W        W55139   2.889   4.150  18.763 -0.2128 -0.1286 -0.1883
46340W        W55140  18.424   0.726   8.023  0.1896 -0.2377  0.0004
46341W        W55141  10.345   5.062   0.957 -0.1793 -0.0572  0.1232
46342W        W55142  14.056   1.821  11.450  0.0936 -0.0081 -0.0280
46343W        W55143  31.115   7.834  19.917 -0.0349  0.0489  0.1197
46344W        W55144   2.715   4.773  25.109 -0.0862 -0.2677 -0.0181
46345W        W55145  21.049   2.225  25.512 -0.0499 -0.2972 -0.2927
46346W        W55146   2.828   4.688   3.495  0.3596  0.0236  0.0849
46347W        W55147  23.437   7.527  20.459  0.1913 -0.1305 -0.3085
46348W        W55148  23.556   0.592  23.492 -0.0574  0.1255 -0.2319
46349W        W55149  16.591   2.496  18.456  0.0925 -0.1199  0.3298
46350W        W55150   5.140   7.135  21.523  0.0582  0.2336  0.0240
46351W        W55151  21.750   0.626  19.269  0.0233 -0.0526 -0.1463
46352W        W55152   8.465   6.389   6.396 -0.0808 -0.0717  0.0763
46353W        W55153  25.838   7.495   5.779 -0.1121 -0.5909  0.0457
46354W        W55154  27.653   7.080   9.259 -0.0026  0.1526 -0.1169
46355W        W55155  16.149   5.040   9.533  0.0338  0.1981 -0.0716
46356W        W55156   9.910   4.413  18.943 -0.0428 -0.0303  0.1504
46357W        W55157   8.195   3.747  23.896 -0.1804  0.1645 -0.1649
46358W        W55158  24.213   4.734  23.149 -0.3054  0.0139 -0.1590
46359W        W55159   9.527   6.381   8.072  0.1788  0.2139 -0.1171
46360W        W55160  14.466   5.047  10.297  0.1014 -0.0931 -0.1128
46361W        W55161  20.709   4.775   0.073  0.0107  0.2735 -0.1195
46362W        W55162  17.316   7.623  18.024  0.0782  0.0093  0.1176
46363W        W55163   3.272   6.345  10.091 -0.1479 -0.3582 -0.1081
46364W        W55164   7.671   3.153   2.103  0.3136  0.1764 -0.0150
46365W        W55165  26.557   6.024   0.268  0.1177 -0.1558  0.0830
46366W        W55166   6.270   5.902  10.617  0.1528 -0.0835 -0.3097
46367W        W55167  31.416   7.714   7.293  0.1550 -0.0751  0.2622
46368W        W55168  24.052   0.336  16.720 -0.2198  0.0549 -0.2276
46369W        W55169  25.686   6.239  17.134 -0.1226  0.1237 -0.2117
46370W        W55170  21.946   7.487   9.300  0.1100 -0.2052 -0.2356
46371W        W55171  15.590   6.814   9.203 -0.1432 -0.2189  0.1530
46372W        W55172  18.546   6.062   3.158  0.3336 -0.2011 -0.2103
46373W        W55173  15.945   4.709  21.245 -0.2138  0.3233 -0.0194
46374W        W55174  27.728   0.578   7.217  0.1454 -0.1750 -0.3023
46375W        W55175  20.327   4.819   1.782  0.1928 -0.0296 -0.1674
46376W        W55176  17.613   1.805  16.974  0.1140  0.2071  0.0420
46377W        W55177  11.444   2.553  25.146  0.0163 -0.0145 -0.2665
46378W        W55178  23.947   3.695   9.364 -0.0630 -0.0694  0.0154
46379W        W55179  19.609   4.556   8.136 -0.1521  0.0615 -0.2339
46380W        W55180  28.860   4.347  21.139  0.0167 -0.0622  0.1217
46381W        W55181  12.431   6.274  23.668  0.0572  0.1258 -0.1931
46382W        W55182  30.929   0.158   8.710 -0.3264  0.2103 -0.3653
46383W        W55183  10.335   0.343  23.072  0.4559  0.1125 -0.3654
46384W        W55184  29.746   6.205   5.079 -0.0941  0.0763 -0.0472
46385W        W55185  18.621   7.066  18.305  0.0011  0.0555 -0.1527
46386W        W55186   6.813   0.245  25.246  0.2737 -0.1001  0.0795
46387W        W55187   1.951   4.853  24.877  0.1279 -0.1368  0.2358
46388W        W55188   9.996   6.253  10.761  0.2595  0.2940 -0.0356
46389W        W55189   4.176   6.522   2.718 -0.2110  0.0375 -0.1168
46390W        W55190  11.015   3.555  19.424  0.0167  0.3459 -0.1116
46391W        W55191  15.432   6.785  15.746  0.0945 -0.2415  0.1845
46392W        W55192   8.414   7.755  15.630  0.3164  0.0414  0.0967
46393W        W55193  26.291   5.439  22.308  0.0779 -0.0085  0.1370
46394W        W55194  23.329   7.440  11.313 -0.1022 -0.1316  0.0141
46395W        W55195   8.422   6.011   8.115  0.1189  0.0160  0.0762
46396W        W55196  16.407   5.618  15.963 -0.1506  0.0329  0.1212
46397W        W55197   1.146   2.973  23.375 -0.3235 -0.1312 -0.0093
46398W        W55198  21.635   2.727   2.977 -0.0646  0.2879  0.1456
46399W        W55199   7.359   6.616  17.119  0.1539  0.0285  0.1279
46400W        W55200   6.245   6.784  21.733  0.0262 -0.0668  0.2555
46401W        W55201  29.449   3.139   2.476  0.4132 -0.3908 -0.0746
46402W        W55202  10.868   0.934   6.490  0.0701 -0.3473  0.1646
46403W        W55203  18.319   1.449  15.897 -0.3380  0.0591  0.1446
46404W        W55204  23.041   0.626  23.634  0.1425  0.3078  0.0412
46405W        W55205  26.746   6.521  17.310 -0.1472 -0.0627  0.0823
46406W        W55206  19.475   3.776  17.397  0.1695  0.0704 -0.0760
46407W        W55207   9.291   7.222  16.428 -0.0198 -0.0399 -0.2466
46408W        W55208   3.976   2.705  17.938 -0.3766  0.0718 -0.0725
46409W        W55209  13.430   7.637  11.376  0.0582 -0.1376  0.0147
46410W        W55210  22.226   2.565  23.884  0.1113 -0.1558 -0.0293
46411W        W55211   1.267   3.265   6.024 -0.1196 -0.0629 -0.1414
46412W        W55212  27.997   6.547  22.972  0.0288  0.3572  0.0298
46413W        W55213  12.897   6.562  22.901 -0.0040 -0.0548 -0.2014
46414W        W55214  28.665   1.167   8.763  0.1855  0.1756 -0.3582
46415W        W55215   7.544   6.975   5.902  0.1676  0.0428 -0.0225
46416W        W55216  11.216   6.612  18.357  0.0522 -0.0852 -0.0194
46417W        W55217  10.377   0.288   7.244  0.0055 -0.0290 -0.0806
46418W        W55218  18.211   3.045  25.977 -0.0118 -0.0758  0.1906
46419W        W55219  24.339   6.025   7.517 -0.1791 -0.2115  0.0128
46420W        W55220  13.866   0.322  16.600 -0.0681 -0.1368 -0.0643
46421W        W55221   4.968   0.396  16.570 -0.0880  0.3973 -0.1639
46422W        W55222   6.984   6.929   3.995 -0.2848 -0.1244  0.0434
46423W        W55223  30.287   1.956  15.896 -0.1088  0.0615 -0.1150
46424W        W55224  27.005   4.116  23.696 -0.1009  0.4676  0.3061
46425W        W55225  12.117   2.865  22.055 -0.0943 -0.1673 -0.1719
46426W        W55226  19.277   5.784   3.449 -0.1809 -0.4393 -0.0895
46427W        W55227   1.859   4.366   0.953  0.0326  0.0696 -0.1561
46428W        W55228   3.379   2.374  22.153 -0.0612  0.0677 -0.1812
46429W        W55229  11.328   0.390   1.551  0.0288  0.1279  0.1291
46430W        W55230   6.115   3.321   1.274  0.0820 -0.2074  0.0389
46431W        W55231  29.685   3.667  20.382  0.1491  0.0673 -0.0448
46432W        W55232   2.798   2.823   5.128  0.0166 -0.0326  0.1646
46433W        W55233  17.934   0.120   3.957  0.4410  0.1243 -0.0961
46434W        W55234   5.166   0.001  16.351  0.2756 -0.0963  0.0107
46435W        W55235  24.957   1.157  16.439  0.2450 -0.1852  0.0571
46436W        W55236  13.809   5.087  22.381  0.3069  0.1463  0.1317
46437W        W55237  20.566   1.339  21.534  0.1506 -0.1201  0.1091
46438W        W55238   2.415   5.035  21.848  0.0280  0.1854 -0.1035
46439W        W55239   3.333   0.332  19.183 -0.0491  0.2230 -0.0126
46440W        W55240  27.111   4.577   6.826  0.0682 -0.1204  0.0756
46441W        W55241  15.451   4.724   3.664  0.0523  0.0841  0.3020
46442W        W55242  15.580   3.561  15.378  0.2595 -0.0970 -0.4526
46443W        W55243  13.763   1.411   4.343  0.2519 -0.2748  0.1502
46444W        W55244  20.830   6.539  19.815  0.0426  0.2020 -0.0935
46445W        W55245  15.773   7.318   9.420  0.1137  0.0365  0.0681
46446W        W55246  22.435   7.274   3.750  0.1143  0.1796 -0.0660
46447W        W55247  16.487   6.381  17.156  0.0778  0.1208  0.2734
46448W        W55248  12.837   4.234   9.772 -0.2365  0.0287 -0.1337
46449W        W55249   2.361   6.831   0.692  0.0485  0.1483  0.0360
46450W        W55250  18.329   0.522   0.486  0.0905  0.1752  0.2198
46451W        W55251  24.719   6.296  24.473  0.1708 -0.5816 -0.2600
46452W        W55252  18.464   5.959  21.957  0.1087 -0.4334  0.1296
46453W        W55253  23.609   6.559  21.855 -0.0727  0.3511  0.0845
46454W        W55254  20.604   5.287  18.676  0.3190  0.2224 -0.1059
46455W        W55255  16.159   3.138   5.521  0.0083 -0.1458  0.1193
46456W        W55256   4.614   7.148  16.404  0.2023 -0.0487  0.0663
46457W        W55257   6.393   0.404   9.893  0.1541  0.3942 -0.0494
46458W        W55258  24.908   3.799   8.232 -0.0003  0.1013  0.0823
46459W        W55259  13.452   4.939   7.165 -0.0624 -0.1297  0.0949
46460W        W55260  28.377   7.685   3.764  0.2597  0.0120 -0.1367
46461W        W55261  11.954   6.944   4.735  0.1355 -0.0135 -0.0685
46462W        W55262  10.439   2.596  19.679  0.1633 -0.0334  0.0090
46463W        W55263  22.018   7.384   6.284  0.0908 -0.1363  0.0420
46464W        W55264  13.254   3.371  19.134 -0.1899 -0.2249 -0.0201
46465W        W55265  15.675   2.432  20.143 -0.0967 -0.0289 -0.0467
46466W        W55266   3.389   1.800   5.824  0.4809  0.0630  0.0103
46467W        W55267  12.275   3.199  22.879 -0.1476  0.1895 -0.0207
46468W        W55268  28.007   2.547  22.658  0.0033 -0.1225 -0.0191
46469W        W55269   3.253   2.862   7.168  0.2826 -0.1411 -0.0358
46470W        W55270   2.443   7.246   2.271 -0.0609  0.0459  0.0391
46471W        W55271   7.272   2.668  18.138  0.2138 -0.0742  0.3230
46472W        W55272   3.105   2.275  14.691  0.1717 -0.1655 -0.1835
46473W        W55273  15.829   7.067  14.951 -0.1818 -0.0376 -0.0044
46474W        W55274   9.047   7.447  19.627 -0.3372 -0.0984 -0.1431
46475W        W55275  30.430   1.271  23.573 -0.0771  0.1252 -0.3996
46476W        W55276  15.931   0.493   7.267  0.2708 -0.1012  0.1038
46477W        W55277   2.687   5.944  21.690  0.3672 -0.1028  0.2807
46478W        W55278  30.111   7.200   7.246 -0.0676 -0.2068 -0.6979
46479W        W55279  20.011   0.625   5.812  0.0628  0.1127 -0.1306
46480W        W55280   8.443   1.004  16.217 -0.1948  0.1963 -0.2973
46481W        W55281  26.927   6.887  26.027  0.0305 -0.2249  0.1882
46482W        W55282   9.767   2.311  21.946 -0.1584  0.0508  0.1363
46483W        W55283   9.451   3.339  17.787  0.3396 -0.0928  0.0797
46484W        W55284  12.351   6.278   7.232 -0.0877  0.1191 -0.3900
46485W        W55285  21.898   1.734  18.671  0.2030 -0.1153  0.0807
46486W        W55286  31.266   5.599   6.596  0.1921 -0.1014  0.0801
46487W        W55287   7.469   1.492  24.256 -0.1228 -0.0283  0.0187
46488W        W55288   4.462   4.777   4.524 -0.0254  0.0536 -0.0153
46489W        W55289  26.736   1.385  23.731 -0.0649 -0.3343  0.0476
46490W        W55290  11.467   7.526   7.396  0.2027 -0.1598 -0.0223
46491W        W55291  15.356   4.183  19.551 -0.0936  0.2104 -0.1434
46492W        W55292   3.623   1.248   7.797 -0.0886  0.0024  0.0625
46493W        W55293   6.377   5.133   6.105  0.1333  0.2046 -0.2011
46494W        W55294  26.388   2.228   5.548  0.0763 -0.3140 -0.0596
46495W        W55295   4.927   1.641  19.966 -0.0679  0.2100  0.0553
46496W        W55296  20.390   5.311  24.930  0.1563 -0.1305 -0.0021
46497W        W55297  28.742   0.910  21.128  0.1106  0.2730 -0.0041
46498W        W55298   2.023   4.281  20.523 -0.3474 -0.0774  0.3223
46499W        W55299  19.967   7.349   3.042  0.3732  0.1271 -0.0826
46500W        W55300   1.907   0.377  21.833 -0.2986 -0.1490  0.1469
46501W        W55301  17.830   6.242   5.645 -0.6046 -0.1595  0.0067
46502W        W55302  17.007   0.657  19.468 -0.3532 -0.0797 -0.0368
46503W        W55303  19.998   1.576  20.906 -0.0719  0.1192  0.2392
46504W        W55304  18.786   0.274   3.038 -0.0154 -0.0141  0.0513
46505W        W55305   9.970   0.974   3.183 -0.0386  0.1569 -0.0454
46506W        W55306  24.366   3.714  18.790 -0.1828  0.0057  0.1911
46507W        W55307   8.689   6.286   2.761 -0.0726 -0.0530  0.3290
46508W        W55308   9.433   6.091  19.047  0.1492  0.0779 -0.0043
46509W        W55309  27.532   5.230  10.510 -0.1866  0.0125 -0.1027
46510W        W55310  25.370   6.725   7.372  0.1697 -0.0777  0.4114
46511W        W55311   8.806   0.079   7.437 -0.3384  0.0832 -0.0810
46512W        W55312  31.041   6.207  19.130 -0.0535 -0.1373  0.1257
46513W        W55313  26.942   6.688   7.175  0.0681  0.2572  0.2437
46514W        W55314   9.239   7.748   0.731  0.0769 -0.0999 -0.1333
46515W        W55315  11.905   6.779  21.948 -0.4239  0.1287  0.0474
46516W        W55316  19.070   4.515  24.373 -0.0465  0.1776  0.1746
46517W        W55317  17.340   0.220   9.113 -0.0234  0.1860 -0.2023
46518W        W55318  15.922   6.320  11.078 -0.0749 -0.0415  0.1148
46519W        W55319  11.319   6.074  10.290 -0.3350 -0.2891 -0.2715
46520W        W55320  14.876   5.682   1.792 -0.0934 -0.1310  0.0527
46521W        W55321   0.830   7.561   7.569  0.0035 -0.0442  0.2606
46522W        W55322  16.409   6.875  10.244  0.1188  0.4578  0.3592
46523W        W55323  11.188   7.612  20.557  0.2606  0.2344  0.0153
46524W        W55324  23.277   2.768  15.077  0.3250  0.1972 -0.2893
46525W        W55325  23.112   3.014   8.301  0.2937 -0.1655 -0.1262
46526W        W55326  18.003   3.496  25.961 -0.2305  0.0152  0.1253
46527W        W55327   4.314   1.602  22.138  0.0916  0.0145 -0.2185
46528W        W55328   2.028   5.099  15.269 -0.0004 -0.0105  0.1548
46529W        W55329   7.414   2.306   8.853 -0.1277  0.1115  0.1187
46530W        W55330   1.654   3.446  26.033  0.0856  0.0035  0.0154
46531W        W55331  23.000   0.747   8.896 -0.3583  0.3886 -0.2236
46532W        W55332  23.401   7.293  18.337 -0.1867  0.0569 -0.0242
46533W        W55333   3.093   4.373  16.407  0.0675 -0.1755  0.1213
46534W        W55334  15.532   7.180   5.353  0.0681  0.1353 -0.0149
46535W        W55335  15.492   6.479   8.842 -0.3613 -0.0625  0.2400
46536W        W55336  23.106   6.966  19.640  0.0376 -0.0341 -0.1541
46537W        W55337  24.382   0.883   8.118 -0.1469  0.0004  0.1848
46538W        W55338   7.664   1.131  24.520  0.2564 -0.1177  0.1250
46539W        W55339  24.927   6.230   9.199 -0.0441  0.1006 -0.1748
46540W        W55340  23.710   7.113   6.792 -0.2212 -0.1228 -0.0768
46541W        W55341   0.687   1.443  14.041 -0.1203  0.0668 -0.0245
46542W        W55342   7.642   7.858  18.048 -0.2366 -0.1139  0.0014
46543W        W55343  31.130   3.910   0.512  0.1543 -0.2312  0.1041
46544W        W55344  28.314   6.903  16.153  0.0036  0.0164 -0.0389
46545W        W55345  16.349   4.878  17.528 -0.0863 -0.0972 -0.0163
46546W        W55346   1.986   5.655  16.011 -0.1039 -0.0855  0.1979
46547W        W55347   7.271   6.671   3.047  0.0011  0.3959 -0.1811
46548W        W55348   5.607   6.182   8.066 -0.0015  0.0846 -0.1038
46549W        W55349  26.612   3.167  21.244  0.2769 -0.0739 -0.1499
46550W        W55350  26.753   0.942   3.093 -0.1451  0.2133 -0.0339
46551W        W55351  23.492   4.723  11.200  0.1823 -0.0031 -0.1478
46552W        W55352  30.357   5.445  25.942  0.3126 -0.0932 -0.0545
46553W        W55353  14.741   0.822   9.190  0.1292 -0.0744  0.0380
46554W        W55354  20.733   3.150  21.784  0.0847  0.0618  0.2397
46555W        W55355  24.261   3.319  21.463  0.3515  0.2092 -0.1377
46556W        W55356  17.883   2.311   7.922 -0.2939 -0.0907  0.0116
46557W        W55357  30.371   0.624  19.672 -0.1409  0.0406 -0.1584
46558W        W55358  29.305   1.422   3.739 -0.1613  0.0882 -0.1239
46559W        W55359  17.774   2.520   8.823 -0.1229 -0.2918 -0.1989
46560W        W55360  30.212   3.859  19.231 -0.2776 -0.0960 -0.1289
46561W        W55361  31.109   5.461   3.342  0.1575 -0.0573 -0.2403
46562W        W55362  30.245   3.479  20.434 -0.0318 -0.0483 -0.1981
46563W        W55363  16.738   1.982   2.907  0.0339 -0.0799  0.0882
46564W        W55364  10.878   0.487  19.633 -0.2213  0.0923  0.0966
46565W        W55365  24.077   1.609   4.147  0.0618 -0.0001 -0.0655
46566W        W55366   5.707   1.849   4.254 -0.1803 -0.5040 -0.0516
46567W        W55367  21.649   4.243  20.566  0.1509 -0.3243 -0.1375
46568W        W55368  14.458   6.924  25.940 -0.1056  0.1613 -0.0302
46569W        W55369  30.516   4.222  23.022 -0.1505  0.1008 -0.0671
46570W        W55370  28.514   4.542   4.856 -0.0881 -0.0460 -0.1189
46571W        W55371  24.901   7.789   8.767  0.1155  0.0302 -0.2140
46572W        W55372  26.349   4.310   0.030  0.0165 -0.0337 -0.3163
46573W        W55373  30.976   4.850  25.523  0.0274  0.1468 -0.0232
46574W        W55374  30.687   5.003   6.810 -0.1795  0.0889 -0.1813
46575W        W55375  27.635   0.905  19.832 -0.1153 -0.0220 -0.0573
46576W        W55376  10.712   3.282   8.548 -0.0160  0.0357 -0.0087
46577W        W55377   7.866   3.448  15.141 -0.1332  0.0664  0.1708
46578W        W55378  12.556   3.255   9.186  0.1693 -0.1173 -0.0262
46579W        W55379   9.361   0.535   4.632 -0.0235  0.0612  0.1827
46580W        W55380   3.713   0.780  19.355 -0.0556  0.0921  0.0809
46581W        W55381  13.491   7.556   2.599  0.3232 -0.0859 -0.1063
46582W        W55382   8.120   2.848  17.769  0.0005 -0.1510  0.1778
46583W        W55383   2.489   0.294   7.027 -0.2323  0.2489  0.0731
46584W        W55384  27.814   3.975  16.705 -0.1802  0.1382  0.2839
46585W        W55385  22.673   7.449   3.157  0.1895  0.1119  0.1390
46586W        W55386  18.237   1.761  10.379  0.2780 -0.2591  0.1800
46587W        W55387   5.139   0.732  24.902 -0.0873  0.0375 -0.0582
46588W        W55388  24.330   1.916  25.201  0.2511  0.0609  0.3261
46589W        W55389   9.777   4.413  18.470 -0.0998  0.0266 -0.2306
46590W        W55390  18.271   4.885  19.220  0.2140 -0.0928 -0.2024
46591W        W55391  26.209   6.274   6.104 -0.3951 -0.2790  0.1538
46592W        W55392  31.003   0.483  17.906 -0.1986 -0.1157 -0.0730
46593W        W55393   8.807   4.905  22.340 -0.0905  0.2841 -0.0526
46594W        W55394  14.964   4.323  17.115 -0.0358  0.1267 -0.3095
46595W        W55395  24.501   2.793  21.433 -0.0590 -0.0294  0.1944
46596W        W55396  27.517   3.464  20.047 -0.0328 -0.1973 -0.1794
46597W        W55397  24.464   2.337   2.493 -0.2518  0.0965 -0.0238
46598W        W55398   2.279   5.692  17.131 -0.2708  0.0418  0.1521
46599W        W55399  24.806   3.311   8.873 -0.0103 -0.0105 -0.1618
46600W        W55400  18.928   2.181  21.533 -0.0193  0.2008 -0.2153
46601W        W55401  18.264   6.110   6.916 -0.2949 -0.1595  0.0747
46602W        W55402  19.025   5.633   6.583  0.1541 -0.2192  0.0701
46603W        W55403  18.156   2.841   2.135  0.0544  0.1364  0.0937
46604W        W55404  23.111   3.548  15.073 -0.0288  0.1707 -0.2328
46605W        W55405  15.823   5.699  22.018 -0.1000 -0.2119 -0.3215
46606W        W55406  23.441   4.202  23.320  0.2227  0.1044 -0.0391
46607W        W55407   8.496   1.517  10.776  0.1733 -0.1232 -0.2865
46608W        W55408  24.385   5.698  10.263 -0.0692 -0.0915  0.2440
46609W        W55409  27.458   2.558  20.148 -0.0158 -0.0111  0.0110
46610W        W55410   0.978   2.678   9.710  0.2225 -0.1220 -0.0238
46611W        W55411  28.591   1.182  15.674 -0.1738  0.0197 -0.0008
46612W        W55412  15.616   0.588  18.231  0.1016 -0.0177  0.3027
46613W        W55413  12.940   4.038   8.852 -0.1977 -0.0905 -0.0044
46614W        W55414  27.913   6.855  24.649 -0.0482  0.0951 -0.3196
46615W        W55415   2.844   0.967  21.065  0.0222  0.2061 -0.0858
46616W        W55416  31.250   1.738  18.035 -0.1059  0.1037  0.0167
46617W        W55417  17.000   0.111   3.251  0.0398 -0.0008 -0.1611
46618W        W55418  20.467   5.869  23.252  0.0968  0.1894  0.0889
46619W        W55419  16.388   4.635   2.382  0.1171 -0.1431 -0.1279
46620W        W55420  19.916   7.616  25.940  0.0238  0.1366  0.1349
46621W        W55421  23.010   1.266  21.067 -0.0565 -0.2022  0.1577
46622W        W55422   3.488   6.424   5.871 -0.2139  0.1040 -0.0851
46623W        W55423  11.942   7.582  10.245 -0.3428 -0.1873  0.2568
46624W        W55424   6.968   5.912   1.937  0.0176  0.2927  0.1871
46625W        W55425   8.266   7.697   0.463 -0.2887  0.1180  0.0649
46626W        W55426  21.913   5.667   0.338  0.0746 -0.1895  0.0112
46627W        W55427  30.867   4.841   7.253 -0.0719 -0.2377  0.1734
46628W        W55428  26.067   0.481   2.689  0.1207 -0.2214 -0.3094
46629W        W55429  17.529   7.662   9.400 -0.1141  0.0560  0.0234
46630W        W55430  23.218   1.495   7.112  0.0012 -0.1258  0.0032
46631W        W55431  29.504   0.013   0.245 -0.2552  0.0581 -0.4317
46632W        W55432  27.109   4.357   1.560  0.1969 -0.0865 -0.0947
46633W        W55433  23.648   1.583   0.116  0.2192  0.2513 -0.0342
46634W        W55434   3.082   0.604  18.763 -0.0864 -0.3589  0.0891
46635W        W55435  21.524   0.933   2.136 -0.2481 -0.0861  0.0611
46636W        W55436  19.834   5.119   4.500  0.2372 -0.0428 -0.0535
46637W        W55437  23.141   3.709   5.448  0.5532 -0.0942  0.2588
46638W        W55438  23.677   0.142  23.716  0.0716  0.0042 -0.0606
46639W        W55439  24.539   4.337  21.473 -0.2106  0.0327 -0.2179
46640W        W55440  12.174   4.527  18.360 -0.0530 -0.2917 -0.0404
46641W        W55441  20.937   4.892  19.177  0.0679  0.0634  0.0851
46642W        W55442   9.094   4.593   4.437  0.0876  0.2230  0.0270
46643W        W55443  10.121   2.168  19.740  0.0859  0.2061 -0.2842
46644W        W55444  30.306   6.522  18.708  0.1733 -0.2312  0.4026
46645W        W55445  12.822   4.817   1.864 -0.1014  0.1763  0.0342
46646W        W55446  19.175   4.014  24.341  0.3447 -0.1086  0.0140
46647W        W55447  24.263   3.739  21.130  0.0448  0.1117  0.3099
46648W        W55448  11.505   1.951  25.170 -0.0066 -0.1820 -0.0743
46649W        W55449  18.923   3.797  19.622 -0.0147 -0.1173 -0.0233
46650W        W55450   3.990   3.598  10.224 -0.0563  0.2113 -0.0207
46651W        W55451   8.742   4.768  24.988 -0.1340 -0.0449 -0.0405
46652W        W55452  22.487   6.663  19.340 -0.2487 -0.1846  0.1591
46653W        W55453  17.089   1.021   2.895 -0.2026 -0.1010 -0.2882
46654W        W55454  25.696   5.383  18.795 -0.0344  0.0314  0.0177
46655W        W55455   9.518   7.513   4.287 -0.0486  0.2065 -0.3186
46656W        W55456  15.777   5.214  21.369  0.1200  0.0337 -0.0808
46657W        W55457  16.514   2.687  16.217 -0.2946 -0.0363 -0.4556
46658W        W55458   8.963   0.971  21.273  0.1343  0.2375 -0.0127
46659W        W55459  17.922   2.544  10.603 -0.3173  0.0552  0.1483
46660W        W55460  31.005   4.268  15.308  0.6665  0.0293  0.0657
46661W        W55461  17.968   3.433   4.543 -0.1076 -0.2674 -0.1693
46662W        W55462   8.002   0.266  24.535 -0.0664  0.0916 -0.1963
46663W        W55463  20.845   4.765   5.250  0.3502 -0.0265 -0.2189
46664W        W55464  13.762   3.848  20.470  0.4615  0.2116  0.2906
46665W        W55465  16.428   0.588   3.596 -0.1994  0.4124  0.2488
46666W        W55466   1.576   4.154   9.973 -0.4630  0.0118  0.0027
46667W        W55467  12.377   7.159   8.564  0.0222  0.3093  0.1882
46668W        W55468  17.212   5.872  19.830  0.1837  0.1450  0.4247
46669W        W55469  30.489   7.027   3.547  0.1484  0.0299 -0.1802
46670W        W55470  29.931   2.779   4.985  0.1092  0.2435  0.2790
46671W        W55471   9.848   7.784   6.205 -0.2527 -0.1625  0.0203
46672W        W55472   7.011   2.523  10.016 -0.1568  0.1021 -0.1084
46673W        W55473  11.483   7.588  19.324  0.0964  0.0014  0.0830
46674W        W55474  16.694   0.247  24.134  0.2429  0.1126  0.0268
46675W        W55475   0.686   7.393   6.861  0.0677  0.0276 -0.2515
46676W        W55476   7.500   6.701   9.042 -0.0233  0.1008  0.2498
46677W        W55477  10.454   4.184  15.912 -0.1269 -0.3864 -0.0321
46678W        W55478   6.072   6.746   1.698  0.1474  0.0474  0.3525
46679W        W55479  14.035   4.066  16.124 -0.0468  0.1347 -0.1169
46680W        W55480  30.687   5.208   1.247 -0.0847 -0.0166  0.2239
46681W        W55481   7.466   1.536  17.577 -0.2112 -0.2807 -0.1372
46682W        W55482   8.402   4.169  18.438  0.2740  0.0898 -0.0240
46683W        W55483   9.986   6.440  16.160  0.2067 -0.1009  0.0599
46684W        W55484   4.472   7.648  19.168 -0.1418  0.1245 -0.2578
46685W        W55485  23.005   7.680   0.732  0.2118  0.1623 -0.2123
46686W        W55486  20.546   2.197   3.695  0.1815 -0.0131  0.1235
46687W        W55487  18.039   5.901  19.473 -0.0050 -0.1584  0.2174
46688W        W55488  15.509   4.483   0.157 -0.0332 -0.1585  0.1340
46689W        W55489  28.931   7.640  16.219  0.1556  0.0056 -0.0556
46690W        W55490  24.565   1.614  10.140  0.1159 -0.0235 -0.2781
46691W        W55491  29.993   1.405  23.936  0.1333  0.0413 -0.3321
46692W        W55492  16.305   4.897  20.657  0.2787 -0.1132  0.1540
46693W        W55493  26.044   2.167   6.365 -0.1352  0.1545  0.0691
46694W        W55494  15.778   5.698  18.707  0.0173  0.3942 -0.0910
46695W        W55495   5.485   1.370  25.843 -0.0988  0.0501  0.0612
46696W        W55496  31.181   4.465  18.802 -0.0352  0.0040  0.1367
46697W        W55497   4.653   5.965   8.651  0.0324 -0.0325 -0.1913
46698W        W55498  18.879   6.331   7.165  0.1373 -0.0220  0.0854
46699W        W55499   3.423   3.466  21.201  0.1143 -0.0636 -0.3470
46700W        W55500  10.987   2.959   8.356  0.3500  0.3258  0.2463
46701W        W55501  20.533   0.929   4.159 -0.0046  0.2568 -0.3068
46702W        W55502  26.495   2.331  21.206 -0.1585  0.0081  0.0128
46703W        W55503   5.625   0.315  16.318 -0.0907 -0.2150 -0.2038
46704W        W55504  26.161   1.655   3.658 -0.1787  0.0487 -0.1715
46705W        W55505  10.301   0.097  16.930 -0.0577  0.2009 -0.1440
46706W        W55506   6.020   6.238   4.447  0.0331 -0.1546 -0.0055
46707W        W55507  15.347   3.861  22.593 -0.1272  0.0398  0.0753
46708W        W55508  21.609   4.980   9.262  0.0193  0.2845  0.1238
46709W        W55509  23.742   6.197  23.552 -0.4371 -0.0758 -0.0236
46710W        W55510   2.175   6.420   8.033 -0.2987  0.1947  0.1710
46711W        W55511  12.578   3.186   2.697  0.1740 -0.1496  0.2014
46712W        W55512  15.886   2.347   5.977  0.0240  0.3330 -0.2760
46713W        W55513   4.251   7.815  15.008 -0.3524 -0.0808  0.0807
46714W        W55514  29.087   1.067   2.942 -0.1201 -0.0173  0.2782
46715W        W55515  29.773   1.106  22.377  0.1626 -0.0798  0.0484
46716W        W55516  30.595   1.847  25.393 -0.0414  0.0271 -0.3366
46717W        W55517   9.248   3.356   8.383 -0.1863 -0.0923  0.1970
46718W        W55518  28.774   0.318   9.995 -0.0371  0.0341 -0.2523
46719W        W55519   7.268   6.210  16.884 -0.0538 -0.0177 -0.0890
46720W        W55520  12.146   1.199   5.530 -0.1054 -0.2478 -0.0278
46721W        W55521   2.333   4.115   7.644 -0.1740 -0.1921 -0.4024
46722W        W55522  18.068   5.486  20.705 -0.0228 -0.0684  0.1570
46723W        W55523  10.137   0.536  21.728  0.2008 -0.1456 -0.1900
46724W        W55524   1.305   1.857   4.638 -0.1170  0.0704  0.1159
46725W        W55525  17.910   4.340   0.179  0.1858 -0.0780 -0.3185
46726W        W55526  24.211   6.201  15.531 -0.2828 -0.2497  0.3203
46727W        W55527   6.651   2.985   0.480 -0.1792 -0.0068 -0.1351
46728W        W55528   3.886   6.009   0.839  0.2734  0.0056 -0.4364
46729W        W55529  16.480   2.014  20.367  0.1487 -0.0118 -0.2613
46730W        W55530   4.788   0.651   6.874  0.0802 -0.2520  0.0749
46731W        W55531   6.205   0.907  19.230 -0.0996 -0.0995 -0.1054
46732W        W55532   4.824   7.103  15.390  0.3240 -0.2900 -0.1748
46733W        W55533  16.073   0.232   9.999 -0.3995 -0.3532 -0.1180
46734W        W55534  31.293   0.375  19.714 -0.2317  0.1702 -0.0806
46735W        W55535   6.569   4.315   9.759 -0.0043  0.3173 -0.0285
46736W        W55536   8.500   0.542   7.194  0.1012 -0.0135  0.0210
46737W        W55537  16.591   0.650   1.195  0.0060  0.1828 -0.0371
46738W        W55538   4.680   4.092   2.009 -0.2400  0.2002  0.1297
46739W        W55539  10.650   4.275  18.599 -0.4215 -0.2674 -0.0280
46740W        W55540  29.862   6.619   1.161 -0.0815  0.0896  0.4389
46741W        W55541  31.092   7.142  25.993 -0.1013 -0.0599  0.0988
46742W        W55542  11.499   1.274  18.506 -0.1611 -0.2040 -0.1663
46743W        W55543  14.689   5.341  15.476  0.0344  0.1547  0.1602
46744W        W55544  20.439   6.521  25.444 -0.0763  0.3863 -0.1468
46745W        W55545  17.220   0.968   6.902  0.1976 -0.1005 -0.0468
46746W        W55546  28.746   3.356   5.639 -0.0173  0.1595 -0.2253
46747W        W55547  13.475   5.775   5.103 -0.1219  0.0875 -0.1498
46748W        W55548  13.581   3.153  17.193 -0.2836 -0.0993  0.1154
46749W        W55549  21.744   7.721   3.357 -0.1462  0.1694  0.1153
46750W        W55550   1.962   3.497  18.169  0.0902  0.1788 -0.2049
46751W        W55551  15.217   6.557   7.376 -0.5096  0.1080  0.3206
46752W        W55552  23.643   1.424   3.893 -0.2715 -0.0636  0.1742
46753W        W55553  14.984   1.524   1.627 -0.0233  0.1603  0.1780
46754W        W55554  27.233   1.346  23.217 -0.0759 -0.0823 -0.0604
46755W        W55555  15.064   3.002   7.982 -0.0103  0.0588 -0.0939
46756W        W55556   0.949   4.358  23.969  0.1771  0.1319 -0.1612
46757W        W55557  18.304   6.909  24.839  0.0261 -0.0203  0.0592
46758W        W55558  18.611   0.380   8.831 -0.1270  0.0092  0.2757
46759W        W55559   2.044   3.845   9.961  0.1111  0.1385 -0.1769
46760W        W55560  21.575   2.944  16.512  0.2246  0.0082  0.0498
46761W        W55561   4.241   6.529   5.601  0.0371  0.0018  0.1300
46762W        W55562  18.299   6.749  18.833  0.0145  0.3133 -0.0486
46763W        W55563  24.699   6.210   0.794 -0.0721  0.0361 -0.2169
46764W        W55564  26.793   5.194   3.240  0.3284  0.5292 -0.1508
46765W        W55565  21.270   7.778  24.262  0.0110  0.1948  0.0442
46766W        W55566  21.740   3.108   6.444 -0.3126  0.4435  0.1276
46767W        W55567  30.073   3.941   2.919 -0.0366  0.1251  0.0686
46768W        W55568   5.545   6.332   2.008  0.1514  0.1521  0.2530
46769W        W55569   3.833   5.772   5.179 -0.0340 -0.2470  0.2471
46770W        W55570  17.612   4.260  20.786  0.2731  0.0528 -0.0019
46771W        W55571  17.881   0.960   9.172  0.3729 -0.1229  0.0364
46772W        W55572  26.023   1.246   3.409  0.2023  0.0038 -0.0256
46773W        W55573   6.810   2.302   5.234  0.1197 -0.2032  0.2595
46774W        W55574  16.606   5.753  15.434  0.0446  0.2915 -0.0151
46775W        W55575   9.997   6.683  17.350  0.2223 -0.0768  0.1553
46776W        W55576   2.893   3.362   9.682  0.0887 -0.0058 -0.0634
46777W        W55577  13.542   1.542   5.161 -0.1184 -0.1915 -0.2875
46778W        W55578  22.137   4.209   1.623  0.0736 -0.0056  0.0741
46779W        W55579  13.118   4.211  11.772  0.1590 -0.0364 -0.2526
46780W        W55580  28.701   4.843  15.798  0.0152 -0.2432  0.1026
46781W        W55581  29.859   6.907   9.583  0.0708 -0.0390  0.0431
46782W        W55582   3.136   3.227  20.377  0.1009 -0.0075 -0.1122
46783W        W55583   9.924   6.537  16.759 -0.1146 -0.1054 -0.2216
46784W        W55584  17.282   3.355  19.988 -0.2375 -0.0917 -0.2377
46785W        W55585  28.261   7.641   2.836  0.0963  0.1231 -0.1921
46786W        W55586  14.966   4.215   9.402 -0.1473  0.1895 -0.0400
46787W        W55587   9.241   2.207  21.932 -0.0659 -0.0834 -0.0705
46788W        W55588   8.222   1.492   6.100 -0.1261  0.4021  0.2239
46789W        W55589  10.729   1.299  21.655 -0.1899 -0.0942 -0.0602
46790W        W55590  24.232   6.021   0.648  0.1928 -0.0950  0.0928
46791W        W55591  25.666   0.639  19.409  0.0244  0.0796  0.1306
46792W        W55592  28.043   7.458   1.351 -0.0960 -0.1856 -0.1929
46793W        W55593  23.677   2.119  15.937 -0.0723  0.0127 -0.1355
46794W        W55594  18.450   1.720  20.186  0.2620 -0.0692 -0.1527
46795W        W55595  11.628   6.933   6.099 -0.0958  0.1251  0.0012
46796W        W55596  28.078   6.515  22.195 -0.0061  0.0892  0.0330
46797W        W55597  23.850   3.723  17.895 -0.1573 -0.4636 -0.0199
46798W        W55598  23.642   4.292   7.203 -0.0494 -0.1970  0.2847
46799W        W55599  14.984   7.133   0.150 -0.2216 -0.2697 -0.2112
46800W        W55600  18.026   3.245  15.841  0.2100  0.0027  0.2652
46801W        W55601  16.359   1.441  22.111 -0.1395  0.2202  0.1184
46802W        W55602  15.628   5.314  23.356 -0.0581  0.2241  0.1506
46803W        W55603  16.633   2.558  24.075  0.0852 -0.0868  0.0909
46804W        W55604  10.313   6.028  14.831  0.1529  0.0350  0.0178
46805W        W55605  26.729   5.452  24.411 -0.1736 -0.0671  0.1280
46806W        W55606  20.917   6.354  25.798  0.1282  0.1248  0.1727
46807W        W55607  17.621   5.148   5.380 -0.2732  0.1154  0.1690
46808W        W55608   9.615   4.146  17.010 -0.5093  0.1532  0.1154
46809W        W55609  17.998   1.082  25.700 -0.1785 -0.1172  0.0109
46810W        W55610   5.684   7.035  23.548  0.0802  0.2864 -0.0796
46811W        W55611  30.370   5.499  18.875  0.0949 -0.1310 -0.2646
46812W        W55612  24.893   6.010   7.659  0.0750  0.2346 -0.2167
46813W        W55613  19.732   5.621  10.905 -0.1265  0.0250 -0.2980
46814W        W55614   6.055   7.296   5.430  0.2118 -0.2669 -0.1208
46815W        W55615  14.653   7.221   4.160 -0.1853 -0.0856  0.1148
46816W        W55616   5.640   7.526   3.804 -0.1867  0.1127 -0.0710
46817W        W55617   0.430   6.312   8.961 -0.0619  0.1666  0.0264
46818W        W55618  30.180   1.560  20.534 -0.2071 -0.2793 -0.5383
46819W        W55619   4.531   5.879  19.821 -0.0749 -0.0717  0.2940
46820W        W55620  25.265   4.957   2.985  0.3680 -0.0389  0.1768
46821W        W55621   2.393   4.670   8.306 -0.2313  0.2801  0.3548
46822W        W55622   9.173   0.121  19.391 -0.0403  0.1833 -0.0301
46823W        W55623  24.039   2.232  18.280 -0.1464 -0.0587  0.0692
46824W        W55624   8.518   7.077  16.074  0.1737 -0.1557 -0.3772
46825W        W55625  11.989   2.889  21.519  0.0952  0.0223  0.1685
46826W        W55626  26.289   4.530  21.128 -0.2739 -0.1104 -0.0727
46827W        W55627   8.333   0.108  19.725 -0.1110 -0.2827  0.4924
46828W        W55628  25.303   7.254   7.326 -0.0470  0.0066 -0.0788
46829W        W55629   3.670   2.224  14.638 -0.1676 -0.0395  0.1383
46830W        W55630   3.727   1.096  24.354  0.0896  0.0880  0.0350
46831W        W55631  22.980   3.300  21.393  0.0834 -0.1133  0.0175
46832W        W55632  14.764   3.434  24.809 -0.0933 -0.0897 -0.2598
46833W        W55633  22.441   5.314  23.333 -0.3353 -0.0227 -0.0134
46834W        W55634  26.701   3.637  10.690 -0.0533 -0.1528 -0.0011
46835W        W55635   8.421   2.202  21.705 -0.0346 -0.0189 -0.4989
46836W        W55636  30.906   1.189   2.869  0.1455 -0.1180  0.0218
46837W        W55637  18.493   5.554   8.655 -0.0833 -0.0287  0.1760
46838W        W55638  11.064   0.616   6.123  0.1422 -0.0621  0.3443
46839W        W55639   0.985   6.558   2.331 -0.1023  0.0302  0.1457
46840W        W55640  26.310   7.779   3.105  0.1134  0.1942  0.3506
46841W        W55641  16.770   1.568  22.975  0.1377 -0.0229 -0.2945
46842W        W55642   6.014   4.043  10.346 -0.0646 -0.2454 -0.3507
46843W        W55643   0.821   5.768  25.548 -0.0967  0.2529 -0.0596
46844W        W55644   1.955   6.729  22.807  0.0699  0.1952  0.1301
46845W        W55645  17.825   2.608  23.172  0.2041 -0.1753 -0.0614
46846W        W55646  23.686   5.455  24.830 -0.0785 -0.2022  0.0907
46847W        W55647  27.348   0.738  15.536  0.1154  0.1552  0.1658
46848W        W55648   6.425   4.226  19.166  0.1646  0.2714  0.0506
46849W        W55649  26.271   6.503  15.627 -0.1901 -0.4253 -0.1589
46850W        W55650  16.945   1.783   3.322 -0.0610  0.0078  0.1191
46851W        W55651  24.204   0.568   6.032  0.2037 -0.3688  0.0198
46852W        W55652  20.902   0.909  18.235  0.0960  0.2305  0.0115
46853W        W55653  18.213   6.581   0.288 -0.0485 -0.0597  0.2657
46854W        W55654  27.693   1.455  19.466 -0.0675  0.1886  0.4545
46855W        W55655  12.639   0.332  22.166 -0.1423  0.1903  0.0753
46856W        W55656  25.447   3.054  14.874  0.1179 -0.0526  0.2270
46857W        W55657  22.294   2.628   8.877  0.0616  0.1644 -0.0632
46858W        W55658  19.070   5.392  26.020 -0.4817  0.1634  0.0740
46859W        W55659  26.389   0.978  24.809  0.2937  0.2622 -0.0050
46860W        W55660   8.654   4.998   8.935  0.1022 -0.0353 -0.2668
46861W        W55661   3.081   7.208   7.041  0.3220 -0.2031  0.2546
46862W        W55662  26.906   7.542   4.831 -0.1649 -0.2377  0.0398
46863W        W55663  13.512   0.524   7.526  0.4662  0.0424  0.2393
46864W        W55664  12.415   6.683   2.675  0.0998 -0.1959  0.3909
46865W        W55665  27.064   1.952   3.262 -0.1439  0.0520  0.0079
46866W        W55666  27.226   5.525   8.465 -0.0631  0.4277 -0.0399
46867W        W55667   7.296   0.350   1.834  0.0386 -0.0423 -0.2611
46868W        W55668   5.390   4.447  10.551 -0.1673  0.1869  0.0068
46869W        W55669  11.176   3.823   9.464 -0.0997  0.3693  0.3571
46870W        W55670  18.090   2.134  19.996  0.0996  0.0757 -0.3320
46871W        W55671   0.873   3.021  15.129 -0.2336  0.0321  0.0677
46872W        W55672  11.401   7.363  22.036  0.0363 -0.2218 -0.1481
46873W        W55673   7.760   0.989  22.151 -0.1588  0.0274  0.0946
46874W        W55674  21.125   1.106  20.415  0.2692  0.3098  0.0793
46875W        W55675  15.751   7.838   8.799 -0.0771 -0.4489 -0.0896
46876W        W55676  12.461   7.765  17.655  0.0311 -0.1408  0.2297
46877W        W55677  20.772   2.518  18.113  0.2968 -0.0524  0.4204
46878W        W55678   5.673   0.025   8.088 -0.1473  0.1395 -0.2492
46879W        W55679  17.639   7.288  23.491  0.2816  0.0318 -0.2522
46880W        W55680   3.145   3.931  21.471  0.0777  0.1805 -0.2119
46881W        W55681  24.590   0.033  24.613  0.0747 -0.1238  0.2244
46882W        W55682  17.348   1.162  17.512 -0.0809  0.1381 -0.1071
46883W        W55683  17.198   0.510  23.900  0.1439  0.2681  0.3179
46884W        W55684  16.408   6.295   7.257  0.1349  0.0935 -0.0361
46885W        W55685   5.367   0.919  20.832  0.1501  0.2036 -0.1024
46886W        W55686  15.055   2.632  10.053  0.0140 -0.0689  0.0791
46887W        W55687   4.786   0.826   7.350  0.0759 -0.4132  0.0365
46888W        W55688   1.091   1.549   6.026 -0.1098  0.1904  0.0934
46889W        W55689   4.752   6.916  24.059  0.0077  0.1805  0.1036
46890W        W55690  18.473   2.796  22.071  0.0658  0.4758  0.4027
46891W        W55691  11.096   7.400  23.925 -0.0821 -0.2591  0.1470
46892W        W55692  15.263   4.099  25.849  0.2185 -0.0179 -0.3066
46893W        W55693   5.502   4.696  17.040  0.2896 -0.1296  0.1980
46894W        W55694   7.140   7.858  25.532 -0.1703 -0.0308  0.0192
46895W        W55695  11.112   3.570  24.472  0.0924  0.1920 -0.0697
46896W        W55696  14.108   7.491   9.467 -0.4927  0.2685 -0.1056
46897W        W55697  19.698   7.388   0.446 -0.0487 -0.0063  0.0411
46898W        W55698  18.034   2.039  19.507  0.0906 -0.2420 -0.1805
46899W        W55699  22.733   0.531  16.911 -0.0688 -0.1774 -0.0556
46900W        W55700   3.958   3.342  18.289  0.0312 -0.0438  0.1087
46901W        W55701  11.715   2.004   9.665 -0.1343  0.3412 -0.1458
46902W        W55702   7.086   3.911   9.155 -0.1366 -0.2303  0.0594
46903W        W55703  17.449   2.959  15.669 -0.1640 -0.1284  0.1024
46904W        W55704  15.630   5.817   0.115 -0.0435 -0.1628 -0.0278
46905W        W55705   4.156   0.849  18.832  0.1312  0.2662 -0.0202
46906W        W55706  28.165   3.294   7.976  0.2343 -0.3422  0.1865
46907W        W55707  11.314   0.228  19.268 -0.3238  0.1067 -0.0839
46908W        W55708   4.524   6.032   0.914  0.1560  0.1361 -0.0677
46909W        W55709   7.969   3.016   7.688  0.0328 -0.3137 -0.0906
46910W        W55710   9.342   3.240  10.124  0.2735  0.3124 -0.0690
46911W        W55711   1.537   2.831  17.563  0.4534 -0.0032 -0.1642
46912W        W55712  27.924   1.082   9.979  0.0481 -0.1790  0.1404
46913W        W55713  15.698   4.315  15.546  0.1235 -0.3468  0.2383
46914W        W55714  28.837   3.315  20.686  0.4208 -0.1160 -0.1462
46915W        W55715   1.981   6.306   4.809  0.2219  0.2993  0.0722
46916W        W55716  25.002   7.313  15.570  0.0585  0.1612 -0.0145
46917W        W55717  22.566   3.181  24.676  0.0969 -0.4845 -0.2762
46918W        W55718   3.405   7.358  16.608  0.1882 -0.2840  0.3106
46919W        W55719  11.800   5.595   9.506 -0.2160 -0.1162 -0.0861
46920W        W55720  23.138   4.806  19.808 -0.1643 -0.1165  0.2525
46921W        W55721   2.169   3.259  19.335 -0.1800 -0.0725 -0.0604
46922W        W55722  13.272   6.058  17.190  0.0868 -0.1778 -0.0700
46923W        W55723  30.144   6.095  21.901 -0.0435  0.1017  0.1196
46924W        W55724  17.951   6.452   1.023 -0.5385 -0.0025 -0.0732
46925W        W55725   7.959   2.100   4.565 -0.1261 -0.0246 -0.1401
46926W        W55726  14.960   4.285  25.001  0.2000 -0.0048 -0.0009
46927W        W55727  29.230   5.066   9.787 -0.0720  0.0416 -0.2036
46928W        W55728  21.690   5.000  22.708  0.0004 -0.0643 -0.0234
46929W        W55729  27.014   1.020   2.297 -0.1289 -0.0009  0.1003
46930W        W55730  30.164   3.162  18.310 -0.3967 -0.2176  0.2457
46931W        W55731  21.811   0.127  19.904  0.0182 -0.0550  0.1304
46932W        W55732  26.049   6.724  24.494 -0.4315 -0.0314 -0.1250
46933W        W55733   0.707   0.430   3.758 -0.2145  0.0344 -0.2358
46934W        W55734   6.490   3.601  20.994  0.2448 -0.2905 -0.2857
46935W        W55735  24.838   2.756  16.915  0.0033 -0.0166  0.3741
46936W        W55736   3.857   2.346   2.551  0.1405  0.2675  0.1391
46937W        W55737  30.681   1.786   7.582 -0.2215 -0.0640  0.2773
46938W        W55738   1.187   0.599  19.013 -0.1358 -0.1445 -0.0530
46939W        W55739  12.069   2.085   4.623  0.2434 -0.2990 -0.0735
46940W        W55740  13.636   0.880  23.254  0.0889  0.1559  0.0342
46941W        W55741  20.467   6.809   0.394  0.3003 -0.2793  0.0671
46942W        W55742  29.125   1.700   2.205  0.2037 -0.1246  0.0722
46943W        W55743   1.212   2.622  19.952 -0.2229 -0.0872  0.0897
46944W        W55744  28.446   3.675  16.698 -0.1410  0.1426  0.0145
46945W        W55745  21.044   3.054   9.510  0.0099 -0.2819  0.0420
46946W        W55746  17.639   4.110  18.812  0.3882  0.2271  0.0525
46947W        W55747   7.061   2.603  25.162  0.1580 -0.2809 -0.2094
46948W        W55748  14.332   0.641  24.920  0.0625  0.2444  0.3781
46949W        W55749  19.725   0.889  17.592 -0.1629 -0.0406 -0.0125
46950W        W55750  13.868   1.824  21.058 -0.3609 -0.0386 -0.1087
46951W        W55751  26.283   1.246  20.675  0.0587  0.1304  0.1174
46952W        W55752  29.578   1.692  18.810  0.0192 -0.0233  0.2446
46953W        W55753   6.418   1.892  17.327  0.1938  0.0213 -0.0722
46954W        W55754  18.147   0.040   6.297  0.3743  0.0258  0.0165
46955W        W55755   8.239   7.647  16.117 -0.1717  0.0459  0.1096
46956W        W55756   3.002   2.376   9.376  0.0356  0.0953 -0.0103
46957W        W55757  18.974   7.633  21.272 -0.1630 -0.0843 -0.1329
46958W        W55758   5.434   3.969  14.938  0.0585  0.0273 -0.1847
46959W        W55759   7.988   7.652   6.594 -0.0265 -0.1470 -0.3041
46960W        W55760  19.362   5.674  25.173 -0.2295  0.1717 -0.0591
46961W        W55761  20.709   1.899   1.671 -0.4805 -0.1336  0.2508
46962W        W55762   2.524   5.885   9.701  0.1463  0.0246  0.1780
46963W        W55763  13.588   2.417  20.987  0.1012  0.2062  0.0809
46964W        W55764   0.640   3.263  16.468 -0.3552  0.0448 -0.0009
46965W        W55765  17.564   2.431   0.270  0.1495 -0.5117  0.0446
46966W        W55766  27.518   5.636  17.394 -0.0034 -0.1719 -0.2414
46967W        W55767  15.188   5.646  10.831  0.0215 -0.0675 -0.0159
46968W        W55768   6.310   0.759   3.596  0.1520 -0.2234  0.1895
46969W        W55769   5.432   2.712  17.118 -0.0696 -0.2226  0.0816
46970W        W55770  23.177   0.365  17.132 -0.0206  0.0183 -0.1190
46971W        W55771  21.404   7.772   2.066  0.2191 -0.3784 -0.0732
46972W        W55772  26.906   4.749   7.728 -0.1013 -0.0029  0.0927
46973W        W55773  25.476   2.064  22.471 -0.0755  0.0859  0.0013
46974W        W55774  18.520   2.370  15.328 -0.2358 -0.0758 -0.1230
46975W        W55775   6.806   6.422  16.137 -0.4198  0.0496 -0.0571
46976W        W55776   7.399   5.808  20.582  0.0585  0.1289 -0.0124
46977W        W55777   3.009   0.998   2.679 -0.0437  0.1261 -0.2424
46978W        W55778  23.997   4.066   6.819 -0.0409  0.1154  0.2226
46979W        W55779  25.120   3.240  17.157 -0.1148  0.1219  0.1657
46980W        W55780  12.445   3.010  20.778 -0.2580 -0.0305 -0.1673
46981W        W55781   0.428   5.405  24.972  0.1908 -0.1513 -0.0784
46982W        W55782  26.487   2.621  15.457  0.1656 -0.2582 -0.0564
46983W        W55783  25.201   5.200  10.116  0.1120  0.1380 -0.0345
46984W        W55784  11.989   6.711  10.379 -0.1343 -0.0137 -0.0189
46985W        W55785  28.224   4.058   3.312  0.3757  0.1296  0.0720
46986W        W55786  10.644   7.578  19.997 -0.3903  0.0319  0.0326
46987W        W55787   2.493   2.902  17.475  0.0681 -0.0793 -0.1076
46988W        W55788   1.110   5.967  24.646  0.0313  0.1391 -0.0683
46989W        W55789   1.006   3.995  19.472  0.1679 -0.1433  0.1852
46990W        W55790  21.575   4.358  10.864  0.3032 -0.1958 -0.0448
46991W        W55791  17.212   6.947   5.638 -0.0083  0.1081 -0.2330
46992W        W55792  17.513   1.373  19.815 -0.0523  0.2641  0.2124
46993W        W55793  16.525   7.304   8.381  0.0477  0.1903  0.0352
46994W        W55794  25.012   4.141  16.861 -0.3154  0.0952  0.1458
46995W        W55795  23.687   1.566   2.968  0.1091 -0.1461  0.2050
46996W        W55796  26.798   1.066  18.785  0.4782  0.0529  0.1120
46997W        W55797  12.728   6.369  16.424  0.0311 -0.4545  0.0594
46998W        W55798   9.359   1.212  16.081  0.2734 -0.3438 -0.0022
46999W        W55799  11.445   7.075   9.755 -0.0271  0.1898 -0.1032
47000W        W55800  12.552   6.053  24.814  0.0769 -0.1453  0.2048
47001W        W55801  22.623   6.316  25.156  0.0959  0.1971  0.0545
47002W        W55802  24.873   6.282  19.650  0.0269  0.1639  0.1715
47003W        W55803   8.534   0.399   1.222 -0.3258  0.2275  0.0110
47004W        W55804  15.675   2.617  21.889 -0.1438 -0.1953 -0.0864
47005W        W55805  20.162   4.053   5.343  0.1897  0.4200 -0.3048
47006W        W55806  14.828   5.279  26.035 -0.1537 -0.1358 -0.0958
47007W        W55807  28.371   0.519   1.128  0.2138  0.2491  0.3798
47008W        W55808   0.043   0.423  16.232  0.0838  0.1588 -0.1958
47009W        W55809  18.869   2.061  23.321  0.2190  0.2084 -0.1456
47010W        W55810   5.726   4.516   4.780 -0.0229  0.2733  0.3706
47011W        W55811  16.279   1.277   0.843 -0.3240 -0.3965 -0.0267
47012W        W55812  20.306   4.629  17.684 -0.2833  0.1437 -0.2358
47013W        W55813  24.005   0.536  23.008  0.0565 -0.3379  0.1262
47014W        W55814  31.147   0.408   1.130  0.1029 -0.1715  0.3136
47015W        W55815   8.558   3.670   8.250 -0.0071 -0.1120  0.0975
47016W        W55816   2.834   5.564   9.377  0.2815  0.0519 -0.2323
47017W        W55817   7.509   1.670  25.162  0.4223  0.1139 -0.0196
47018W        W55818  25.374   2.782   4.074  0.0942  0.1505 -0.1185
47019W        W55819  14.384   4.935   5.153  0.0367 -0.4183 -0.0204
47020W        W55820  22.129   4.419  20.088  0.3993  0.0380 -0.1110
47021W        W55821  10.229   5.797  10.818  0.0514  0.0993  0.2738
47022W        W55822   3.748   7.461  22.092  0.0761 -0.1578 -0.3503
47023W        W55823  28.031   6.764  18.528 -0.1808 -0.1320 -0.0775
47024W        W55824  13.250   7.004  22.185 -0.0132  0.2130  0.2196
47025W        W55825   1.546   4.081   7.338 -0.2659  0.1366  0.0327
47026W        W55826   0.840   3.039  22.709 -0.1035  0.1628 -0.1472
47027W        W55827  14.834   4.677  24.116  0.1933 -0.3505  0.0520
47028W        W55828  28.827   6.014  23.209  0.4343  0.0077  0.0245
47029W        W55829  23.611   5.317  15.674  0.1551 -0.0469 -0.1210
47030W        W55830  14.217   2.034  17.951  0.1646  0.0238 -0.0320
47031W        W55831  28.835   1.292   0.913  0.1519 -0.2927 -0.2146
47032W        W55832  17.877   4.977   2.573 -0.0516 -0.2072  0.1848
47033W        W55833   2.469   0.335   9.399  0.1044 -0.1454  0.1110
47034W        W55834   4.440   1.241   4.380 -0.1705  0.0584 -0.1214
47035W        W55835  14.495   2.415   1.406  0.3786 -0.1014 -0.0552
47036W        W55836  27.427   3.364  21.058  0.0962  0.1542 -0.2296
47037W        W55837  24.649   7.381   9.474  0.0928  0.1170  0.0961
47038W        W55838  10.736   1.380   4.644  0.2927  0.0189  0.1641
47039W        W55839   9.410   0.515  17.351 -0.0754 -0.1069 -0.2306
47040W        W55840   0.048   1.676  22.820  0.1697 -0.0560  0.2516
47041W        W55841  28.574   1.467  24.210  0.0268 -0.0679  0.0991
47042W        W55842   4.588   4.478   9.976 -0.3883 -0.0921  0.2990
47043W        W55843  18.617   3.961   4.155 -0.0410 -0.0385  0.1017
47044W        W55844  11.502   4.485   4.669 -0.1728  0.0375 -0.2816
47045W        W55845  30.304   4.969   0.895  0.0089 -0.1293 -0.2099
47046W        W55846   5.558   7.526  16.360  0.1312 -0.0747  0.0574
47047W        W55847  23.647   1.982  14.944 -0.2255  0.0293 -0.0188
47048W        W55848  14.076   4.167  25.456  0.0177 -0.0968  0.1614
47049W        W55849  11.268   1.196  24.981 -0.0151  0.0578 -0.2865
47050W        W55850   3.839   3.430  25.891  0.0433 -0.0899  0.2796
47051W        W55851   4.847   3.596  18.342 -0.1788  0.5104  0.1291
47052W        W55852  22.896   1.272  24.248  0.1334  0.1121  0.1750
47053W        W55853  22.358   0.850  25.927 -0.1141  0.0236 -0.0144
47054W        W55854   8.214   0.956   5.919  0.0940  0.1750 -0.2406
47055W        W55855   4.112   1.299   7.090 -0.1511  0.2554 -0.4393
47056W        W55856  31.362   6.895  22.097  0.0223 -0.1552 -0.1740
47057W        W55857  26.368   4.728  20.684 -0.6414  0.0617  0.3594
47058W        W55858  18.702   0.851  19.863 -0.3976 -0.0658 -0.1625
47059W        W55859  29.628   2.774  19.075  0.1313  0.1220 -0.4369
47060W        W55860   2.635   5.175  21.432  0.0431 -0.1001 -0.0336
47061W        W55861  16.599   3.506  20.159 -0.0701 -0.0006  0.1215
47062W        W55862  26.284   2.394   7.984 -0.0039 -0.0901  0.0229
47063W        W55863   6.776   5.342   2.063 -0.1249 -0.2465  0.2437
47064W        W55864   3.074   1.822  24.308 -0.1519 -0.0063 -0.2950
47065W        W55865   1.608   3.146   6.370  0.1502 -0.5140 -0.1435
47066W        W55866  25.923   1.090  10.285 -0.3024 -0.1641  0.1703
47067W        W55867  22.865   1.018  17.082 -0.1500 -0.0802 -0.2503
47068W        W55868  22.573   6.775   4.231  0.1302 -0.0057 -0.1498
47069W        W55869   4.827   5.130  20.637  0.1066 -0.1000 -0.0023
47070W        W55870   3.761   1.197   2.346 -0.3624 -0.0416  0.2147
47071W        W55871   4.641   4.207  18.541 -0.0052  0.1298  0.2661
47072W        W55872  12.780   4.180   4.896  0.1210  0.2505  0.1161
47073W        W55873   5.554   2.579  16.632 -0.1911 -0.1532  0.2338
47074W        W55874  26.684   1.761  21.404 -0.0236  0.0376  0.0419
47075W        W55875  23.485   1.597  24.825  0.0502  0.3730  0.0857
47076W        W55876  12.192   1.012   8.640 -0.0471  0.0589  0.1827
47077W        W55877  19.277   4.876  23.985 -0.0689 -0.2787 -0.0329
47078W        W55878   2.310   6.360   9.003 -0.0113 -0.1103 -0.2682
47079W        W55879  21.343   4.626   5.894  0.2320 -0.3568 -0.1258
47080W        W55880   4.357   1.093  17.143  0.1282  0.2703 -0.0394
47081W        W55881   2.513   0.307  17.170  0.3163  0.0941  0.2812
47082W        W55882  27.104   7.453   1.244 -0.0254  0.0855 -0.1017
47083W        W55883   7.352   4.255   8.543 -0.2795  0.2026  0.0477
47084W        W55884  23.708   2.307  10.698 -0.0735 -0.0352  0.1494
47085W        W55885  25.127   7.026  20.927  0.1638 -0.0610 -0.2588
47086W        W55886   9.258   2.733   8.555 -0.0120 -0.1726  0.0176
47087W        W55887  18.545   2.968  23.039  0.0145  0.0978  0.3467
47088W        W55888   0.170   5.199  21.044 -0.4186  0.0878 -0.1853
47089W        W55889   8.742   7.858  19.223 -0.0479  0.1681 -0.0223
47090W        W55890  21.463   1.052  25.928 -0.2814 -0.0135 -0.2494
47091W        W55891  16.640   3.968  25.403  0.0693  0.0215 -0.0937
47092W        W55892  23.060   7.381  16.550 -0.1138  0.0493 -0.1252
47093W        W55893  17.435   0.718   8.358  0.1858  0.2244 -0.2328
47094W        W55894  27.718   5.058  22.337  0.0098 -0.1596 -0.2660
47095W        W55895  27.273   5.130   3.636 -0.1571  0.0089 -0.0569
47096W        W55896  19.764   7.669  17.284 -0.3523 -0.2407  0.0438
47097W        W55897   3.539   7.853  17.599  0.0123  0.0119 -0.1444
47098W        W55898  27.589   0.585  22.427 -0.2480 -0.2476  0.1719
47099W        W55899  18.810   6.061   8.199  0.0109  0.2477 -0.2344
47100W        W55900   8.725   5.107   4.983  0.2261 -0.0683  0.0236
47101W        W55901  12.904   4.160  23.835  0.2500 -0.1118  0.0230
47102W        W55902  20.589   4.289  16.935 -0.2289  0.0576  0.1631
47103W        W55903  27.124   1.511   2.410  0.2069  0.0500  0.0825
47104W        W55904  15.558   7.353  17.537  0.1614  0.0973 -0.0171
47105W        W55905  25.846   1.205   6.941 -0.0723 -0.2351 -0.0672
47106W        W55906   5.342   0.697  19.096  0.3020 -0.0407  0.1373
47107W        W55907  31.027   3.536   3.884 -0.1315 -0.0073 -0.1984
47108W        W55908  25.295   6.850  16.681 -0.3776 -0.0243 -0.1386
47109W        W55909  20.725   4.145  16.468  0.2197 -0.0155 -0.0421
47110W        W55910   5.999   1.083  20.866 -0.1022 -0.1112  0.1160
47111W        W55911   7.690   3.769   6.571  0.1774 -0.2832 -0.1799
47112W        W55912  26.119   6.146  16.785  0.2397 -0.0620 -0.3334
47113W        W55913  20.909   1.874  20.378 -0.0173 -0.0016 -0.0816
47114W        W55914  19.272   2.114  16.555  0.0383  0.2484  0.3528
47115W        W55915  23.346   2.968   9.584  0.0027 -0.1735 -0.0507
47116W        W55916  18.974   1.236   1.707 -0.1786  0.1445 -0.1351
47117W        W55917  22.636   5.570  24.648  0.0828  0.2251 -0.0387
47118W        W55918  23.320   4.126   9.408  0.1130  0.2136  0.2118
47119W        W55919  30.298   2.503   3.164 -0.1335  0.0462 -0.1944
47120W        W55920  31.061   1.057  23.028 -0.0170  0.1562 -0.0803
47121W        W55921  12.530   4.257  24.239  0.0534  0.2929  0.0544
47122W        W55922   3.962   6.904  24.773 -0.3553  0.1006 -0.1263
47123W        W55923  29.714   5.245   1.298 -0.1840 -0.1531  0.0541
47124W        W55924  19.550   5.553  25.770  0.0766 -0.0964 -0.2181
47125W        W55925  10.823   0.702  17.400 -0.0683  0.1886 -0.2628
47126W        W55926   1.910   0.116   1.050  0.0411  0.1052 -0.2701
47127W        W55927  14.923   6.282   0.296 -0.1574 -0.0002 -0.0450
47128W        W55928  30.867   4.851  16.577 -0.2053  0.1594  0.0637
47129W        W55929  25.360   5.622  19.682 -0.2547 -0.1268 -0.2595
47130W        W55930  22.659   2.075   2.102  0.1496  0.0411 -0.0776
47131W        W55931  29.995   1.199  21.264  0.0320 -0.0184 -0.2326
47132W        W55932   1.045   1.652   7.811 -0.0724 -0.0838  0.1015
47133W        W55933  20.869   1.522  19.794  0.1584  0.0223  0.1917
47134W        W55934   8.345   5.744  24.186  0.2150  0.1450  0.3063
47135W        W55935  30.517   2.948   7.578  0.2167  0.0045  0.0074
47136W        W55936  14.036   6.944  16.449 -0.0719  0.3551 -0.0594
47137W        W55937   9.736   4.737   1.651  0.2522 -0.0976  0.0219
47138W        W55938  21.407   3.686   7.222 -0.1668 -0.2118 -0.2480
47139W        W55939  19.056   7.832  24.298  0.0853 -0.3381 -0.3254
47140W        W55940  12.461   2.809  10.169  0.1954  0.0690  0.2227
47141W        W55941  13.023   2.449  25.187  0.0664  0.1592 -0.3160
47142W        W55942  25.038   0.296  10.952 -0.0755  0.1112 -0.0296
47143W        W55943  13.250   7.378   0.526 -0.1226 -0.1940 -0.1701
47144W        W55944   1.975   7.059  18.938 -0.0915 -0.3822 -0.1574
47145W        W55945  13.674   6.636   3.323 -0.0191  0.2365  0.1063
47146W        W55946   8.453   2.963  16.393  0.0694  0.4795  0.0653
47147W        W55947  24.037   1.709   3.616 -0.1870  0.0026 -0.0973
47148W        W55948  27.496   0.363   1.188 -0.5060  0.1333  0.1649
47149W        W55949  28.595   0.407  22.570  0.4788  0.1302 -0.1263
47150W        W55950  20.046   6.701  23.588  0.1394  0.1802 -0.0147
47151W        W55951  26.763   6.268   4.359 -0.0238 -0.2814 -0.2261
47152W        W55952  29.175   5.718  24.973 -0.2052  0.1594 -0.1919
47153W        W55953   4.426   2.504  16.107  0.1884  0.0518 -0.0436
47154W        W55954  26.520   4.913  24.635  0.0999  0.2272 -0.2870
47155W        W55955  26.363   5.636  20.281  0.1184 -0.3103 -0.1730
47156W        W55956  25.641   4.616  17.319 -0.0191  0.0208  0.0099
47157W        W55957  14.079   5.876  11.114  0.2652 -0.0952  0.0753
47158W        W55958  26.973   5.041  22.678  0.1821  0.2455  0.3853
47159W        W55959  23.938   6.319   8.805 -0.0972 -0.1526  0.0212
47160W        W55960  17.053   4.077   6.246  0.2959  0.0330  0.0445
47161W        W55961  18.954   5.991  23.181  0.2926 -0.1348 -0.1489
47162W        W55962   3.093   1.658   4.250 -0.3092 -0.0341  0.0877
47163W        W55963   5.649   6.175  21.007  0.1813  0.2116  0.2349
47164W        W55964  26.509   6.823  23.259 -0.0627  0.2253 -0.2920
47165W        W55965  30.586   7.370  20.471  0.2827  0.1596  0.1096
47166W        W55966  22.963   1.192  21.691  0.0480  0.1495 -0.1861
47167W        W55967   3.702   0.391  16.767 -0.0962  0.2576 -0.2424
47168W        W55968  25.986   7.840   4.214 -0.1784  0.2139  0.2386
47169W        W55969   5.666   0.521  24.934 -0.0616 -0.1956 -0.0908
47170W        W55970   3.384   5.842  19.351  0.1252 -0.1046  0.2299
47171W        W55971  23.294   4.002  11.245 -0.0731 -0.2443 -0.1138
47172W        W55972  19.794   1.221   0.220  0.1688  0.0950 -0.1813
47173W        W55973  24.698   2.553  23.420  0.0997 -0.1342 -0.5341
47174W        W55974   8.028   1.985  23.000  0.0739 -0.4352  0.0050
47175W        W55975  15.380   5.957  19.626  0.1405  0.2816 -0.4511
47176W        W55976   1.570   6.650  21.534 -0.1739  0.1604 -0.1011
47177W        W55977  23.640   6.794  15.212 -0.2604  0.2131  0.0841
47178W        W55978  17.564   0.291  22.593 -0.4370  0.1674 -0.1284
47179W        W55979   5.910   3.690   3.939 -0.1233 -0.1805  0.0912
47180W        W55980  13.481   6.980   0.759  0.0113  0.1588 -0.2368
47181W        W55981  18.712   4.903  24.359 -0.1959  0.1957  0.1878
47182W        W55982  19.979   4.516  19.114  0.2152 -0.1860  0.0201
47183W        W55983  25.985   1.035  14.890 -0.0665  0.0561  0.2177
47184W        W55984  12.202   5.553   0.892 -0.4381  0.1817  0.0716
47185W        W55985   7.146   7.111  18.117  0.0883  0.1863  0.5467
47186W        W55986  24.060   5.621  18.696  0.1470  0.3155 -0.2129
47187W        W55987  16.133   5.009  24.113 -0.0590  0.0218 -0.1643
47188W        W55988   8.133   5.189  17.193  0.0479  0.2039 -0.2267
47189W        W55989  20.409   2.192   4.945  0.0068 -0.0140  0.3163
47190W        W55990  13.686   2.625  24.832  0.1438 -0.0186  0.4087
47191W        W55991   1.176   6.627  17.003 -0.1136 -0.5255  0.1469
47192W        W55992  27.176   5.327  20.829  0.2149  0.4148  0.0365
47193W        W55993  12.833   3.004  10.710 -0.3544 -0.1842  0.0851
47194W        W55994   3.343   7.318  23.758  0.0495  0.0871 -0.1496
47195W        W55995  16.922   7.364  16.204 -0.3177  0.0748  0.3226
47196W        W55996  12.712   2.362   0.274 -0.0828 -0.2298  0.1964
47197W        W55997   6.244   4.049   8.476 -0.1971  0.1903  0.0369
47198W        W55998   3.632   2.629  16.428 -0.1095 -0.0944  0.1140
47199W        W55999   5.074   0.960  24.095  0.0183  0.0912  0.5611
47200W        W56000   8.755   5.668   3.575 -0.0542  0.0433  0.0851
47201W        W56001  17.212   0.777  10.963 -0.2358  0.1372 -0.3220
47202W        W56002  19.770   3.174   1.374 -0.1654 -0.0225  0.0060
47203W        W56003   7.870   2.589  19.912  0.2412 -0.0838 -0.3504
47204W        W56004  18.952   3.378  10.187  0.1132  0.0610  0.0801
47205W        W56005   7.107   0.346   5.476 -0.0710 -0.0936 -0.2227
47206W        W56006   0.229   7.543   2.210  0.1323 -0.2607  0.3052
47207W        W56007   5.618   5.233  18.901  0.1591  0.0217  0.1155
47208W        W56008  18.087   4.082   9.722  0.1820  0.1705  0.1699
47209W        W56009  24.815   3.533  19.102 -0.0449  0.0861 -0.1572
47210W        W56010   0.884   1.836  18.943  0.1690 -0.2069  0.0467
47211W        W56011  27.115   0.801  18.330 -0.4013 -0.0429 -0.1071
47212W        W56012   5.950   4.277  25.709 -0.0263 -0.1471  0.0472
47213W        W56013  14.373   5.578  18.604  0.2213 -0.2375 -0.1600
47214W        W56014  30.709   2.200  12.725  0.0868  0.1310  0.1625
47215W        W56015  27.059   3.667  18.000  0.0041  0.0221  0.1746
47216W        W56016  12.054   1.606  17.935 -0.0079 -0.3117  0.1796
47217W        W56017  21.586   4.807  18.134  0.3083 -0.0842  0.1140
47218W        W56018  30.300   3.500  18.757  0.1246  0.1913  0.0134
47219W        W56019  10.481   0.921   0.202  0.3944 -0.0564  0.0769
47220W        W56020   7.550   2.339  25.734 -0.1502 -0.2222  0.1406
47221W        W56021   7.667   4.665  18.353 -0.0798 -0.2039 -0.1835
47222W        W56022   5.616   7.655  20.986  0.1614  0.1151 -0.1299
47223W        W56023  11.559   1.515  21.962 -0.1115 -0.4478  0.3253
47224W        W56024  15.128   1.635   8.822  0.2379  0.1671  0.1359
47225W        W56025  28.798   5.121  16.649  0.1230 -0.3144 -0.1341
47226W        W56026   7.181   5.961  10.371  0.0163 -0.1291 -0.0003
47227W        W56027  21.846   7.332   4.448  0.0517  0.0925  0.3198
47228W        W56028   7.344   6.623  16.620 -0.3192  0.1015  0.0483
47229W        W56029  28.287   5.637   4.015  0.1021  0.1117 -0.1698
47230W        W56030  22.339   5.575   2.274 -0.1348  0.2575 -0.3384
47231W        W56031   6.972   4.343   3.399  0.0362 -0.0623  0.0885
47232W        W56032  28.921   4.513  14.620 -0.0489  0.2122 -0.0292
47233W        W56033   9.222   2.847  10.441  0.0376 -0.1711 -0.1474
47234W        W56034  25.477   6.787  20.634  0.1219  0.1121  0.0569
47235W        W56035  28.226   7.518   4.637  0.1273 -0.0394 -0.0459
47236W        W56036   3.782   4.039  24.048 -0.0867  0.2415  0.3601
47237W        W56037   8.264   3.363   8.601 -0.2029 -0.0542 -0.0289
47238W        W56038   7.164   5.890   9.472  0.1540  0.1348 -0.0683
47239W        W56039  30.381   3.832  21.264  0.0173  0.0775  0.0284
47240W        W56040  16.365   3.903   7.769 -0.2765  0.0654 -0.2128
47241W        W56041   6.126   4.332  16.359 -0.3361 -0.5159 -0.1432
47242W        W56042  24.146   3.931  18.358 -0.0810 -0.1281  0.1074
47243W        W56043   7.977   1.793   5.829 -0.2362  0.1304 -0.0811
47244W        W56044   6.544   5.062   7.130  0.2013 -0.1423  0.0118
47245W        W56045   0.405   6.266  22.022 -0.1266  0.2390  0.0179
47246W        W56046   1.138   6.678  19.926  0.0912  0.0068 -0.0910
47247W        W56047  27.991   7.605   8.022  0.1487  0.0208 -0.2837
47248W        W56048   5.363   2.975   0.307 -0.2417  0.1528  0.0096
47249W        W56049   4.235   4.488  17.648  0.3794  0.0188  0.2449
47250W        W56050  29.140   1.866  15.844  0.0090  0.0604  0.1475
47251W        W56051  15.507   6.796  20.866 -0.3555 -0.4523 -0.1314
47252W        W56052   0.887   3.998  22.413 -0.3933  0.0043  0.3149
47253W        W56053  23.836   5.751   5.375 -0.0123  0.1155 -0.1745
47254W        W56054   2.335   0.149  23.117 -0.0466 -0.0533  0.3394
47255W        W56055  28.099   3.722  23.388  0.2363  0.3031 -0.1065
47256W        W56056   7.473   2.801   0.215  0.1435  0.0065 -0.1147
47257W        W56057  11.633   3.291  18.735  0.0328 -0.2096 -0.2318
47258W        W56058   7.111   2.194  18.340  0.3372 -0.0848  0.1915
47259W        W56059  14.556   5.963   9.907 -0.2015 -0.1587 -0.0362
47260W        W56060  27.178   0.398  16.433  0.3816  0.0040  0.0055
47261W        W56061   3.942   0.028   8.885 -0.2280 -0.1544 -0.0309
47262W        W56062   7.789   1.060   3.537  0.4558 -0.1482  0.1810
47263W        W56063   4.065   5.288  18.589 -0.0050  0.1035  0.0248
47264W        W56064  21.442   5.023   1.924 -0.0501  0.1181 -0.2007
47265W        W56065  16.558   6.033   3.185  0.0203  0.0610  0.1867
47266W        W56066  16.536   0.171   1.207  0.0409  0.2499  0.2064
47267W        W56067   8.003   7.556   8.899 -0.0151 -0.0028 -0.3531
47268W        W56068   7.931   1.936  16.193  0.1168 -0.2134  0.0404
47269W        W56069   3.076   0.174   5.547  0.1425  0.1741 -0.0098
47270W        W56070  11.739   6.605   5.017 -0.0333 -0.4842 -0.0876
47271W        W56071  29.997   2.188  25.934  0.3140 -0.0297  0.0898
47272W        W56072  29.018   7.094   4.859 -0.0562  0.1930  0.0509
47273W        W56073  17.138   6.872   9.234 -0.0546 -0.1547 -0.2185
47274W        W56074  11.727   4.701   0.608 -0.3968  0.2812  0.1430
47275W        W56075  25.591   5.420   7.633  0.1815 -0.0366 -0.0947
47276W        W56076  16.116   2.735  11.206  0.3039 -0.0921 -0.0263
47277W        W56077  23.333   6.317  23.234 -0.0998 -0.1402 -0.2714
47278W        W56078  11.882   4.299   7.873  0.2623  0.1291 -0.3172
47279W        W56079  15.996   7.724  22.028  0.2298 -0.2472  0.0369
47280W        W56080   5.226   5.973   0.319 -0.0078  0.1824 -0.2198
47281W        W56081  26.324   4.943  18.596 -0.4209 -0.0035 -0.1138
47282W        W56082   2.816   4.653  15.147 -0.0962 -0.3582  0.1022
47283W        W56083  29.755   2.330  20.245 -0.2896 -0.1122  0.3047
47284W        W56084  19.119   2.718  25.764  0.1209  0.0960  0.2032
47285W        W56085   1.637   3.905  25.794 -0.1177  0.3108 -0.0555
47286W        W56086  13.960   6.107   7.520 -0.0094  0.2024  0.3299
47287W        W56087  13.609   0.647   2.947 -0.2406  0.0390  0.0079
47288W        W56088  13.306   3.697   5.854 -0.0613 -0.0686  0.3532
47289W        W56089  10.501   2.805   5.792 -0.4671  0.3115 -0.0551
47290W        W56090   9.793   0.461   9.857 -0.2305 -0.0603  0.1040
47291W        W56091   8.773   7.748   5.234  0.1807  0.0320 -0.2255
47292W        W56092  30.517   0.358   7.136 -0.2178 -0.2566 -0.1123
47293W        W56093  30.673   2.351  25.365  0.0774  0.0447 -0.0194
47294W        W56094  11.771   5.920  15.665  0.3005  0.0343  0.1525
47295W        W56095   1.199   4.986   4.272 -0.0562 -0.2109  0.2764
47296W        W56096  22.458   1.131  18.753 -0.0080  0.0524  0.1675
47297W        W56097   7.512   0.228  24.656 -0.1928  0.0151 -0.0887
47298W        W56098  11.704   7.535  16.531 -0.1848 -0.3166  0.1736
47299W        W56099  16.945   4.244   7.128 -0.1462 -0.0473  0.3047
47300W        W56100  20.352   7.047  24.108 -0.2891  0.0166 -0.4781
47301W        W56101  15.031   3.649   7.502 -0.0293  0.1147  0.2876
47302W        W56102  27.468   2.726  16.754 -0.2687 -0.0411 -0.1500
47303W        W56103  28.591   2.226   4.899  0.0085  0.0913 -0.1659
47304W        W56104  26.713   4.538  23.653 -0.0179  0.1657  0.0270
47305W        W56105   3.832   1.722  19.042  0.0305 -0.1448  0.2104
47306W        W56106  19.933   1.632  16.565 -0.1231  0.0319 -0.3112
47307W        W56107  19.377   2.164  23.230 -0.0523  0.3242  0.1535
47308W        W56108  10.424   5.936   7.736 -0.1906  0.0205 -0.2306
47309W        W56109   9.456   6.760   5.469  0.1944  0.1104 -0.0925
47310W        W56110   7.402   0.158   8.015 -0.0945  0.2021 -0.1221
47311W        W56111   6.585   7.149   3.857  0.1341  0.1388  0.2552
47312W        W56112  29.247   7.046   0.515  0.3003 -0.2492  0.0407
47313W        W56113   8.686   3.597  15.567 -0.0036  0.2347 -0.4369
47314W        W56114  25.189   4.202  24.186 -0.0853 -0.3168 -0.0197
47315W        W56115  16.423   2.365  23.495  0.1801 -0.2538  0.0313
47316W        W56116  10.073   1.751  20.972  0.1348  0.1698  0.2121
47317W        W56117  15.376   4.107   5.088 -0.0055 -0.1583  0.1399
47318W        W56118  22.090   5.206  20.802 -0.3001  0.0498 -0.2183
47319W        W56119  11.188   4.116   1.097 -0.0549 -0.3243  0.3425
47320W        W56120   6.157   4.517  10.403 -0.0520 -0.0227 -0.1857
47321W        W56121  24.592   0.550   5.358  0.1218 -0.0697 -0.1767
47322W        W56122  15.697   5.337   8.419  0.3304 -0.0832  0.0880
47323W        W56123  30.778   0.899  15.667  0.2639  0.0763 -0.0892
47324W        W56124   7.429   3.120  19.466 -0.1089  0.0436 -0.1809
47325W        W56125  13.304   4.672  20.297  0.0133  0.0351 -0.0732
47326W        W56126  16.247   0.115   6.290  0.0620  0.1393 -0.1434
47327W        W56127  21.343   0.489   7.864 -0.3886  0.0858  0.0343
47328W        W56128  23.373   6.792  17.408  0.1675  0.0513  0.5508
47329W        W56129  20.037   5.718  21.862  0.2507  0.1203 -0.0707
47330W        W56130  16.335   4.689   8.370 -0.3839  0.0484  0.4421
47331W        W56131  22.857   5.240   4.642  0.0069 -0.2237  0.0792
47332W        W56132  12.117   1.450   2.743  0.1668  0.0843 -0.2161
47333W        W56133  26.157   7.493  22.108 -0.2907  0.1620  0.0763
47334W        W56134  23.736   6.548  16.427 -0.4669  0.0346 -0.0894
47335W        W56135  18.625   3.788  17.500  0.1266 -0.3621  0.0417
47336W        W56136  17.241   2.807  25.332 -0.2103 -0.1055 -0.1907
47337W        W56137  18.375   3.663  21.888 -0.0701  0.1681  0.1449
47338W        W56138  18.243   5.334   2.787  0.0629  0.1317 -0.3533
47339W        W56139  23.389   3.339   8.775 -0.1109  0.3715  0.1591
47340W        W56140  22.684   5.916  18.369 -0.0737 -0.1139 -0.0645
47341W        W56141  26.324   3.297   0.364 -0.1640 -0.3371  0.0764
47342W        W56142  17.531   5.227  16.909  0.1172  0.0004 -0.4585
47343W        W56143  16.371   2.840   3.574 -0.2212 -0.3347  0.0831
47344W        W56144  12.452   4.779  15.544 -0.0835  0.0274 -0.0225
47345W        W56145   2.940   5.638  22.332 -0.0653 -0.0364  0.2936
47346W        W56146  13.610   3.634   3.542 -0.0342 -0.1253  0.0554
47347W        W56147  15.987   3.520   7.722  0.2400 -0.2849  0.2430
47348W        W56148  12.223   7.172   6.725 -0.2061 -0.0913  0.3927
47349W        W56149   8.902   0.175  17.206  0.0258 -0.1212  0.2192
47350W        W56150   7.441   3.426   9.177  0.0884 -0.2510 -0.2941
47351W        W56151  23.551   3.704   3.747 -0.1065 -0.3928  0.3439
47352W        W56152  23.450   5.119  15.275  0.1904  0.2876 -0.2670
47353W        W56153  24.928   4.011   4.214  0.0810  0.2075 -0.0618
47354W        W56154  28.428   4.791  20.257 -0.1086 -0.2730  0.0693
47355W        W56155  22.542   3.761   6.590  0.0947 -0.1910  0.0428
47356W        W56156   9.788   3.685   4.574 -0.1526 -0.1552  0.0203
47357W        W56157  20.553   6.061  16.312 -0.4587 -0.0553 -0.0982
47358W        W56158  26.240   5.580  18.760 -0.0916 -0.2663  0.1154
47359W        W56159  24.333   2.202   7.437 -0.0975 -0.4037 -0.1490
47360W        W56160  16.601   1.013  10.065  0.1642  0.2238  0.0358
47361W        W56161  23.817   4.580  20.813 -0.0879 -0.4663 -0.0480
47362W        W56162  20.905   5.398   9.504 -0.0977  0.1582 -0.1029
47363W        W56163  23.442   6.370   8.802  0.0981  0.4348 -0.2394
47364W        W56164   7.576   0.856   3.892 -0.1036 -0.1083  0.1556
47365W        W56165  26.846   3.564   9.290 -0.1206 -0.0470  0.0810
47366W        W56166  14.205   3.262  11.288  0.0960  0.0905 -0.0772
47367W        W56167  19.705   1.994   6.558 -0.0386 -0.1405  0.4777
47368W        W56168  21.798   7.797   6.607  0.0398  0.0908 -0.1755
47369W        W56169   6.807   7.181  18.820 -0.1245  0.0107  0.2940
47370W        W56170  26.821   4.324  11.403 -0.1345 -0.1454  0.0291
47371W        W56171  12.511   2.549  23.512  0.0567  0.1299 -0.1117
47372W        W56172  15.718   4.664  23.407  0.2556  0.2857 -0.2438
47373W        W56173  15.926   3.474  11.427 -0.0740 -0.3667  0.0121
47374W        W56174  24.022   4.345  23.405  0.0060  0.0993  0.0631
47375W        W56175  24.239   3.205   9.535 -0.2231  0.0012  0.3419
47376W        W56176  21.771   4.315  25.108  0.0880  0.1736 -0.1407
47377W        W56177   8.696   4.752   7.523 -0.0883 -0.1070  0.0091
47378W        W56178  28.858   3.851   2.777  0.0058  0.0227  0.0394
47379W        W56179   0.518   2.648  19.442 -0.1133 -0.0399  0.1545
47380W        W56180  10.942   2.667  18.179  0.0461 -0.0653 -0.0670
47381W        W56181  27.567   4.640  18.302 -0.1558  0.0484  0.0031
47382W        W56182  20.198   3.097  24.213 -0.0472 -0.0615 -0.1534
47383W        W56183  15.543   0.003  23.593 -0.2183  0.5895  0.0474
47384W        W56184  15.757   2.034   7.308  0.1370  0.0428  0.0590
47385W        W56185  16.543   0.813   5.156 -0.1982 -0.0208 -0.2194
47386W        W56186  14.428   1.536  17.958 -0.0338  0.0695 -0.0202
47387W        W56187  21.857   0.349  16.112  0.3218 -0.1731  0.5673
47388W        W56188  30.892   4.303   0.861  0.3724  0.1172 -0.0558
47389W        W56189  11.240   3.528  18.429 -0.0956  0.0409 -0.0031
47390W        W56190   3.834   0.157   4.829 -0.0948  0.0755  0.2476
47391W        W56191  22.854   5.505  17.136 -0.0235 -0.1205 -0.2079
47392W        W56192  10.944   6.486  18.712 -0.1876  0.4307  0.0915
47393W        W56193  24.697   6.892  18.015  0.2209 -0.4861  0.0574
47394W        W56194  12.760   7.018   2.975 -0.0852 -0.1804 -0.2320
47395W        W56195  28.058   0.349   5.240 -0.1981 -0.1419 -0.3157
47396W        W56196   5.741   3.197   4.603 -0.0956 -0.1217 -0.0375
47397W        W56197  24.527   5.875   6.770 -0.1353 -0.0012  0.1497
47398W        W56198  20.131   1.753   4.804  0.1112  0.5030 -0.1600
47399W        W56199  13.451   0.714  25.758 -0.0990  0.3438 -0.0897
47400W        W56200   2.272   4.726  15.012  0.4111  0.0859 -0.3812
47401W        W56201  14.178   6.356  15.661  0.0216  0.0749  0.0385
47402W        W56202  23.171   2.535  10.364 -0.0749  0.2261  0.2027
47403W        W56203  19.980   4.841   1.029 -0.2185  0.2564 -0.0252
47404W        W56204  16.947   6.359   3.150 -0.0703  0.0981  0.2582
47405W        W56205  18.548   7.043  16.404 -0.0134  0.3688  0.1619
47406W        W56206  10.220   4.095  19.941  0.0918  0.0857 -0.0555
47407W        W56207  21.470   7.141  18.508  0.4286  0.1322 -0.0415
47408W        W56208   7.222   0.851  15.238 -0.1026 -0.1717 -0.1553
47409W        W56209  21.926   4.716  24.705  0.1350 -0.0155 -0.3107
47410W        W56210   7.800   0.394   1.969 -0.1173 -0.0186  0.1481
47411W        W56211  18.231   5.780  23.716  0.0664 -0.1261 -0.2513
47412W        W56212  30.482   2.633   4.925 -0.1389 -0.2385 -0.1440
47413W        W56213   8.016   3.901  10.028  0.0599  0.2084 -0.0014
47414W        W56214   1.562   4.692   8.602  0.2676 -0.2734 -0.0206
47415W        W56215  26.425   2.528  11.246 -0.1197 -0.0410 -0.2789
47416W        W56216  26.436   3.051  15.726 -0.0038  0.3403 -0.0487
47417W        W56217  21.518   0.133  25.815 -0.0455  0.1225  0.1033
47418W        W56218  29.047   1.102  23.548 -0.0160 -0.1650  0.0746
47419W        W56219   8.130   4.062  18.862 -0.1214 -0.0518  0.2118
47420W        W56220  16.125   2.071   5.025 -0.1133  0.3199 -0.1265
47421W        W56221  30.895   2.151  20.742 -0.0856 -0.0670 -0.0558
47422W        W56222  24.146   4.141  11.660 -0.1375 -0.1571  0.1227
47423W        W56223   4.864   6.585   1.093  0.1467 -0.2845  0.4016
47424W        W56224   1.096   5.088  18.239 -0.0135  0.2140  0.0713
47425W        W56225  17.800   6.805  22.200 -0.1187 -0.1131 -0.2421
47426W        W56226  28.353   2.248   3.335 -0.0750 -0.1403  0.0649
47427W        W56227  28.654   3.659   4.700 -0.1561  0.0449 -0.1875
47428W        W56228  21.670   4.089   1.669  0.2244 -0.1493  0.0851
47429W        W56229  29.851   4.839   0.270  0.0579  0.1534  0.0014
47430W        W56230  28.956   5.226  11.017 -0.2778  0.0032 -0.0434
47431W        W56231   9.010   5.424  23.824  0.0421  0.1163 -0.1199
47432W        W56232  14.377   7.816   0.003 -0.1570  0.0896 -0.0143
47433W        W56233   1.222   4.355   7.022  0.2592  0.1224 -0.2306
47434W        W56234   4.737   6.436  17.097 -0.1312 -0.0598  0.0057
47435W        W56235   4.653   3.030   2.146  0.3349  0.0907  0.1449
47436W        W56236  20.711   3.787  11.563 -0.0973 -0.1837 -0.3984
47437W        W56237  14.578   3.575  15.758  0.3777  0.1905 -0.2705
47438W        W56238  10.153   0.297  16.023 -0.0859 -0.1179 -0.0424
47439W        W56239  12.257   2.857   4.046 -0.1931  0.1011  0.2920
47440W        W56240  19.614   5.400   1.260  0.2266 -0.0349 -0.0251
47441W        W56241  11.500   3.806  18.082 -0.1303 -0.0900  0.0782
47442W        W56242  28.074   1.491  22.644 -0.0289  0.2470 -0.2931
47443W        W56243  16.887   4.513  19.257  0.0613 -0.0857 -0.0960
47444W        W56244   1.567   1.243  17.653 -0.2283 -0.1058  0.2921
47445W        W56245   4.085   2.683  24.274  0.0257 -0.1652  0.0748
47446W        W56246  22.462   0.642   6.891  0.0291  0.1069  0.0621
47447W        W56247   4.342   2.975   6.124 -0.0918 -0.1826  0.1090
47448W        W56248   6.299   1.455   0.853  0.0174 -0.3458  0.5294
47449W        W56249  29.911   4.993   8.331 -0.0379 -0.0751  0.0421
47450W        W56250  28.716   2.957   6.395 -0.1084 -0.0025  0.1105
47451W        W56251   5.208   0.503   1.021  0.0277 -0.0201  0.1064
47452W        W56252  28.465   4.551  20.735 -0.1734  0.0659  0.0492
47453W        W56253   7.943   3.233   0.734  0.1179  0.1083 -0.0649
47454W        W56254   0.996   1.138  23.119  0.2277  0.1054 -0.0827
47455W        W56255  25.819   7.503   7.702 -0.0180 -0.1755 -0.0368
47456W        W56256  19.437   1.544   8.555 -0.1015  0.1285  0.3246
47457W        W56257  17.062   2.750   4.123  0.1380 -0.0965  0.0265
47458W        W56258   6.327   3.289  18.259  0.0901  0.1587  0.1311
47459W        W56259  25.404   4.523   7.971  0.2124  0.0519  0.0050
47460W        W56260  22.097   3.451   6.569  0.0866  0.0725 -0.0646
47461W        W56261  27.196   7.073   2.697 -0.2085 -0.1340 -0.1378
47462W        W56262  22.082   3.903  21.797  0.2798  0.5256 -0.0540
47463W        W56263   7.431   4.928   0.622  0.1901 -0.3742 -0.1331
47464W        W56264  12.668   2.508  20.716  0.2586  0.2615  0.1608
47465W        W56265   3.729   1.484  22.676  0.1680 -0.4208  0.1385
47466W        W56266  22.956   1.975  19.663 -0.3621 -0.1594  0.1649
47467W        W56267  22.533   1.746   0.494  0.1569  0.0889  0.0456
47468W        W56268  14.031   7.326  20.592 -0.0307 -0.0392 -0.1892
47469W        W56269   9.521   3.735  10.675 -0.1669  0.1024  0.0218
47470W        W56270   0.047   4.418   6.088 -0.2613 -0.1460 -0.0722
47471W        W56271  26.268   7.041   9.843  0.2353 -0.1417 -0.0722
47472W        W56272  19.528   2.347   2.833  0.4452  0.0034 -0.0705
47473W        W56273  21.760   1.881  24.829 -0.2486  0.0517  0.1341
47474W        W56274   3.905   0.937   9.692 -0.1579 -0.0367 -0.2270
47475W        W56275  12.768   0.928  22.874 -0.1800  0.0744  0.1048
47476W        W56276  19.158   0.434   8.743  0.0450 -0.1770 -0.1629
47477W        W56277  18.133   4.428   7.548 -0.1493  0.2365 -0.0163
47478W        W56278   8.414   7.352  20.689  0.1653 -0.2652 -0.1583
47479W        W56279  11.291   0.702  23.042  0.1272 -0.0728  0.1318
47480W        W56280  23.058   2.222   4.947 -0.0696 -0.0626  0.1468
47481W        W56281  22.135   6.095  21.392 -0.0036 -0.0926  0.2004
47482W        W56282   3.343   3.634   6.915  0.1842 -0.2460 -0.0771
47483W        W56283  20.837   4.743   7.731  0.1816 -0.1429 -0.1411
47484W        W56284   8.528   1.574   9.915 -0.3164  0.0058 -0.0930
47485W        W56285  23.769   7.638   8.828  0.0080 -0.1123 -0.0423
47486W        W56286  10.771   4.374  19.109  0.0556  0.2264  0.1014
47487W        W56287  21.680   1.264  18.707 -0.1168 -0.0526  0.3168
47488W        W56288   1.615   5.387  16.936  0.0047  0.0642 -0.0672
47489W        W56289  24.154   2.174  15.691  0.1622 -0.0709 -0.2426
47490W        W56290  30.847   5.916  17.581  0.2751 -0.0579 -0.1122
47491W        W56291   6.007   1.378  19.351  0.0956  0.2042 -0.1985
47492W        W56292  14.664   6.749   0.304  0.0515  0.1072  0.1997
47493W        W56293  28.069   3.222   1.599  0.0852 -0.1870  0.1061
47494W        W56294  19.752   6.272  19.451  0.3059  0.5177 -0.1071
47495W        W56295  16.183   6.249  21.938  0.2274  0.0881 -0.2737
47496W        W56296  14.918   4.710   9.094 -0.0446  0.3272  0.1378
47497W        W56297  22.972   7.558  17.814 -0.2144  0.0601  0.3190
47498W        W56298   3.456   0.615  18.389  0.2521  0.4157 -0.0452
47499W        W56299  19.579   4.612  19.420 -0.5280  0.1464  0.1578
47500W        W56300  15.743   3.543  20.626 -0.0687 -0.3310  0.1117
47501W        W56301  25.982   7.327  16.435 -0.1366  0.0538 -0.1936
47502W        W56302   2.324   1.466   1.495  0.0438 -0.0118 -0.0178
47503W        W56303  20.989   1.189   7.710  0.0818 -0.1404  0.1384
47504W        W56304  13.118   1.981   1.427 -0.0782  0.1645  0.1093
47505W        W56305  16.751   4.787   5.083  0.2622  0.0618 -0.1864
47506W        W56306  10.815   6.968  23.943  0.1742 -0.0263  0.2197
47507W        W56307   2.407   3.891  23.698  0.1738 -0.0565  0.2447
47508W        W56308   4.411   1.823  17.659 -0.0256 -0.3201  0.0419
47509W        W56309  22.768   0.036  20.150 -0.1156  0.1862 -0.0039
47510W        W56310  12.779   2.629  25.683  0.0094 -0.0122 -0.0448
47511W        W56311  22.004   2.940   4.806 -0.0433 -0.0284  0.0778
47512W        W56312  17.425   5.540  10.761 -0.2033 -0.1635 -0.3414
47513W        W56313  18.085   5.583  17.546  0.1246  0.0369 -0.1670
47514W        W56314  13.974   7.140   1.395  0.0063  0.2126 -0.1205
47515W        W56315  11.823   3.007   6.717  0.0803  0.2728  0.0948
47516W        W56316  24.615   3.126  11.435  0.0058 -0.2904  0.0985
47517W        W56317  19.153   3.799   0.224 -0.2204 -0.0346  0.0332
47518W        W56318  28.892   1.372   7.793 -0.0275  0.0785 -0.5442
47519W        W56319   6.516   0.411   9.221  0.2206 -0.2980 -0.4395
47520W        W56320   1.704   4.571   7.170  0.1140  0.1314  0.0990
47521W        W56321  29.012   0.764   2.273 -0.0487  0.0907 -0.3606
47522W        W56322  30.412   5.917  19.988  0.0748  0.2383  0.0783
47523W        W56323  19.395   4.839   8.987  0.2618 -0.2522  0.2184
47524W        W56324  14.202   7.219   8.078 -0.1490 -0.0098  0.2339
47525W        W56325  10.354   2.285   0.908 -0.2065  0.1582  0.2318
47526W        W56326  19.706   2.357  24.616  0.2640  0.2193  0.2449
47527W        W56327  20.898   5.334  22.572  0.0482 -0.2292  0.0345
47528W        W56328   5.279   0.281  15.170 -0.2926 -0.1772 -0.4364
47529W        W56329  18.246   2.532  22.885 -0.3790  0.2206 -0.0905
47530W        W56330   0.189   7.182   4.333  0.0318 -0.0878  0.1279
47531W        W56331   8.126   4.270  20.161  0.3706  0.0671 -0.0332
47532W        W56332   2.536   5.913  24.473  0.0337 -0.1627 -0.0130
47533W        W56333  17.258   1.165   9.324  0.0543  0.2061 -0.2051
47534W        W56334  12.249   0.137  18.837  0.0607 -0.2411  0.1831
47535W        W56335  16.552   0.618   0.287 -0.0212 -0.0106 -0.1683
47536W        W56336   1.848   5.706   6.736  0.1937 -0.8003 -0.0033
47537W        W56337   7.137   3.234   6.695 -0.1551  0.0069  0.0547
47538W        W56338   5.628   5.520  15.928  0.0588 -0.1774 -0.1169
47539W        W56339  16.317   2.098  17.316  0.1861  0.0053 -0.3148
47540W        W56340  30.631   0.110   4.242 -0.0611 -0.0665  0.0716
47541W        W56341   9.497   7.770  23.264 -0.0084 -0.1454 -0.1527
47542W        W56342  21.505   2.586  10.137 -0.2930 -0.0498  0.1834
47543W        W56343   0.967   2.755  18.451 -0.2173 -0.0491 -0.0285
47544W        W56344  11.356   5.990  20.790  0.2915 -0.2615  0.0009
47545W        W56345   0.476   3.571  16.018  0.0382 -0.0422 -0.0303
47546W        W56346  24.010   4.375  18.098 -0.0189  0.3272 -0.0257
47547W        W56347  13.697   2.696  10.704 -0.0457  0.1669 -0.2324
47548W        W56348  19.908   2.991  22.029  0.3013 -0.0605  0.3635
47549W        W56349  23.148   1.273  24.678  0.2929 -0.0574 -0.0646
47550W        W56350  25.419   2.368   4.854  0.2207 -0.1808 -0.0828
47551W        W56351  30.224   6.225   3.956 -0.0513 -0.1644 -0.1550
47552W        W56352  29.175   1.888   3.644  0.0135 -0.1272 -0.2826
47553W        W56353  20.860   1.799   0.749 -0.3469  0.1049  0.1548
47554W        W56354   8.582   7.701   3.438 -0.0975  0.3905 -0.3083
47555W        W56355   7.451   4.192  17.063 -0.0092 -0.1076 -0.0614
47556W        W56356  17.522   0.338  26.066 -0.1450 -0.2579  0.0788
47557W        W56357  17.875   5.035  23.770 -0.5707 -0.1834  0.1021
47558W        W56358  22.414   6.019  25.523 -0.2976  0.1602 -0.1370
47559W        W56359  20.202   4.989  11.371 -0.0505  0.1189  0.1738
47560W        W56360  21.491   4.782  10.241  0.3539  0.1035 -0.0010
47561W        W56361  24.228   7.735   4.973  0.0488 -0.0882  0.1115
47562W        W56362   1.533   7.747  19.910 -0.0375 -0.0506 -0.1467
47563W        W56363  20.184   0.271  18.549  0.2259  0.1430 -0.3461
47564W        W56364  28.009   4.446  25.579 -0.1998  0.0178 -0.1169
47565W        W56365  14.770   3.920   8.426 -0.1030 -0.0378  0.1561
47566W        W56366  21.498   7.196  20.036  0.2070  0.5013  0.0118
47567W        W56367  14.566   6.560   2.946 -0.2661 -0.2067  0.0953
47568W        W56368  28.971   1.116   1.388  0.2518 -0.1564  0.2359
47569W        W56369   5.125   7.526   3.012 -0.1818 -0.1492 -0.2732
47570W        W56370   1.361   2.497   6.850 -0.2553  0.0210  0.3515
47571W        W56371   1.307   6.381  24.822 -0.2981  0.1583  0.0053
47572W        W56372   2.192   7.004   4.680 -0.0934  0.2286 -0.0538
47573W        W56373   9.254   2.123  20.842  0.3635  0.2634 -0.1933
47574W        W56374   4.206   7.203   4.404  0.0728  0.2073  0.0846
47575W        W56375  24.340   3.922  17.330  0.2376  0.0493  0.1830
47576W        W56376  21.910   4.615  22.455 -0.0642 -0.0717  0.0492
47577W        W56377  23.612   6.851  24.260  0.1659  0.2632 -0.2236
47578W        W56378   6.982   0.117   5.054  0.0433  0.2266 -0.2058
47579W        W56379   9.184   7.667   7.746  0.1268  0.1137 -0.0683
47580W        W56380  28.798   7.001   1.250  0.1211  0.0794 -0.4314
47581W        W56381  15.602   4.702  17.990 -0.3232 -0.1755 -0.1419
47582W        W56382   7.602   6.967   2.633  0.1335 -0.0349 -0.3891
47583W        W56383  27.049   7.097  24.175 -0.0430  0.0075  0.0962
47584W        W56384  14.387   5.967  23.049  0.1339 -0.2123  0.0883
47585W        W56385  16.680   3.806   2.855  0.2653  0.0426  0.0919
47586W        W56386  25.169   7.729  15.741  0.1673 -0.1786 -0.0927
47587W        W56387  21.619   5.269  17.466 -0.0816 -0.1291 -0.0393
47588W        W56388  23.888   2.290  18.994 -0.0171  0.1875 -0.2328
47589W        W56389  15.381   0.250  16.106 -0.1393 -0.0227  0.0909
47590W        W56390  27.260   0.840  23.260 -0.2228 -0.1481  0.2125
47591W        W56391  16.040   6.540  17.916 -0.0594 -0.0105  0.1240
47592W        W56392   3.596   4.004  20.880 -0.1071 -0.0753  0.1019
47593W        W56393  30.358   4.272  15.961  0.2853  0.1075  0.1368
47594W        W56394   9.020   6.382   1.653  0.0002  0.0051 -0.0014
47595W        W56395  13.379   7.602   7.039 -0.1039  0.1122  0.1418
47596W        W56396  15.580   5.259  21.955 -0.1291 -0.0948  0.1721
47597W        W56397  12.093   4.184  24.984  0.0769 -0.2379  0.3175
47598W        W56398  22.618   0.461   0.556  0.0152 -0.2680 -0.2098
47599W        W56399  18.270   1.117   3.625 -0.1622  0.0220  0.1211
47600W        W56400  14.634   1.810   1.281  0.1519 -0.3060 -0.1174
47601W        W56401   8.344   6.002  21.687  0.0898  0.1177  0.0100
47602W        W56402   1.728   1.001  20.832  0.0046 -0.4002 -0.1299
47603W        W56403   3.850   3.174  24.496  0.0945  0.0426 -0.2092
47604W        W56404  17.479   6.472  21.467 -0.1703  0.0439  0.0788
47605W        W56405  29.192   5.374  22.476  0.2031 -0.0934  0.1118
47606W        W56406  24.724   6.760  15.852 -0.0122 -0.1774  0.1139
47607W        W56407   0.371   2.407  16.977 -0.3440  0.0537 -0.1164
47608W        W56408  25.469   7.173  24.844  0.1652 -0.2017 -0.0030
47609W        W56409  28.640   7.639   4.255  0.1925  0.0703  0.1617
47610W        W56410  16.094   5.557  24.438 -0.1186  0.0168 -0.0734
47611W        W56411   4.606   7.528  23.365 -0.1261  0.0273 -0.0344
47612W        W56412   3.988   0.295  17.226 -0.0601 -0.2536 -0.0951
47613W        W56413   5.459   0.369  20.103 -0.3355  0.0268  0.0486
47614W        W56414  30.975   6.938  21.228  0.0982  0.0446 -0.0632
47615W        W56415   3.822   3.952  18.825  0.1415  0.1161  0.0924
47616W        W56416  17.335   0.699   8.942 -0.3069 -0.1602  0.0433
47617W        W56417  17.503   2.263   4.928  0.0622  0.0948  0.4643
47618W        W56418  16.563   0.329  21.090 -0.3969  0.1263  0.2498
47619W        W56419  13.533   0.253  23.855 -0.0254  0.1837  0.1206
47620W        W56420  10.335   6.392   1.138 -0.3337  0.2037 -0.2080
47621W        W56421   4.867   3.348   6.085  0.1519 -0.2530 -0.2359
47622W        W56422  14.706   0.511   7.151  0.0295 -0.0883  0.1398
47623W        W56423  21.454   0.416  24.185  0.1173 -0.1660 -0.0094
47624W        W56424  12.899   1.606   8.005  0.0028 -0.0648  0.0575
47625W        W56425  27.390   5.975   7.444 -0.2823 -0.1097 -0.0908
47626W        W56426  10.654   7.745  23.121  0.3617  0.0885  0.1930
47627W        W56427  22.439   0.875  17.306  0.1560 -0.0580 -0.5140
47628W        W56428  22.538   0.081  19.280  0.0003  0.2140 -0.1999
47629W        W56429  22.760   7.443  17.355  0.2105  0.0072  0.1232
47630W        W56430  10.222   4.988   7.612 -0.2162 -0.2964  0.0244
47631W        W56431  10.602   7.495  15.549 -0.2649  0.0185  0.2510
47632W        W56432  31.231   6.531  25.330  0.2074  0.1048  0.4166
47633W        W56433  19.643   7.631   6.847  0.1475 -0.4805 -0.1960
47634W        W56434  20.171   5.148   6.301  0.0082 -0.1095 -0.2511
47635W        W56435   8.969   5.381   2.131 -0.1368  0.1838  0.2324
47636W        W56436  15.407   2.332  25.592 -0.0816  0.2010 -0.0747
47637W        W56437  13.782   7.243  17.596  0.1401  0.2617 -0.1455
47638W        W56438   8.557   2.022   2.446 -0.0177  0.0969  0.1349
47639W        W56439   7.535   1.084  23.987 -0.0974  0.1013 -0.1827
47640W        W56440   9.057   3.946  21.577 -0.2359  0.0681  0.0854
47641W        W56441  18.157   6.092  19.912 -0.0158 -0.1046 -0.0804
47642W        W56442   1.786   2.690   0.358  0.4283 -0.0654 -0.0774
47643W        W56443   2.005   3.263   4.043  0.1424 -0.0259  0.1325
47644W        W56444  22.220   2.243  16.623  0.0115  0.0430 -0.1704
47645W        W56445   1.420   3.001  20.236  0.2542 -0.2188 -0.0772
47646W        W56446  22.341   5.744   7.776  0.0247 -0.0633 -0.0140
47647W        W56447  28.974   3.710   9.188  0.0338 -0.0315 -0.1995
47648W        W56448  16.026   0.841   0.804 -0.1469 -0.0916 -0.2861
47649W        W56449   0.213   1.097   4.983 -0.0105 -0.1499  0.1653
47650W        W56450  13.950   5.023  10.376  0.2408  0.0682 -0.0699
47651W        W56451  13.427   5.432  20.851 -0.0725 -0.0746 -0.1404
47652W        W56452  20.714   6.651  23.184 -0.0008 -0.0566 -0.2546
47653W        W56453  17.090   4.896   3.966  0.0430 -0.1658 -0.1385
47654W        W56454  31.079   5.935   9.120  0.2703  0.1237  0.0788
47655W        W56455   9.007   4.634   5.094 -0.0753 -0.0628 -0.0382
47656W        W56456   1.932   7.240  20.178  0.1650  0.1605  0.5446
47657W        W56457   7.542   7.345   4.457 -0.1975 -0.1009  0.0288
47658W        W56458  25.978   4.819   2.960 -0.1208 -0.1699 -0.0694
47659ION     NA56459  24.461   3.905   7.962 -0.0349  0.4398 -0.2699
47660ION     NA56460   0.513   0.097  21.951  0.1829 -0.0378 -0.1421
47661ION     NA56461  16.790   2.100  22.399 -0.0144 -0.1924  0.0739
47662ION     NA56462  24.676   0.992  16.752  0.2577 -0.3377 -0.4837
47663ION     NA56463  12.676   2.896   5.676 -0.2766 -0.3079 -0.0062
47664ION     NA56464  13.054   5.017  25.515  0.2649  0.4191  0.2397
47665ION     NA56465  11.019   0.852   5.209 -0.1335  0.3577  0.1947
47666ION     NA56466  16.271   5.607   3.085 -0.0704 -0.2660  0.0509
47667ION     NA56467  29.507   0.059  20.607  0.1058  0.2763 -0.0454
47668ION     NA56468   5.781   7.635   5.834  0.0968 -0.1580 -0.4702
47669ION     NA56469  17.634   4.332   0.846 -0.0339  0.2398  0.1333
47670ION     NA56470  24.371   6.309   1.037  0.1450 -0.1845 -0.0337
47671ION     NA56471  13.842   4.385  18.180  0.5489 -0.0415 -0.2372
47672ION     NA56472  14.959   7.190   8.793  0.0396  0.2787  0.0647
47673ION     NA56473  18.633   0.210  20.005  0.5835  0.1095 -0.0318
47674ION     NA56474  20.732   5.241  20.789  0.0433 -0.1659 -0.0070
47675ION     NA56475  21.242   4.313  20.353  0.1792 -0.0380 -0.2918
47676ION     NA56476   4.102   4.043  23.698 -0.2024 -0.2200 -0.0633
47677ION     NA56477  23.528   0.487  16.486  0.0584  0.5163  0.8766
47678ION     NA56478   8.492   1.346  17.475 -0.1770  0.1319 -0.8502
47679ION     NA56479   8.977   6.553  17.653 -0.1129 -0.1861 -0.4355
47680ION     NA56480   7.089   1.151  22.777  0.0334 -0.1204  0.0952
47681ION     NA56481  31.196   0.918   2.246  0.0116 -0.0164  0.0979
47682ION     NA56482  25.790   7.571  20.753  0.1803  0.3286 -0.4552
47683ION     NA56483  18.232   2.104  16.633  0.1866 -0.1257  0.1737
47684ION     NA56484  10.950   6.534  25.504 -0.0270 -0.5094 -0.1336
47685ION     NA56485  20.682   1.884  19.970  0.1883 -0.4852  0.2944
47686ION     NA56486   4.872   0.678   1.323 -0.4474  0.3352 -0.2460
47687ION     NA56487  26.605   6.905  21.386 -0.1478 -0.2610  0.0181
47688ION     NA56488  26.905   7.802  25.232  0.0028  0.0245 -0.0776
47689ION     NA56489  22.639   5.844  23.975 -0.5371  0.2163 -0.1158
47690ION     NA56490  25.537   1.176  18.537  0.0068  0.0158 -0.1127
47691ION     NA56491  30.688   0.772   5.847 -0.1568 -0.4182  0.4357
47692ION     NA56492   9.664   6.114  20.011 -0.2131 -0.3191  0.1401
47693ION     NA56493   7.433   3.809   0.232  0.0188  0.2231  0.3417
47694ION     NA56494   4.375   0.201  19.138 -0.0663 -0.2232 -0.2354
47695ION     NA56495  20.101   0.272  20.637  0.4538  0.1310 -0.0529
47696ION     NA56496   0.323   1.556  25.247  0.2639  0.0000  0.0050
47697ION     NA56497  21.624   0.263   9.121  0.6936 -0.4826 -0.0483
47698ION     NA56498  18.397   1.684   7.098 -0.3404 -0.1861  0.0173
47699ION     NA56499   8.397   5.965  23.439  0.0786  0.0958  0.0299
47700ION     NA56500  18.635   3.871  22.619 -0.0370 -0.2504 -0.0079
47701ION     NA56501  29.282   0.621   4.551  0.0831 -0.0132  0.0268
47702ION     NA56502  25.899   3.863   2.001 -0.0664  0.0269  0.4406
47703ION     NA56503   6.292   5.840  24.937  0.0142  0.2213  0.0139
47704ION     NA56504  29.966   1.357   0.051  0.2348 -0.0543 -0.1518
47705ION     NA56505  22.045   5.407  25.472 -0.4955  0.1118  0.1866
47706ION     NA56506   1.419   5.306  19.754  0.0627 -0.0526  0.1913
47707ION     NA56507   2.539   7.418   8.664  0.1897 -0.3751 -0.1172
47708ION     NA56508   2.564   3.882   7.894 -0.2308  0.4506  0.1467
47709ION     NA56509   9.202   4.689   6.310 -0.2853 -0.0187  0.0099
47710ION     NA56510   7.417   2.406   5.578 -0.1944 -0.0600 -0.2268
47711ION     NA56511  18.538   3.708   6.673  0.2575 -0.1609  0.0412
47712ION     NA56512  25.278   3.440  20.371  0.1069 -0.0261  0.2344
47713ION     NA56513  29.483   5.031   1.615 -0.3941  0.1453  0.2846
47714ION     NA56514  16.240   7.277  22.687 -0.1815  0.1682 -0.0440
47715ION     NA56515   7.726   5.349  17.101  0.6495  0.4220  0.0121
47716ION     NA56516  16.322   2.731  18.842 -0.0643 -0.0967 -0.0327
47717ION     NA56517   1.331   1.100  15.624 -0.2104  0.0656 -0.0080
47718ION     NA56518  21.326   7.181   6.662 -0.0549 -0.1886  0.0281
47719ION     NA56519  17.209   3.761  23.582 -0.0628  0.1483 -0.3057
47720ION     NA56520  25.986   5.726  20.159  0.1522  0.2724 -0.2466
47721ION     NA56521  10.527   1.514  17.018 -0.2461 -0.1124  0.0434
47722ION     NA56522  14.302   0.554   3.943 -0.1534 -0.2762 -0.2455
47723ION     NA56523   8.494   0.964  24.714 -0.4946 -0.0933 -0.0242
47724ION     NA56524  13.485   4.230  18.755 -0.0114  0.4851 -0.4453
47725ION     NA56525  20.688   2.657  16.152  0.4387 -0.3086 -0.1094
47726ION     NA56526   1.139   7.320  22.956 -0.5352  0.3627 -0.1056
47727ION     NA56527  13.044   3.766  22.645 -0.0298 -0.2644 -0.0757
47728ION     NA56528  13.461   6.280  21.147 -0.0294  0.0077  0.5939
47729ION     NA56529   0.743   3.129   8.755 -0.5789 -0.4748 -0.3590
47730ION     NA56530   0.235   0.338   8.762 -0.6301  0.1759  0.1653
47731ION     NA56531  26.633   4.806  21.149  0.3245  0.3282  0.4008
47732ION     NA56532  16.469   6.031  19.237 -0.4025  0.2218 -0.4910
47733ION     NA56533  15.118   3.315  19.526  0.2455  0.0869 -0.2644
47734ION     NA56534  10.695   1.925   5.263 -0.6213  0.2858 -0.3662
47735ION     NA56535   5.733   5.702  15.541  0.1293 -0.1333 -0.5972
47736ION     NA56536  30.012   6.704   3.267  0.1960 -0.1518  0.0489
47737ION     NA56537  11.771   6.760  22.661  0.0515  0.2987  0.3447
47738ION     NA56538  29.451   6.159  10.507  0.5062 -0.1138 -0.4025
47739ION     NA56539   8.332   5.796   9.750  0.0245 -0.0025  0.1123
47740ION     NA56540  11.945   1.240   0.655 -0.0594 -0.0010 -0.3387
47741ION     NA56541  24.997   1.038  19.263  0.4279  0.1153  0.1335
47742ION     NA56542  29.932   1.686   5.078  0.0250 -0.1184  0.3418
47743ION     NA56543   5.769   1.784  24.577 -0.1054  0.0385 -0.0783
47744ION     NA56544  13.027   4.363  18.131  0.2860  0.2219  0.1592
47745ION     NA56545  23.127   1.050  22.102  0.0541  0.2685 -0.0454
47746ION     NA56546  20.838   3.478   9.280 -0.1260 -0.4281  0.1332
47747ION     NA56547  15.799   2.721   1.528 -0.2364 -0.3388  0.1592
47748ION     NA56548  22.891   6.978   4.529 -0.3935  0.3285  0.0246
47749ION     NA56549  28.006   2.321  17.324  0.1207  0.7311 -0.5076
47750ION     NA56550  22.065   1.309  18.879 -0.1373  0.0322 -0.1688
47751ION     NA56551  14.940   4.244   5.857  0.1350 -0.2108 -0.2652
47752ION     NA56552   2.443   4.678   0.636 -0.0202  0.4764  0.5122
47753ION     NA56553  12.285   2.470  18.219  0.1187  0.3843  0.2185
47754ION     NA56554  21.258   5.517   9.752  0.1212 -0.3173 -0.3160
47755ION     NA56555  14.643   4.112  23.732  0.0731  0.5855  0.0585
47756ION     NA56556   1.541   2.160  22.277  0.0673 -0.0697 -0.0942
47757ION     NA56557  25.474   0.446  15.188 -0.0476 -0.0581 -0.2721
47758ION     NA56558  21.528   2.219  19.954 -0.2413  0.0411  0.0238
47759ION     NA56559   4.493   1.729   0.814 -0.3060 -0.6465 -0.2460
47760ION     NA56560  14.007   1.410  25.176 -0.1350  0.3040 -0.4897
47761ION     NA56561   6.024   3.182  16.179  0.0911  0.1031 -0.3899
47762ION     NA56562  20.688   5.061  24.646 -0.1289  0.0418  0.4008
47763ION     NA56563   0.336   2.417   9.338  0.0366 -0.0192 -0.1479
47764ION     NA56564  15.882   6.604   3.249  0.3639  0.1158  0.1299
47765ION     NA56565   6.331   7.234   8.137  0.1497 -0.1426  0.4909
47766ION     NA56566   3.219   4.981  19.015 -0.0533  0.0228 -0.1065
47767ION     NA56567  26.754   5.843   4.508  0.1727 -0.4091  0.1851
47768ION     NA56568  20.634   5.085   9.249 -0.4264  0.0215 -0.1716
47769ION     NA56569  21.005   0.588  10.838 -0.1728 -0.0342 -0.0262
47770ION     NA56570   4.544   0.920  18.746 -0.1389  0.3528  0.1679
47771ION     NA56571  10.347   4.287  21.848  0.0243 -0.3718 -0.0193
47772ION     NA56572  13.152   0.210   2.562  0.1000  0.2449  0.1542
47773ION     NA56573   0.684   2.576  24.190 -0.0773 -0.0541  0.1994
47774ION     NA56574  13.949   0.688  20.576  0.0049  0.0372  0.3254
47775ION     NA56575   5.748   7.697   9.217 -0.5432  0.4482 -0.1727
47776ION     NA56576   6.190   1.446  21.723 -0.3402  0.1728 -0.1234
47777ION     NA56577  15.242   6.266  17.498  0.2359 -0.0711 -0.1351
47778ION     NA56578  28.828   7.455  20.769 -0.3237  0.3810  0.3013
47779ION     NA56579  10.070   4.420   0.683 -0.1862 -0.1324 -0.0490
47780ION     NA56580  29.622   1.076   9.493  0.1027 -0.3137  0.2103
47781ION     NA56581   6.392   7.174   4.270  0.4638  0.0789 -0.1581
47782ION     NA56582   4.331   1.177   5.683 -0.2871  0.1336 -0.0422
47783ION     NA56583  18.649   2.631   5.025  0.2825  0.0840 -0.4937
47784ION     NA56584  28.051   5.949  22.860 -0.0012 -0.0186  0.4114
47785ION     NA56585  10.356   6.678  19.742 -0.1100 -0.0079  0.1369
47786ION     NA56586   0.248   1.246   6.302 -0.2180  0.1355  0.0977
47787ION     NA56587   6.986   3.080   1.363  0.0640 -0.4020 -0.3788
47788ION     NA56588  19.433   1.569  24.515 -0.2015 -0.2457 -0.4177
47789ION     NA56589  20.258   7.521   8.382  0.0420  0.3459 -0.3910
47790ION     NA56590   7.862   4.519  16.412  0.0466  0.1953 -0.1576
47791ION     NA56591  15.745   2.991  24.122  0.2046  0.4152  0.4315
47792ION     NA56592  20.914   2.104  16.848 -0.1188 -0.0249 -0.4021
47793ION     NA56593   6.313   6.160  15.012  0.0922  0.4297  0.1504
47794ION     NA56594   1.778   3.446  22.989 -0.3104  0.0230  0.2373
47795ION     NA56595  25.171   5.879   9.937  0.1100 -0.1510 -0.0054
47796ION     NA56596  11.601   0.740   8.188 -0.4159  0.1078 -0.0184
47797ION     NA56597   7.507   7.461  20.960 -0.0376  0.2233  0.0743
47798ION     NA56598   3.539   1.938  18.768  0.2914  0.0673 -0.3271
47799ION     NA56599  26.873   3.408  25.282  0.0490  0.0398  0.1331
47800ION     NA56600   2.637   1.432  17.328  0.2328 -0.0751 -0.2155
47801ION     NA56601  13.106   3.740   8.575 -0.0830 -0.0431 -0.1618
47802ION     NA56602  15.896   1.098  18.894 -0.2361 -0.3535 -0.2104
47803ION     NA56603  29.636   7.456  18.698 -0.2270  0.0778  0.2081
47804ION     CL56604   9.160   7.271  17.742  0.3468 -0.3194  0.3276
47805ION     CL56605  24.333   0.668   6.457 -0.3940  0.1673 -0.1636
47806ION     CL56606  15.744   4.999  18.564  0.0574  0.1179 -0.0525
47807ION     CL56607   3.887   0.633  18.531 -0.0068  0.0569 -0.3438
47808ION     CL56608   5.725   4.596  19.894  0.5303  0.2405 -0.2219
47809ION     CL56609   0.086   2.643   5.802 -0.2100 -0.0412  0.3554
47810ION     CL56610  31.050   2.536   4.142  0.0525  0.5388 -0.1039
47811ION     CL56611  21.450   3.087   3.868  0.4101 -0.0477 -0.4993
47812ION     CL56612   8.050   2.041  21.927 -0.0087 -0.4212  0.2518
47813ION     CL56613   1.453   2.244  20.797  0.0709  0.2035  0.3508
47814ION     CL56614   0.804   6.236   9.644  0.1796 -0.2355 -0.2216
47815ION     CL56615  22.009   5.068  20.324  0.1997  0.1847  0.1988
47816ION     CL56616  12.018   1.019   2.630  0.0492  0.1237  0.0233
47817ION     CL56617   8.130   1.219  25.239  0.2014 -0.4020 -0.0699
47818ION     CL56618   9.850   3.520  20.701 -0.1503 -0.1458 -0.3146
47819ION     CL56619  30.717   6.987  19.132  0.5726  0.2021 -0.5096
47820ION     CL56620  23.816   1.422  21.363 -0.0588 -0.0834  0.4888
47821ION     CL56621  12.433   0.754   4.023 -0.2949 -0.1283 -0.1194
47822ION     CL56622  11.758   1.337   6.621 -0.3295  0.1835  0.1649
47823ION     CL56623   0.003   4.299  17.586 -0.2058  0.2537  0.4100
47824ION     CL56624   1.137   5.358  15.354  0.3207  0.2123 -0.1454
47825ION     CL56625  13.986   4.166  10.093  0.1947 -0.3840  0.3788
47826ION     CL56626  14.298   0.902   3.856  0.1275 -0.2481 -0.0063
47827ION     CL56627  11.664   1.892   2.368 -0.0897  0.1928  0.0162
47828ION     CL56628   2.995   0.114   1.960 -0.2461  0.0618  0.2877
47829ION     CL56629  29.728   1.950   9.935  0.2546 -0.1001 -0.1207
47830ION     CL56630  17.396   2.691   7.962 -0.0364 -0.2859 -0.0932
47831ION     CL56631   8.076   0.926  17.209 -0.0770 -0.1354  0.0165
47832ION     CL56632  24.327   6.508   1.354  0.1595  0.2073 -0.0009
47833ION     CL56633   3.905   4.139  23.435  0.0481  0.2014 -0.0805
47834ION     CL56634  24.020   0.281   7.064  0.1537 -0.2498  0.1706
47835ION     CL56635   8.903   0.652  25.306 -0.0862  0.1004  0.2156
47836ION     CL56636  17.192   0.652  25.647 -0.0733 -0.2225  0.0814
47837ION     CL56637  17.467   3.707  22.831 -0.1646  0.0063  0.1005
47838ION     CL56638  18.041   0.621  19.483  0.5283 -0.1223  0.1001
47839ION     CL56639  29.339   0.191  20.316 -0.0927 -0.1947 -0.6124
47840ION     CL56640  19.589   1.838  22.497 -0.2352  0.3748 -0.0914
47841ION     CL56641  23.290   6.544  19.805 -0.2321  0.5977  0.0577
47842ION     CL56642  10.899   5.891   5.438 -0.2052 -0.4925 -0.4636
47843ION     CL56643   6.967   5.589  23.926 -0.2681 -0.3681 -0.0218
47844ION     CL56644  13.505   1.992  16.610 -0.4766 -0.3376 -0.1282
47845ION     CL56645   8.497   3.579  16.034 -0.3745  0.1314 -0.0413
47846ION     CL56646  23.143   3.680  20.680 -0.1943 -0.2887  0.2995
47847ION     CL56647  24.021   2.696   6.463  0.2042 -0.0174 -0.2706
47848ION     CL56648  25.835   0.501   6.417  0.0523  0.0736 -0.1820
47849ION     CL56649  29.571   1.275  18.785 -0.3476  0.1478 -0.5431
47850ION     CL56650   4.049   3.011   7.882 -0.0994  0.1473  0.2871
47851ION     CL56651   4.313   7.371  19.443 -0.3955 -0.0947 -0.0181
47852ION     CL56652   4.500   3.737   1.491  0.0454  0.1388 -0.0897
47853ION     CL56653  15.312   0.725  18.517 -0.4962 -0.1455 -0.0210
47854ION     CL56654  19.191   4.866   6.152  0.0038 -0.0387  0.0363
47855ION     CL56655   5.556   7.130   0.926 -0.5049 -0.0454  0.1724
47856ION     CL56656   9.533   3.385  10.450 -0.0915 -0.0585  0.0211
47857ION     CL56657  14.387   0.593   6.571 -0.3790 -0.3657  0.2827
47858ION     CL56658   9.363   5.932   0.632 -0.0830  0.1037 -0.5684
47859ION     CL56659  25.886   0.904   9.626 -0.1220  0.0516  0.2562
47860ION     CL56660   9.271   1.835  17.335 -0.0670  0.0705  0.2125
47861ION     CL56661   6.667   2.954   1.419  0.0148 -0.3041 -0.0900
47862ION     CL56662  27.182   7.152  17.738 -0.3219  0.4318  0.0892
47863ION     CL56663  12.849   3.263   3.696  0.0234 -0.0998  0.0164
47864ION     CL56664  27.506   2.040  17.610  0.0589 -0.3851 -0.0765
47865ION     CL56665   4.977   3.875   2.410 -0.0942  0.2570 -0.0699
47866ION     CL56666  28.941   7.113  19.046 -0.0627 -0.1858 -0.1454
47867ION     CL56667  20.962   6.471  20.564 -0.0111 -0.0656 -0.1127
47868ION     CL56668  28.838   1.901  24.487 -0.0502  0.1654  0.4132
47869ION     CL56669   3.840   0.227  15.849  0.0906 -0.1062  0.3347
47870ION     CL56670  20.426   0.014  22.583  0.2081  0.0235 -0.2028
47871ION     CL56671  13.067   4.973  25.132  0.1607 -0.6623 -0.7605
47872ION     CL56672  31.259   0.944   2.985 -0.0081 -0.1316 -0.1102
47873ION     CL56673  21.798   4.145  20.117  0.0167 -0.0436  0.2142
47874ION     CL56674   7.846   1.840   7.119 -0.1266 -0.5228 -0.1171
47875ION     CL56675  14.784   7.794   6.609 -0.4845 -0.1920 -0.1288
47876ION     CL56676   2.588   2.720  19.772  0.2172  0.1647 -0.1802
47877ION     CL56677  13.342   4.326  19.422  0.0888  0.2209 -0.0116
47878ION     CL56678  16.913   1.766  24.475  0.2532 -0.1279  0.2598
47879ION     CL56679  20.029   3.213  18.900 -0.1107 -0.1052 -0.0033
47880ION     CL56680  20.982   2.802  16.298  0.3807  0.4139  0.0859
47881ION     CL56681   6.591   5.171  21.395  0.0559  0.4071 -0.8752
47882ION     CL56682  16.741   6.301  21.457 -0.0528 -0.1798 -0.2358
47883ION     CL56683  21.519   5.372   0.546  0.1850 -0.0692 -0.4199
47884ION     CL56684  21.838   1.434   7.964  0.1705 -0.1513  0.1248
47885ION     CL56685   4.235   2.408  18.804 -0.1044 -0.1167 -0.2532
47886ION     CL56686   7.948   5.895  24.396  0.0221  0.1620 -0.4288
47887ION     CL56687  30.399   5.580   8.482 -0.2139 -0.0387  0.0177
47888ION     CL56688   3.430   5.059  18.472 -0.0045  0.0196 -0.2776
47889ION     CL56689  20.131   0.608  20.692 -0.0187 -0.2126  0.1397
47890ION     CL56690  11.818   7.615   1.617  0.1843  0.1980  0.2009
47891ION     CL56691   9.485   1.725  18.603  0.1098 -0.3358 -0.2180
47892ION     CL56692  25.958   6.091   4.296  0.1606  0.3502  0.1104
47893ION     CL56693   1.755   2.497   7.719 -0.1246  0.2760  0.1297
47894ION     CL56694  16.782   0.372   1.533 -0.3478 -0.5757 -0.1627
47895ION     CL56695  26.482   0.536  25.362 -0.1696  0.0798  0.0587
47896ION     CL56696  24.733   6.300   3.823  0.2212  0.0958 -0.0259
47897ION     CL56697   9.459   6.991  19.430  0.8403  0.0765  0.0885
47898ION     CL56698   2.297   6.996  22.994 -0.1215 -0.2233 -0.4037
47899ION     CL56699  29.336   3.170  20.816 -0.2246 -0.3081 -0.0526
47900ION     CL56700  30.368   4.476   4.347 -0.0411 -0.1649  0.5123
47901ION     CL56701  10.823   6.494   1.766  0.0787 -0.0820 -0.0607
47902ION     CL56702  26.067   0.746  22.319  0.0910  0.0107  0.3151
47903ION     CL56703  27.940   6.033   6.809  0.3665  0.3276  0.0501
47904ION     CL56704   5.055   7.716  19.390 -0.3876 -0.2835 -0.3706
47905ION     CL56705  12.367   7.114   4.705  0.2103  0.0479 -0.3027
47906ION     CL56706  26.320   7.174  16.564  0.4791  0.0868 -0.3683
47907ION     CL56707  24.991   4.605  21.549 -0.1776  0.0557 -0.2240
47908ION     CL56708  17.737   0.835  16.026 -0.5746 -0.1699  0.0873
47909ION     CL56709   7.186   5.667  26.072 -0.0620 -0.0413 -0.0830
47910ION     CL56710   1.330   7.596  23.103  0.1035  0.2403 -0.1107
47911ION     CL56711   6.216   2.839  21.938 -0.3593  0.0327  0.4953
47912ION     CL56712  13.862   0.381   2.097  0.1141  0.0861 -0.1324
47913ION     CL56713   8.387   1.722   3.422  0.1703 -0.0933  0.2366
47914ION     CL56714  10.487   5.363  16.782 -0.4019 -0.0830 -0.2247
47915ION     CL56715  20.064   1.987   3.702  0.1965 -0.0274  0.1263
47916ION     CL56716   2.595   1.185   6.946 -0.3023 -0.0819 -0.5009
47917ION     CL56717   7.926   0.719  20.401 -0.4038  0.1939  0.0787
47918ION     CL56718  20.948   0.314  10.562 -0.2920  0.3927 -0.0502
47919ION     CL56719  18.900   7.618  19.601  0.2210 -0.2284 -0.0068
47920ION     CL56720   9.035   6.288  19.002  0.1202  0.4302 -0.0639
47921ION     CL56721  20.956   1.480  20.194 -0.1076  0.0760  0.0591
47922ION     CL56722  17.311   3.607   1.720  0.0545  0.1412 -0.3131
47923ION     CL56723  26.029   5.400  19.575 -0.2093 -0.1616 -0.2782
47924ION     CL56724   5.660   4.428   7.879 -0.1347  0.1897  0.3764
47925ION     CL56725  16.370   1.400   9.099 -0.0552  0.0512 -0.5854
47926ION     CL56726  23.498   1.154  16.613 -0.3131  0.3119  0.0123
47927ION     CL56727  16.485   2.775   2.191  0.5709  0.0314  0.1743
47928ION     CL56728   4.871   0.598   5.834 -0.1018  0.0090  0.0317
47929ION     CL56729   4.123   5.317   1.441  0.1004  0.0658  0.2986
47930ION     CL56730  16.681   4.764  16.218 -0.0689  0.0728 -0.2583
47931ION     CL56731  30.722   3.950   0.732  0.2952  0.0144  0.5155
47932ION     CL56732   7.217   4.270   4.934  0.1247  0.4330  0.1168
47933ION     CL56733  26.034   6.735   4.141  0.0735 -0.7600 -0.1736
47934ION     CL56734  23.782   1.140   2.929  0.1046  0.4319 -0.2678
47935ION     CL56735  28.530   2.084  21.192 -0.5229 -0.0996  0.0408
47936ION     CL56736   0.375   6.610  22.828 -0.0477  0.1442 -0.2425
47937ION     CL56737  29.890   6.547   8.808  0.0443  0.2566 -0.2784
47938ION     CL56738   9.379   3.177  19.611 -0.1727 -0.3125  0.3185
47939ION     CL56739  10.893   6.260   8.948  0.0638  0.1506  0.4164
47940ION     CL56740  13.185   4.962   8.100  0.1745 -0.1961  0.2541
47941ION     CL56741  19.154   7.483  23.553 -0.1820 -0.1258 -0.2916
47942ION     CL56742  30.702   2.473  18.030 -0.1808 -0.0367 -0.1954
47943ION     CL56743  17.345   3.815   6.042  0.1847  0.0097  0.4011
47944ION     CL56744  21.185   2.602   8.112  0.4476  0.0245  0.4659
47945ION     CL56745  12.061   4.196   0.958 -0.4528 -0.2414 -0.1574
47946ION     CL56746  12.788   4.147  22.598  0.3754 -0.0754  0.1658
47947ION     CL56747  12.974   3.739  20.618 -0.2088  0.0945  0.1257
47948ION     CL56748  18.359   3.227   7.237 -0.0630 -0.3434  0.0454
  31.44128   7.86032  26.08137
